<event>
 9    1  0.2674825E-005  0.1291154E+03  0.7546771E-02  0.1231702E+00
         -2   -1    0    0    0  501 -0.00000000000E+00  0.00000000000E+00  0.29710818119E+03  0.29710818119E+03  0.00000000000E+00 0.  1.
          1   -1    0    0  502    0  0.00000000000E+00 -0.00000000000E+00 -0.12410480541E+03  0.12410480541E+03  0.00000000000E+00 0. -1.
        -24    2    1    2    0    0  0.92970496081E+02  0.31700734039E+02  0.22142877899E+03  0.25624976447E+03  0.83575043794E+02 0.  0.
         23    2    1    2    0    0 -0.41577944495E+02 -0.23147021803E+02 -0.33562159940E+02  0.11078503138E+03  0.94246456228E+02 0.  0.
         13    1    3    3    0    0  0.88394769024E+02  0.33461541091E+01  0.10987529436E+03  0.14105818746E+03  0.00000000000E+00 0. -1.
        -14    1    3    3    0    0  0.45757270565E+01  0.28354579930E+02  0.11155348463E+03  0.11519157701E+03  0.00000000000E+00 0.  1.
        -11    1    4    4    0    0  0.25784101013E+02 -0.25863116542E+01  0.10219711223E+02  0.27855903692E+02  0.00000000000E+00 0.  1.
         11    1    4    4    0    0 -0.67362045508E+02 -0.20560710148E+02 -0.43781871163E+02  0.82929127689E+02  0.00000000000E+00 0. -1.
         21    1    1    2  502  501 -0.51392551586E+02 -0.85537122365E+01 -0.14863243270E+02  0.54178190742E+02  0.00000000000E+00 0.  1.
<scales pt_clust_5="13000.00000" pt_clust_6="13000.00000" pt_clust_7="13000.00000" pt_clust_8="13000.00000" pt_clust_9="52.09952"></scales>
<clustering>
<clus scale="   52.100">  2  9  1 -1</clus>
<clus scale="   83.575">  5  6 -1 -1</clus>
<clus scale="   94.246">  7  8 -1 -1</clus>
<clus scale="  121.545">  1  5  2 -1</clus>
<clus scale="   52.100">  2  5  1 -1</clus>
</clustering>
</event>
<event>
 9    1  0.2674825E-005  0.1418641E+03  0.7546771E-02  0.1212493E+00
          1   -1    0    0  502    0  0.00000000000E+00  0.00000000000E+00  0.12367832892E+03  0.12367832892E+03  0.00000000000E+00 0. -1.
         -2   -1    0    0    0  501 -0.00000000000E+00 -0.00000000000E+00 -0.25874849833E+03  0.25874849833E+03  0.00000000000E+00 0.  1.
         23    2    1    2    0    0 -0.19835921363E+02  0.11511776370E+03 -0.17256257550E+03  0.22634778686E+03  0.88373722668E+02 0.  0.
        -24    2    1    2    0    0  0.90023912760E+01 -0.95130960434E+02  0.17917849276E+02  0.12607902450E+03  0.80274083085E+02 0.  0.
         11    1    4    4    0    0  0.33299778609E+02 -0.80276184324E+02  0.34058976520E+02  0.93344281596E+02  0.00000000000E+00 0. -1.
        -12    1    4    4    0    0 -0.24297387333E+02 -0.14854776110E+02 -0.16141127244E+02  0.32734742907E+02  0.00000000000E+00 0.  1.
        -11    1    3    3    0    0 -0.38440797877E+02  0.10547828655E+03 -0.17198867953E+03  0.20538614794E+03  0.00000000000E+00 0.  1.
         11    1    3    3    0    0  0.18604876515E+02  0.96394771489E+01 -0.57389596258E+00  0.20961638925E+02  0.00000000000E+00 0. -1.
         21    1    1    2  502  501  0.10833530087E+02 -0.19986803270E+02  0.19574556805E+02  0.30000015886E+02  0.00000000000E+00 0. -1.
<scales pt_clust_5="13000.00000" pt_clust_6="13000.00000" pt_clust_7="13000.00000" pt_clust_8="13000.00000" pt_clust_9="22.73406"></scales>
<clustering>
<clus scale="   22.734">  1  9  2 -1</clus>
<clus scale="   80.274">  5  6 -1 -1</clus>
<clus scale="   88.374">  7  8 -1 -1</clus>
<clus scale="  136.965">  1  5  2 -1</clus>
<clus scale="   22.734">  1  5  2 -1</clus>
</clustering>
</event>
<event>
 9    1  0.2674825E-005  0.9387746E+02  0.7546771E-02  0.1297952E+00
         -2   -1    0    0    0  501 -0.00000000000E+00  0.00000000000E+00  0.98206586403E+02  0.98206586403E+02  0.00000000000E+00 0.  1.
          1   -1    0    0  502    0  0.00000000000E+00 -0.00000000000E+00 -0.13988076394E+03  0.13988076394E+03  0.00000000000E+00 0. -1.
        -24    2    1    2    0    0 -0.33742391345E+02  0.10427699189E+02  0.35754197510E+02  0.96222538793E+02  0.82055642391E+02 0.  0.
         23    2    1    2    0    0  0.61510411413E+01 -0.55725511904E+01 -0.66379224569E+02  0.11174938702E+03  0.89514442476E+02 0.  0.
         11    1    3    3    0    0 -0.78377019354E+01 -0.22030996094E+02  0.47603441770E+02  0.53036610270E+02  0.00000000000E+00 0. -1.
        -12    1    3    3    0    0 -0.25904689410E+02  0.32458695284E+02 -0.11849244260E+02  0.43185928524E+02  0.00000000000E+00 0.  1.
        -11    1    4    4    0    0  0.40450046072E+02 -0.73988025336E+01 -0.50142544940E+01  0.41425731789E+02  0.00000000000E+00 0.  1.
         11    1    4    4    0    0 -0.34299004930E+02  0.18262513431E+01 -0.61364970075E+02  0.70323655234E+02  0.00000000000E+00 0. -1.
         21    1    1    2  502  501  0.27591350204E+02 -0.48551479989E+01 -0.11049150480E+02  0.30115424528E+02  0.00000000000E+00 0.  1.
<scales pt_clust_5="13000.00000" pt_clust_6="13000.00000" pt_clust_7="13000.00000" pt_clust_8="13000.00000" pt_clust_9="28.01526"></scales>
<clustering>
<clus scale="   28.015">  2  9  1 -1</clus>
<clus scale="   82.056">  5  6 -1 -1</clus>
<clus scale="   86.794">  1  5  2 -1</clus>
<clus scale="   89.514">  7  8 -1 -1</clus>
<clus scale="   28.015">  2  5  1 -1</clus>
</clustering>
</event>
<event>
 9    1  0.2674825E-005  0.1352625E+03  0.7546771E-02  0.1223278E+00
          1   -1    0    0  502    0  0.00000000000E+00  0.00000000000E+00  0.21039632360E+03  0.21039632360E+03  0.00000000000E+00 0. -1.
         -2   -1    0    0    0  501 -0.00000000000E+00 -0.00000000000E+00 -0.10097659201E+03  0.10097659201E+03  0.00000000000E+00 0.  1.
         23    2    1    2    0    0  0.34453718455E+02  0.96542050648E+02  0.20683636784E+02  0.14150811111E+03  0.95337854084E+02 0.  0.
        -24    2    1    2    0    0 -0.46887067376E+02 -0.80261615524E+02  0.81809879035E+02  0.14824043866E+03  0.81498756624E+02 0.  0.
         11    1    4    4    0    0 -0.70254472348E+02 -0.60111037926E+02  0.56726860182E+02  0.10847563981E+03  0.00000000000E+00 0. -1.
        -12    1    4    4    0    0  0.23367404972E+02 -0.20150577598E+02  0.25083018853E+02  0.39764798848E+02  0.00000000000E+00 0.  1.
        -11    1    3    3    0    0  0.38781641664E+02  0.79311536353E+01  0.33516998878E+02  0.51868180438E+02  0.00000000000E+00 0. -1.
         11    1    3    3    0    0 -0.43279232092E+01  0.88610897013E+02 -0.12833362094E+02  0.89639930675E+02  0.00000000000E+00 0.  1.
         21    1    1    2  502  501  0.12433348922E+02 -0.16280435124E+02  0.69262157699E+01  0.21624365844E+02  0.00000000000E+00 0.  1.
<scales pt_clust_5="13000.00000" pt_clust_6="13000.00000" pt_clust_7="13000.00000" pt_clust_8="13000.00000" pt_clust_9="20.48513"></scales>
<clustering>
<clus scale="   20.485">  2  9  1 -1</clus>
<clus scale="   81.499">  5  6 -1 -1</clus>
<clus scale="   95.338">  7  8 -1 -1</clus>
<clus scale="  125.892">  1  5  2 -1</clus>
<clus scale="  125.892">  1  5  2 -1</clus>
</clustering>
</event>
<event>
 9    1  0.2674825E-005  0.1155380E+03  0.7546771E-02  0.1255298E+00
         -2   -1    0    0    0  501 -0.00000000000E+00  0.00000000000E+00  0.73648718720E+02  0.73648718720E+02  0.00000000000E+00 0.  1.
          1   -1    0    0  502    0  0.00000000000E+00 -0.00000000000E+00 -0.54594077228E+03  0.54594077228E+03  0.00000000000E+00 0. -1.
         23    2    1    2    0    0  0.56686054629E+02 -0.22779170939E+02  0.66846191805E+01  0.11402654098E+03  0.96047740715E+02 0.  0.
        -24    2    1    2    0    0 -0.66050838013E+02  0.60357486364E+02 -0.34293271854E+03  0.36411406726E+03  0.83489311719E+02 0.  0.
         11    1    4    4    0    0 -0.33260705313E+02  0.60227771494E+02 -0.31036182479E+03  0.31789640021E+03  0.00000000000E+00 0. -1.
        -12    1    4    4    0    0 -0.32790132700E+02  0.12971486983E+00 -0.32570893745E+02  0.46217667053E+02  0.00000000000E+00 0.  1.
        -13    1    3    3    0    0  0.53932018488E+02  0.16830323038E+02  0.33902074608E+02  0.65888337773E+02  0.00000000000E+00 0.  1.
         13    1    3    3    0    0  0.27540361417E+01 -0.39609493978E+02 -0.27217455427E+02  0.48138203209E+02  0.00000000000E+00 0. -1.
         21    1    1    2  502  501  0.93647833834E+01 -0.37578315425E+02 -0.13604395420E+03  0.14144888276E+03  0.00000000000E+00 0. -1.
<scales pt_clust_5="13000.00000" pt_clust_6="13000.00000" pt_clust_7="13000.00000" pt_clust_8="13000.00000" pt_clust_9="38.72763"></scales>
<clustering>
<clus scale="   38.728">  2  9  1 -1</clus>
<clus scale="   83.489">  5  6 -1 -1</clus>
<clus scale="   96.048">  7  8 -1 -1</clus>
<clus scale="  105.330">  2  5  1 -1</clus>
<clus scale="   38.728">  2  5  1 -1</clus>
</clustering>
</event>
<event>
 9    1  0.2674825E-005  0.1970129E+03  0.7546771E-02  0.1155668E+00
          1   -1    0    0  502    0  0.00000000000E+00  0.00000000000E+00  0.89420975091E+03  0.89420975091E+03  0.00000000000E+00 0. -1.
         -2   -1    0    0    0  501 -0.00000000000E+00 -0.00000000000E+00 -0.61262324711E+02  0.61262324711E+02  0.00000000000E+00 0.  1.
        -24    2    1    2    0    0 -0.49179675316E+02  0.18123305457E+03  0.22327511285E+03  0.30264314077E+03  0.80480023013E+02 0.  0.
         23    2    1    2    0    0  0.32132888719E+02 -0.11393080232E+03  0.46476582467E+03  0.49214889081E+03  0.11041063665E+03 0.  0.
         13    1    3    3    0    0 -0.40853898320E+02  0.18864073290E+03  0.20831661632E+03  0.28398975290E+03  0.00000000000E+00 0. -1.
        -14    1    3    3    0    0 -0.83257769963E+01 -0.74076783245E+01  0.14958496526E+02  0.18653387871E+02  0.00000000000E+00 0.  1.
        -13    1    4    4    0    0 -0.36404957392E+01 -0.12012162843E+03  0.29490557038E+03  0.31845212241E+03  0.00000000000E+00 0.  1.
         13    1    4    4    0    0  0.35773384459E+02  0.61908261154E+01  0.16986025429E+03  0.17369676840E+03  0.00000000000E+00 0. -1.
         21    1    1    2  502  501  0.17046786597E+02 -0.67302252256E+02  0.14490648868E+03  0.16068004404E+03  0.00000000000E+00 0.  1.
<scales pt_clust_5="13000.00000" pt_clust_6="13000.00000" pt_clust_7="13000.00000" pt_clust_8="13000.00000" pt_clust_9="69.42756"></scales>
<clustering>
<clus scale="   69.428">  1  9  2 -1</clus>
<clus scale="   80.480">  5  6 -1 -1</clus>
<clus scale="  110.411">  7  8 -1 -1</clus>
<clus scale="  181.936">  2  5  1 -1</clus>
<clus scale="   69.428">  1  5  2 -1</clus>
</clustering>
</event>
<event>
 9    1  0.2674825E-005  0.1435967E+03  0.7546771E-02  0.1208970E+00
          1   -1    0    0  502    0  0.00000000000E+00  0.00000000000E+00  0.29773949770E+03  0.29773949770E+03  0.00000000000E+00 0. -1.
         -2   -1    0    0    0  501 -0.00000000000E+00 -0.00000000000E+00 -0.13278214601E+03  0.13278214601E+03  0.00000000000E+00 0.  1.
         23    2    1    2    0    0 -0.31066144973E+02 -0.10616179393E+03 -0.55197350962E+02  0.15415540961E+03  0.92096204616E+02 0.  0.
        -24    2    1    2    0    0  0.50766285065E+02  0.88299841602E+02  0.19839732404E+03  0.24200741596E+03  0.93978792648E+02 0.  0.
         13    1    4    4    0    0  0.60669208848E+02  0.99941909220E+02  0.19327873971E+03  0.22588893144E+03  0.00000000000E+00 0. -1.
        -14    1    4    4    0    0 -0.99029237828E+01 -0.11642067617E+02  0.51185843286E+01  0.16118484525E+02  0.00000000000E+00 0.  1.
        -11    1    3    3    0    0 -0.54230567809E+02 -0.10677883323E+03 -0.52717927901E+02  0.13085050108E+03  0.00000000000E+00 0.  1.
         11    1    3    3    0    0  0.23164422836E+02  0.61703930013E+00 -0.24794230607E+01  0.23304908529E+02  0.00000000000E+00 0. -1.
         21    1    1    2  502  501 -0.19700140092E+02  0.17861952324E+02  0.21757378603E+02  0.34358818142E+02  0.00000000000E+00 0.  1.
<scales pt_clust_5="13000.00000" pt_clust_6="13000.00000" pt_clust_7="13000.00000" pt_clust_8="13000.00000" pt_clust_9="26.59220"></scales>
<clustering>
<clus scale="   26.592">  1  9  2 -1</clus>
<clus scale="   92.096">  7  8 -1 -1</clus>
<clus scale="   93.979">  5  6 -1 -1</clus>
<clus scale="  142.372">  2  7  1 -1</clus>
<clus scale="   26.592">  1  5  2 -1</clus>
</clustering>
</event>
<event>
 9    1  0.2674825E-005  0.1005341E+03  0.7546771E-02  0.1285453E+00
         -2   -1    0    0    0  501 -0.00000000000E+00  0.00000000000E+00  0.19241810210E+03  0.19241810210E+03  0.00000000000E+00 0.  1.
          1   -1    0    0  502    0  0.00000000000E+00 -0.00000000000E+00 -0.10483217951E+03  0.10483217951E+03  0.00000000000E+00 0. -1.
         23    2    1    2    0    0  0.23413064763E+02 -0.32705250609E+02  0.12762953904E+03  0.16170777193E+03  0.90787109478E+02 0.  0.
        -24    2    1    2    0    0 -0.53794840508E+02  0.26582917801E+02 -0.30680332079E+02  0.10316649464E+03  0.78112140254E+02 0.  0.
         11    1    4    4    0    0 -0.68169532409E+02  0.32632497343E+02 -0.39470985476E+02  0.85263847709E+02  0.00000000000E+00 0. -1.
        -12    1    4    4    0    0  0.14374691901E+02 -0.60495795414E+01  0.87906533976E+01  0.17902646928E+02  0.00000000000E+00 0.  1.
        -11    1    3    3    0    0  0.56192035208E+02 -0.11650832526E+02  0.56075910329E+02  0.80235867532E+02  0.00000000000E+00 0. -1.
         11    1    3    3    0    0 -0.32778970445E+02 -0.21054418082E+02  0.71553628708E+02  0.81471904393E+02  0.00000000000E+00 0.  1.
         21    1    1    2  502  501  0.30381775745E+02  0.61223328075E+01 -0.93632843659E+01  0.32376015050E+02  0.00000000000E+00 0.  1.
<scales pt_clust_5="13000.00000" pt_clust_6="13000.00000" pt_clust_7="13000.00000" pt_clust_8="13000.00000" pt_clust_9="30.99250"></scales>
<clustering>
<clus scale="   30.993">  2  9  1 -1</clus>
<clus scale="   78.112">  5  6 -1 -1</clus>
<clus scale="   89.254">  2  5  1 -1</clus>
<clus scale="   90.787">  7  8 -1 -1</clus>
<clus scale="   30.993">  2  5  1 -1</clus>
</clustering>
</event>
<event>
 9    1  0.2674825E-005  0.1047254E+03  0.7546771E-02  0.1275486E+00
          1   -1    0    0  502    0  0.00000000000E+00  0.00000000000E+00  0.18544535752E+03  0.18544535752E+03  0.00000000000E+00 0. -1.
         -2   -1    0    0    0  501 -0.00000000000E+00 -0.00000000000E+00 -0.11507452951E+03  0.11507452951E+03  0.00000000000E+00 0.  1.
         23    2    1    2    0    0  0.44867711396E+02 -0.12161379228E+02 -0.46249009512E+02  0.11283690432E+03  0.91826931910E+02 0.  0.
        -24    2    1    2    0    0 -0.61359966354E+02 -0.46668489891E+01  0.43198531885E+02  0.11057350301E+03  0.81077502806E+02 0.  0.
         13    1    4    4    0    0 -0.81109813088E+02 -0.42021870323E+01  0.40093537377E+02  0.90575669440E+02  0.00000000000E+00 0. -1.
        -14    1    4    4    0    0  0.19749846734E+02 -0.46466195673E+00  0.31049945082E+01  0.19997833574E+02  0.00000000000E+00 0.  1.
        -13    1    3    3    0    0  0.15128001547E+02  0.19843369563E+02 -0.61653476973E+02  0.66511404806E+02  0.00000000000E+00 0.  1.
         13    1    3    3    0    0  0.29739709849E+02 -0.32004748791E+02  0.15404467461E+02  0.46325499510E+02  0.00000000000E+00 0. -1.
         21    1    1    2  502  501  0.16492254957E+02  0.16828228217E+02  0.73421305633E+02  0.77109479698E+02  0.00000000000E+00 0.  1.
<scales pt_clust_5="13000.00000" pt_clust_6="13000.00000" pt_clust_7="13000.00000" pt_clust_8="13000.00000" pt_clust_9="23.56234"></scales>
<clustering>
<clus scale="   23.562">  1  9  2 -1</clus>
<clus scale="   81.078">  5  6 -1 -1</clus>
<clus scale="   91.827">  7  8 -1 -1</clus>
<clus scale="   95.440">  1  5  2 -1</clus>
<clus scale="   23.562">  1  5  2 -1</clus>
</clustering>
</event>
<event>
 9    1  0.2674825E-005  0.9178245E+02  0.7546771E-02  0.1304978E+00
          3   -1    0    0  502    0  0.00000000000E+00  0.00000000000E+00  0.20859416374E+03  0.20859416374E+03  0.00000000000E+00 0. -1.
         -4   -1    0    0    0  501 -0.00000000000E+00 -0.00000000000E+00 -0.81575542430E+03  0.81575542430E+03  0.00000000000E+00 0.  1.
        -24    2    1    2    0    0  0.73380861990E+01  0.27718910196E+01 -0.77009376095E+03  0.77441550187E+03  0.81323047095E+02 0.  0.
         23    2    1    2    0    0  0.64130050096E+02 -0.25173451341E+02  0.10193827432E+03  0.15334309267E+03  0.91522272269E+02 0.  0.
         11    1    3    3    0    0 -0.32785114873E+01  0.21496421114E+02 -0.57153310967E+02  0.61150189801E+02  0.00000000000E+00 0. -1.
        -12    1    3    3    0    0  0.10616597686E+02 -0.18724530094E+02 -0.71294044999E+03  0.71326531207E+03  0.00000000000E+00 0.  1.
        -11    1    4    4    0    0 -0.98698338302E+01 -0.24756493856E+02  0.65793600192E+02  0.70986586297E+02  0.00000000000E+00 0. -1.
         11    1    4    4    0    0  0.73999883926E+02 -0.41695748477E+00  0.36144674128E+02  0.82356506376E+02  0.00000000000E+00 0.  1.
         21    1    1    2  502  501 -0.71468136295E+02  0.22401560321E+02  0.60994226075E+02  0.96590993497E+02  0.00000000000E+00 0. -1.
<scales pt_clust_5="13000.00000" pt_clust_6="13000.00000" pt_clust_7="13000.00000" pt_clust_8="13000.00000" pt_clust_9="74.89676"></scales>
<clustering>
<clus scale="   74.897">  1  9  2 -1</clus>
<clus scale="   81.323">  5  6 -1 -1</clus>
<clus scale="   81.616">  2  5  1 -1</clus>
<clus scale="   91.522">  7  8 -1 -1</clus>
<clus scale="   74.897">  1  5  2 -1</clus>
</clustering>
</event>
<event>
 9    1  0.2674825E-005  0.1562333E+03  0.7546771E-02  0.1195216E+00
         -2   -1    0    0    0  501 -0.00000000000E+00  0.00000000000E+00  0.10251709215E+03  0.10251709215E+03  0.00000000000E+00 0.  1.
          1   -1    0    0  502    0  0.00000000000E+00 -0.00000000000E+00 -0.92574584788E+03  0.92574584788E+03  0.00000000000E+00 0. -1.
        -24    2    1    2    0    0 -0.99065887675E+02  0.89112280857E+02  0.14737439665E+02  0.15839702300E+03  0.84364542712E+02 0.  0.
         23    2    1    2    0    0  0.78891535402E+02  0.15924261225E+02 -0.48365511357E+03  0.49976319836E+03  0.96765330042E+02 0.  0.
         13    1    3    3    0    0  0.53022715370E+00  0.45783015271E+02  0.19301225131E+02  0.49688056107E+02  0.00000000000E+00 0. -1.
        -14    1    3    3    0    0 -0.99596114828E+02  0.43329265586E+02 -0.45637854662E+01  0.10870896689E+03  0.00000000000E+00 0.  1.
        -11    1    4    4    0    0  0.18691464887E+02 -0.39703679977E+02 -0.17181282883E+03  0.17732851213E+03  0.00000000000E+00 0. -1.
         11    1    4    4    0    0  0.60200070515E+02  0.55627941202E+02 -0.31184228474E+03  0.32243468623E+03  0.00000000000E+00 0.  1.
         21    1    1    2  502  501  0.20174352272E+02 -0.10503654208E+03 -0.35431108182E+03  0.37010271867E+03  0.00000000000E+00 0. -1.
<scales pt_clust_5="13000.00000" pt_clust_6="13000.00000" pt_clust_7="13000.00000" pt_clust_8="13000.00000" pt_clust_9="106.95644"></scales>
<clustering>
<clus scale="   84.365">  5  6 -1 -1</clus>
<clus scale="   96.765">  7  8 -1 -1</clus>
<clus scale="  106.956">  2  9  1 -1</clus>
<clus scale="  148.871">  1  5  2 -1</clus>
<clus scale="  106.956">  2  5  1 -1</clus>
</clustering>
</event>
<event>
 9    1  0.2674825E-005  0.1485743E+03  0.7546771E-02  0.1218887E+00
         -4   -1    0    0    0  501 -0.00000000000E+00  0.00000000000E+00  0.91980961621E+02  0.91980961621E+02  0.00000000000E+00 0.  1.
          3   -1    0    0  502    0  0.00000000000E+00 -0.00000000000E+00 -0.97655956757E+03  0.97655956757E+03  0.00000000000E+00 0. -1.
        -24    2    1    2    0    0 -0.55036291949E+02  0.14546743022E+02 -0.10411580538E+02  0.10467136078E+03  0.87218642466E+02 0.  0.
         23    2    1    2    0    0  0.13495883070E+03 -0.91997909443E+02 -0.17748622464E+03  0.25835486413E+03  0.92565514952E+02 0.  0.
         11    1    3    3    0    0 -0.61188838126E+02  0.31512984692E+02 -0.32527672848E+02  0.76126155927E+02  0.00000000000E+00 0. -1.
        -12    1    3    3    0    0  0.61525461768E+01 -0.16966241670E+02  0.22116092310E+02  0.28545204850E+02  0.00000000000E+00 0.  1.
        -13    1    4    4    0    0  0.53234998744E+02 -0.85583501983E+02 -0.68010676216E+02  0.12158927988E+03  0.00000000000E+00 0.  1.
         13    1    4    4    0    0  0.81723831957E+02 -0.64144074603E+01 -0.10947554842E+03  0.13676558425E+03  0.00000000000E+00 0. -1.
         21    1    1    2  502  501 -0.79922538751E+02  0.77451166422E+02 -0.69668080077E+03  0.70551430428E+03  0.00000000000E+00 0. -1.
<scales pt_clust_5="13000.00000" pt_clust_6="13000.00000" pt_clust_7="13000.00000" pt_clust_8="13000.00000" pt_clust_9="116.21506"></scales>
<clustering>
<clus scale="   87.219">  5  6 -1 -1</clus>
<clus scale="   92.566">  7  8 -1 -1</clus>
<clus scale="  104.152">  1  5  2 -1</clus>
<clus scale="  116.215">  2  9  1 -1</clus>
<clus scale="  116.215">  2  5  1 -1</clus>
</clustering>
</event>
<event>
 9    1  0.2674825E-005  0.2321986E+03  0.7546771E-02  0.1127797E+00
         -4   -1    0    0    0  501 -0.00000000000E+00  0.00000000000E+00  0.38202219255E+03  0.38202219255E+03  0.00000000000E+00 0.  1.
          3   -1    0    0  502    0  0.00000000000E+00 -0.00000000000E+00 -0.17449764986E+03  0.17449764986E+03  0.00000000000E+00 0. -1.
        -24    2    1    2    0    0  0.18622243805E+03  0.11188927078E+03  0.17850311053E+03  0.29282288896E+03  0.81754990558E+02 0.  0.
         23    2    1    2    0    0 -0.16369072356E+03 -0.67400944652E+02  0.30976494108E+02  0.21378992402E+03  0.11579744430E+03 0.  0.
         11    1    3    3    0    0  0.33759316363E+02  0.31726842055E+02  0.22602455686E+01  0.46383107466E+02  0.00000000000E+00 0. -1.
        -12    1    3    3    0    0  0.15246312169E+03  0.80162428721E+02  0.17624286496E+03  0.24643978149E+03  0.00000000000E+00 0.  1.
        -11    1    4    4    0    0 -0.32328670655E+02  0.28899326416E+02  0.26560630783E+02  0.50850576410E+02  0.00000000000E+00 0.  1.
         11    1    4    4    0    0 -0.13136205290E+03 -0.96300271068E+02  0.44158633253E+01  0.16293934761E+03  0.00000000000E+00 0. -1.
         21    1    1    2  502  501 -0.22531714494E+02 -0.44488326124E+02 -0.19550619433E+01  0.49907029431E+02  0.00000000000E+00 0.  1.
<scales pt_clust_5="13000.00000" pt_clust_6="13000.00000" pt_clust_7="13000.00000" pt_clust_8="13000.00000" pt_clust_9="49.86872"></scales>
<clustering>
<clus scale="   49.869">  2  9  1 -1</clus>
<clus scale="   81.755">  5  6 -1 -1</clus>
<clus scale="  115.797">  7  8 -1 -1</clus>
<clus scale="  217.235">  1  5  2 -1</clus>
<clus scale="   49.869">  2  5  1 -1</clus>
</clustering>
</event>
<event>
 9    1  0.2674825E-005  0.1463400E+03  0.7546771E-02  0.1208553E+00
          1   -1    0    0  502    0  0.00000000000E+00  0.00000000000E+00  0.30837427388E+03  0.30837427388E+03  0.00000000000E+00 0. -1.
         -2   -1    0    0    0  501 -0.00000000000E+00 -0.00000000000E+00 -0.20280019163E+03  0.20280019163E+03  0.00000000000E+00 0.  1.
         23    2    1    2    0    0  0.55349163647E+02 -0.76110894535E+02 -0.13525817377E+03  0.18850334727E+03  0.91555120976E+02 0.  0.
        -24    2    1    2    0    0 -0.75539173675E+02  0.88446476272E+02  0.25872350226E+03  0.29300801365E+03  0.73395500657E+02 0.  0.
         13    1    4    4    0    0 -0.30300127568E+02  0.43879562839E+02  0.19832256829E+03  0.20536639175E+03  0.00000000000E+00 0. -1.
        -14    1    4    4    0    0 -0.45239046107E+02  0.44566913433E+02  0.60400933974E+02  0.87641621907E+02  0.00000000000E+00 0.  1.
        -13    1    3    3    0    0  0.70668848300E+02 -0.30332319567E+02 -0.53934781222E+02  0.93931338518E+02  0.00000000000E+00 0. -1.
         13    1    3    3    0    0 -0.15319684652E+02 -0.45778574968E+02 -0.81323392544E+02  0.94572008749E+02  0.00000000000E+00 0.  1.
         21    1    1    2  502  501  0.20190010027E+02 -0.12335581738E+02 -0.17891246246E+02  0.29663104590E+02  0.00000000000E+00 0.  1.
<scales pt_clust_5="13000.00000" pt_clust_6="13000.00000" pt_clust_7="13000.00000" pt_clust_8="13000.00000" pt_clust_9="23.66016"></scales>
<clustering>
<clus scale="   23.660">  2  9  1 -1</clus>
<clus scale="   73.396">  5  6 -1 -1</clus>
<clus scale="   91.555">  7  8 -1 -1</clus>
<clus scale="  135.720">  1  5  2 -1</clus>
<clus scale="  135.720">  1  5  2 -1</clus>
</clustering>
</event>
<event>
 9    1  0.2674825E-005  0.1125226E+03  0.7546771E-02  0.1257551E+00
         -2   -1    0    0    0  501 -0.00000000000E+00  0.00000000000E+00  0.44232200753E+02  0.44232200753E+02  0.00000000000E+00 0.  1.
          1   -1    0    0  502    0  0.00000000000E+00 -0.00000000000E+00 -0.59085078735E+03  0.59085078735E+03  0.00000000000E+00 0. -1.
         23    2    1    2    0    0 -0.29297067363E+02 -0.47920400020E+02 -0.10643806893E+03  0.14934076681E+03  0.88424652777E+02 0.  0.
        -24    2    1    2    0    0 -0.32010073866E+02  0.77064741269E+02 -0.36836998039E+03  0.38692566673E+03  0.83972673804E+02 0.  0.
         11    1    4    4    0    0 -0.51964053752E+02  0.75586246770E+02 -0.23862793270E+03  0.25564982662E+03  0.00000000000E+00 0. -1.
        -12    1    4    4    0    0  0.19953979886E+02  0.14784944992E+01 -0.12974204769E+03  0.13127584011E+03  0.00000000000E+00 0.  1.
        -13    1    3    3    0    0 -0.81450347339E+00 -0.58414123724E+02 -0.10349430531E+03  0.11884420262E+03  0.00000000000E+00 0.  1.
         13    1    3    3    0    0 -0.28482563889E+02  0.10493723704E+02 -0.29437636286E+01  0.30496564187E+02  0.00000000000E+00 0. -1.
         21    1    1    2  502  501  0.61307141229E+02 -0.29144341249E+02 -0.71810537271E+02  0.98816554563E+02  0.00000000000E+00 0.  1.
<scales pt_clust_5="13000.00000" pt_clust_6="13000.00000" pt_clust_7="13000.00000" pt_clust_8="13000.00000" pt_clust_9="67.88194"></scales>
<clustering>
<clus scale="   67.882">  1  9  2 -1</clus>
<clus scale="   83.973">  5  6 -1 -1</clus>
<clus scale="   88.425">  7  8 -1 -1</clus>
<clus scale="  109.059">  2  5  1 -1</clus>
<clus scale="  109.059">  2  5  1 -1</clus>
</clustering>
</event>
<event>
 9    1  0.2674825E-005  0.1497893E+03  0.7546771E-02  0.1203264E+00
          1   -1    0    0  502    0  0.00000000000E+00  0.00000000000E+00  0.60871202838E+02  0.60871202838E+02  0.00000000000E+00 0. -1.
         -2   -1    0    0    0  501 -0.00000000000E+00 -0.00000000000E+00 -0.43761433198E+03  0.43761433198E+03  0.00000000000E+00 0.  1.
        -24    2    1    2    0    0  0.56100934858E+02 -0.11328516780E+03 -0.21886401373E+03  0.26517399036E+03  0.80218105955E+02 0.  0.
         23    2    1    2    0    0 -0.51373981298E+02  0.92653807532E+02 -0.15816752601E+03  0.21214363721E+03  0.93615930914E+02 0.  0.
         13    1    3    3    0    0  0.10217087551E+02 -0.80827361241E+02 -0.75058423523E+02  0.11077553044E+03  0.00000000000E+00 0. -1.
        -14    1    3    3    0    0  0.45883847307E+02 -0.32457806557E+02 -0.14380559021E+03  0.15439845992E+03  0.00000000000E+00 0.  1.
        -11    1    4    4    0    0 -0.41564898924E+02  0.44601632316E+02 -0.17885905975E+02  0.63536226363E+02  0.00000000000E+00 0. -1.
         11    1    4    4    0    0 -0.98090823741E+01  0.48052175216E+02 -0.14028162003E+03  0.14860741085E+03  0.00000000000E+00 0.  1.
         21    1    1    2  502  501 -0.47269535599E+01  0.20631360266E+02  0.28841059986E+00  0.21167907243E+02  0.00000000000E+00 0. -1.
<scales pt_clust_5="13000.00000" pt_clust_6="13000.00000" pt_clust_7="13000.00000" pt_clust_8="13000.00000" pt_clust_9="21.16594"></scales>
<clustering>
<clus scale="   21.166">  1  9  2 -1</clus>
<clus scale="   80.218">  5  6 -1 -1</clus>
<clus scale="   93.616">  7  8 -1 -1</clus>
<clus scale="  141.802">  2  5  1 -1</clus>
<clus scale="   21.166">  1  5  2 -1</clus>
</clustering>
</event>
<event>
 9    1  0.2674825E-005  0.1065319E+03  0.7546771E-02  0.1276684E+00
         -2   -1    0    0    0  501 -0.00000000000E+00  0.00000000000E+00  0.60493709164E+03  0.60493709164E+03  0.00000000000E+00 0.  1.
          1   -1    0    0  502    0  0.00000000000E+00 -0.00000000000E+00 -0.24887926942E+02  0.24887926942E+02  0.00000000000E+00 0. -1.
         23    2    1    2    0    0  0.99650027164E+01 -0.60499403395E+02  0.39305268877E+03  0.40790185991E+03  0.90188868921E+02 0.  0.
        -24    2    1    2    0    0 -0.35513426190E+02  0.41207899066E+02  0.14391923962E+03  0.16825256739E+03  0.68094673163E+02 0.  0.
         11    1    4    4    0    0 -0.48079013219E+02  0.16820867801E+02  0.53962992331E+02  0.74206048587E+02  0.00000000000E+00 0. -1.
        -12    1    4    4    0    0  0.12565587029E+02  0.24387031265E+02  0.89956247292E+02  0.94046518799E+02  0.00000000000E+00 0.  1.
        -13    1    3    3    0    0 -0.30595269175E+02 -0.39717299184E+02  0.30142331106E+03  0.30556430878E+03  0.00000000000E+00 0.  1.
         13    1    3    3    0    0  0.40560271891E+02 -0.20782104210E+02  0.91629377711E+02  0.10233755113E+03  0.00000000000E+00 0. -1.
         21    1    1    2  502  501  0.25548423474E+02  0.19291504328E+02  0.43077236299E+02  0.53670591280E+02  0.00000000000E+00 0.  1.
<scales pt_clust_5="13000.00000" pt_clust_6="13000.00000" pt_clust_7="13000.00000" pt_clust_8="13000.00000" pt_clust_9="32.01381"></scales>
<clustering>
<clus scale="   32.014">  2  9  1 -1</clus>
<clus scale="   68.095">  5  6 -1 -1</clus>
<clus scale="   88.611">  2  5  1 -1</clus>
<clus scale="   90.189">  7  8 -1 -1</clus>
<clus scale="   32.014">  2  5  1 -1</clus>
</clustering>
</event>
<event>
 9    1  0.2674825E-005  0.1310392E+03  0.7546771E-02  0.1228811E+00
         -2   -1    0    0    0  501 -0.00000000000E+00  0.00000000000E+00  0.88595826402E+02  0.88595826402E+02  0.00000000000E+00 0.  1.
          1   -1    0    0  502    0  0.00000000000E+00 -0.00000000000E+00 -0.55272291321E+03  0.55272291321E+03  0.00000000000E+00 0. -1.
        -24    2    1    2    0    0  0.14980875636E+02  0.98108425304E+02  0.18550966623E+02  0.12833861520E+03  0.79227344008E+02 0.  0.
         23    2    1    2    0    0  0.68687180871E+01 -0.94086701921E+02 -0.46896612507E+03  0.48687273112E+03  0.90644046039E+02 0.  0.
         11    1    3    3    0    0  0.34453516963E+02  0.33593167419E+02 -0.18358259610E+02  0.51503120530E+02  0.00000000000E+00 0. -1.
        -12    1    3    3    0    0 -0.19472641327E+02  0.64515257885E+02  0.36909226233E+02  0.76835494671E+02  0.00000000000E+00 0.  1.
        -11    1    4    4    0    0  0.27606099962E+02  0.56304761841E+01 -0.80997034499E+02  0.85757323972E+02  0.00000000000E+00 0.  1.
         11    1    4    4    0    0 -0.20737381875E+02 -0.99717178105E+02 -0.38796909057E+03  0.40111540715E+03  0.00000000000E+00 0. -1.
         21    1    1    2  502  501 -0.21849593723E+02 -0.40217233836E+01 -0.13711928361E+02  0.26107393287E+02  0.00000000000E+00 0. -1.
<scales pt_clust_5="13000.00000" pt_clust_6="13000.00000" pt_clust_7="13000.00000" pt_clust_8="13000.00000" pt_clust_9="22.21664"></scales>
<clustering>
<clus scale="   22.217">  1  9  2 -1</clus>
<clus scale="   79.227">  5  6 -1 -1</clus>
<clus scale="   90.644">  7  8 -1 -1</clus>
<clus scale="  123.418">  1  5  2 -1</clus>
<clus scale="  131.039">  2  5  1 -1</clus>
</clustering>
</event>
<event>
 9    1  0.2674825E-005  0.1129183E+03  0.7546771E-02  0.1258996E+00
          1   -1    0    0  502    0  0.00000000000E+00  0.00000000000E+00  0.35913937467E+02  0.35913937467E+02  0.00000000000E+00 0. -1.
         -2   -1    0    0    0  501 -0.00000000000E+00 -0.00000000000E+00 -0.85762482861E+03  0.85762482861E+03  0.00000000000E+00 0.  1.
         23    2    1    2    0    0  0.33675177909E+02  0.57921485044E+02 -0.55170866621E+03  0.56288307781E+03  0.89252399867E+02 0.  0.
        -24    2    1    2    0    0  0.18721079205E+02 -0.94173698310E+02 -0.14985178182E+03  0.19465671876E+03  0.78844894461E+02 0.  0.
         11    1    4    4    0    0  0.33893193761E+02 -0.97323767121E+02 -0.14596724455E+03  0.17868156231E+03  0.00000000000E+00 0. -1.
        -12    1    4    4    0    0 -0.15172114556E+02  0.31500688106E+01 -0.38845372739E+01  0.15975156445E+02  0.00000000000E+00 0.  1.
        -11    1    3    3    0    0 -0.24796034641E+02 -0.54173842822E+01 -0.12991639053E+03  0.13237242883E+03  0.00000000000E+00 0. -1.
         11    1    3    3    0    0  0.58471212550E+02  0.63338869326E+02 -0.42179227568E+03  0.43051064898E+03  0.00000000000E+00 0.  1.
         21    1    1    2  502  501 -0.52396257114E+02  0.36252213266E+02 -0.12015044311E+03  0.13599896950E+03  0.00000000000E+00 0. -1.
<scales pt_clust_5="13000.00000" pt_clust_6="13000.00000" pt_clust_7="13000.00000" pt_clust_8="13000.00000" pt_clust_9="63.71492"></scales>
<clustering>
<clus scale="   63.715">  1  9  2 -1</clus>
<clus scale="   78.845">  5  6 -1 -1</clus>
<clus scale="   89.252">  7  8 -1 -1</clus>
<clus scale="  104.886">  1  5  2 -1</clus>
<clus scale="   63.715">  1  5  2 -1</clus>
</clustering>
</event>
<event>
 9    1  0.2674825E-005  0.1010224E+03  0.7546771E-02  0.1282856E+00
          1   -1    0    0  502    0  0.00000000000E+00  0.00000000000E+00  0.12175250623E+03  0.12175250623E+03  0.00000000000E+00 0. -1.
         -2   -1    0    0    0  501 -0.00000000000E+00 -0.00000000000E+00 -0.33266613589E+03  0.33266613589E+03  0.00000000000E+00 0.  1.
        -24    2    1    2    0    0 -0.22259081921E+02  0.36581452267E+02 -0.29380097222E+03  0.30810957249E+03  0.82333638344E+02 0.  0.
         23    2    1    2    0    0  0.31950376786E+00 -0.34355667212E+02  0.72065749984E+02  0.12174474439E+03  0.91912439381E+02 0.  0.
         11    1    3    3    0    0  0.93694142293E+01 -0.23253445480E+02 -0.74844641621E+02  0.78931799859E+02  0.00000000000E+00 0. -1.
        -12    1    3    3    0    0 -0.31628496150E+02  0.59834897748E+02 -0.21895633060E+03  0.22917777263E+03  0.00000000000E+00 0.  1.
        -11    1    4    4    0    0 -0.44880694328E+02 -0.15144567700E+02  0.46495204412E+02  0.66373478796E+02  0.00000000000E+00 0.  1.
         11    1    4    4    0    0  0.45200198096E+02 -0.19211099512E+02  0.25570545572E+02  0.55371265592E+02  0.00000000000E+00 0. -1.
         21    1    1    2  502  501  0.21939578153E+02 -0.22257850552E+01  0.10821592575E+02  0.24564325240E+02  0.00000000000E+00 0. -1.
<scales pt_clust_5="13000.00000" pt_clust_6="13000.00000" pt_clust_7="13000.00000" pt_clust_8="13000.00000" pt_clust_9="22.05219"></scales>
<clustering>
<clus scale="   22.052">  1  9  2 -1</clus>
<clus scale="   82.334">  5  6 -1 -1</clus>
<clus scale="   91.912">  7  8 -1 -1</clus>
<clus scale="   92.393">  2  5  1 -1</clus>
<clus scale="   22.052">  1  5  2 -1</clus>
</clustering>
</event>
<event>
 9    1  0.2674825E-005  0.2012777E+03  0.7546771E-02  0.1149592E+00
          3   -1    0    0  502    0  0.00000000000E+00  0.00000000000E+00  0.27441254260E+03  0.27441254260E+03  0.00000000000E+00 0. -1.
         -4   -1    0    0    0  501 -0.00000000000E+00 -0.00000000000E+00 -0.45249820603E+03  0.45249820603E+03  0.00000000000E+00 0.  1.
         23    2    1    2    0    0 -0.16108908146E+03  0.74807002183E+02 -0.36300469424E+03  0.41404872632E+03  0.90100832356E+02 0.  0.
        -24    2    1    2    0    0  0.18375255874E+03 -0.84286965487E+02  0.18890358749E+03  0.28797468419E+03  0.79847091193E+02 0.  0.
         13    1    4    4    0    0  0.66080781612E+02  0.75822007160E+00  0.92556279690E+02  0.11372734722E+03  0.00000000000E+00 0. -1.
        -14    1    4    4    0    0  0.11767177713E+03 -0.85045185559E+02  0.96347307796E+02  0.17424733696E+03  0.00000000000E+00 0.  1.
        -13    1    3    3    0    0 -0.14695862980E+03  0.28976611918E+02 -0.29478506126E+03  0.33065800346E+03  0.00000000000E+00 0. -1.
         13    1    3    3    0    0 -0.14130451657E+02  0.45830390265E+02 -0.68219632975E+02  0.83390722860E+02  0.00000000000E+00 0.  1.
         21    1    1    2  502  501 -0.22663477283E+02  0.94799633044E+01 -0.39845566772E+01  0.24887338121E+02  0.00000000000E+00 0. -1.
<scales pt_clust_5="13000.00000" pt_clust_6="13000.00000" pt_clust_7="13000.00000" pt_clust_8="13000.00000" pt_clust_9="24.56630"></scales>
<clustering>
<clus scale="   24.566">  1  9  2 -1</clus>
<clus scale="   79.847">  5  6 -1 -1</clus>
<clus scale="   90.101">  7  8 -1 -1</clus>
<clus scale="  196.901">  1  5  2 -1</clus>
<clus scale="   24.566">  1  5  2 -1</clus>
</clustering>
</event>
<event>
 9    1  0.2674825E-005  0.9415033E+02  0.7546771E-02  0.1309406E+00
          1   -1    0    0  502    0  0.00000000000E+00  0.00000000000E+00  0.32127059777E+03  0.32127059777E+03  0.00000000000E+00 0. -1.
         -2   -1    0    0    0  501 -0.00000000000E+00 -0.00000000000E+00 -0.40830760664E+02  0.40830760664E+02  0.00000000000E+00 0.  1.
        -24    2    1    2    0    0  0.10461865936E+02  0.12703981678E+02  0.17964324143E+02  0.72706931422E+02  0.68503570312E+02 0.  0.
         23    2    1    2    0    0  0.13515546214E+02 -0.76250303051E+01  0.17934099547E+03  0.20272228594E+03  0.93232620262E+02 0.  0.
         13    1    3    3    0    0 -0.19347748496E+02 -0.18026082495E+02  0.44340415388E+00  0.26447525957E+02  0.00000000000E+00 0. -1.
        -14    1    3    3    0    0  0.29809614433E+02  0.30730064173E+02  0.17520919989E+02  0.46259405465E+02  0.00000000000E+00 0.  1.
        -11    1    4    4    0    0 -0.33542448182E+02 -0.75364745114E+01  0.13028585233E+03  0.13474530639E+03  0.00000000000E+00 0. -1.
         11    1    4    4    0    0  0.47057994396E+02 -0.88555793626E-01  0.49055143145E+02  0.67976979542E+02  0.00000000000E+00 0.  1.
         21    1    1    2  502  501 -0.23977412151E+02 -0.50789513729E+01  0.83134517489E+02  0.86672141076E+02  0.00000000000E+00 0. -1.
<scales pt_clust_5="13000.00000" pt_clust_6="13000.00000" pt_clust_7="13000.00000" pt_clust_8="13000.00000" pt_clust_9="24.50943"></scales>
<clustering>
<clus scale="   24.509">  1  9  2 -1</clus>
<clus scale="   68.504">  5  6 -1 -1</clus>
<clus scale="   69.747">  2  5  1 -1</clus>
<clus scale="   93.233">  7  8 -1 -1</clus>
<clus scale="   24.509">  1  5  2 -1</clus>
</clustering>
</event>
<event>
 9    1  0.2674825E-005  0.9650441E+02  0.7546771E-02  0.1288681E+00
          3   -1    0    0  502    0  0.00000000000E+00  0.00000000000E+00  0.41747352113E+03  0.41747352113E+03  0.00000000000E+00 0. -1.
         -4   -1    0    0    0  501 -0.00000000000E+00 -0.00000000000E+00 -0.33881346858E+02  0.33881346858E+02  0.00000000000E+00 0.  1.
         23    2    1    2    0    0  0.27872770090E+02 -0.42136935595E+02  0.10870934160E+03  0.14214314778E+03  0.76384166273E+02 0.  0.
        -24    2    1    2    0    0 -0.44971511654E+02  0.53565237380E+02  0.14295607014E+03  0.17569152054E+03  0.74427151533E+02 0.  0.
         13    1    4    4    0    0  0.78779602906E+01  0.34886054333E+02  0.96416922775E+02  0.10283638482E+03  0.00000000000E+00 0. -1.
        -14    1    4    4    0    0 -0.52849471944E+02  0.18679183047E+02  0.46539147365E+02  0.72855135725E+02  0.00000000000E+00 0.  1.
        -11    1    3    3    0    0 -0.21232425390E+02 -0.25818832460E+02  0.69831249430E+02  0.77419838507E+02  0.00000000000E+00 0.  1.
         11    1    3    3    0    0  0.49105195479E+02 -0.16318103136E+02  0.38878092169E+02  0.64723309277E+02  0.00000000000E+00 0. -1.
         21    1    1    2  502  501  0.17098741564E+02 -0.11428301784E+02  0.13192676253E+03  0.13352019966E+03  0.00000000000E+00 0.  1.
<scales pt_clust_5="13000.00000" pt_clust_6="13000.00000" pt_clust_7="13000.00000" pt_clust_8="13000.00000" pt_clust_9="20.56631"></scales>
<clustering>
<clus scale="   20.566">  1  9  2 -1</clus>
<clus scale="   74.427">  5  6 -1 -1</clus>
<clus scale="   76.384">  7  8 -1 -1</clus>
<clus scale="   94.963">  1  5  2 -1</clus>
<clus scale="   20.566">  1  5  2 -1</clus>
</clustering>
</event>
<event>
 9    1  0.2674825E-005  0.1259842E+03  0.7546771E-02  0.1236851E+00
         -2   -1    0    0    0  501 -0.00000000000E+00  0.00000000000E+00  0.50534367011E+02  0.50534367011E+02  0.00000000000E+00 0.  1.
          1   -1    0    0  502    0  0.00000000000E+00 -0.00000000000E+00 -0.72498719538E+03  0.72498719538E+03  0.00000000000E+00 0. -1.
        -24    2    1    2    0    0 -0.28678382541E+02 -0.82451521245E+02 -0.64280036665E+02  0.13507806088E+03  0.80581985806E+02 0.  0.
         23    2    1    2    0    0  0.78571259911E+02  0.53549292751E+02 -0.35688305385E+03  0.38067373937E+03  0.92228043881E+02 0.  0.
         11    1    3    3    0    0  0.21199159356E+02  0.13540677180E+01 -0.10242466284E+02  0.23582747346E+02  0.00000000000E+00 0. -1.
        -12    1    3    3    0    0 -0.49877541897E+02 -0.83805588963E+02 -0.54037570380E+02  0.11149531353E+03  0.00000000000E+00 0.  1.
        -11    1    4    4    0    0  0.29732773818E+02 -0.22532025236E+02 -0.63191280061E+02  0.73381658988E+02  0.00000000000E+00 0.  1.
         11    1    4    4    0    0  0.48838486093E+02  0.76081317987E+02 -0.29369177379E+03  0.30729208038E+03  0.00000000000E+00 0. -1.
         21    1    1    2  502  501 -0.49892877370E+02  0.28902228494E+02 -0.25328973785E+03  0.25976976215E+03  0.00000000000E+00 0. -1.
<scales pt_clust_5="13000.00000" pt_clust_6="13000.00000" pt_clust_7="13000.00000" pt_clust_8="13000.00000" pt_clust_9="57.65967"></scales>
<clustering>
<clus scale="   57.660">  2  9  1 -1</clus>
<clus scale="   80.582">  5  6 -1 -1</clus>
<clus scale="   92.228">  7  8 -1 -1</clus>
<clus scale="  117.726">  1  5  2 -1</clus>
<clus scale="   57.660">  2  5  1 -1</clus>
</clustering>
</event>
<event>
 9    1  0.2674825E-005  0.1984845E+03  0.7546771E-02  0.1151984E+00
          1   -1    0    0  502    0  0.00000000000E+00  0.00000000000E+00  0.13331219622E+04  0.13331219622E+04  0.00000000000E+00 0. -1.
         -2   -1    0    0    0  501 -0.00000000000E+00 -0.00000000000E+00 -0.55257714181E+02  0.55257714181E+02  0.00000000000E+00 0.  1.
         23    2    1    2    0    0 -0.16250428540E+03  0.31728351578E+02  0.19705807469E+03  0.27328842820E+03  0.91871372671E+02 0.  0.
        -24    2    1    2    0    0  0.17917692026E+03  0.41449687427E+01  0.10390848693E+04  0.10575974305E+04  0.81813261913E+02 0.  0.
         11    1    4    4    0    0  0.16985275630E+03  0.52280412321E+01  0.77793632860E+03  0.79628024124E+03  0.00000000000E+00 0. -1.
        -12    1    4    4    0    0  0.93241639622E+01 -0.10830724894E+01  0.26114854075E+03  0.26131718928E+03  0.00000000000E+00 0.  1.
        -13    1    3    3    0    0 -0.11277182369E+03 -0.87113556570E+01  0.75883205522E+02  0.13620437884E+03  0.00000000000E+00 0.  1.
         13    1    3    3    0    0 -0.49732461719E+02  0.40439707235E+02  0.12117486917E+03  0.13708404936E+03  0.00000000000E+00 0. -1.
         21    1    1    2  502  501 -0.16672634859E+02 -0.35873320321E+02  0.41721304001E+02  0.57493817681E+02  0.00000000000E+00 0.  1.
<scales pt_clust_5="13000.00000" pt_clust_6="13000.00000" pt_clust_7="13000.00000" pt_clust_8="13000.00000" pt_clust_9="39.55846"></scales>
<clustering>
<clus scale="   39.558">  2  9  1 -1</clus>
<clus scale="   81.813">  5  6 -1 -1</clus>
<clus scale="   91.871">  7  8 -1 -1</clus>
<clus scale="  194.034">  1  5  2 -1</clus>
<clus scale="  194.034">  1  5  2 -1</clus>
</clustering>
</event>
<event>
 9    1  0.2674825E-005  0.1143358E+03  0.7546771E-02  0.1257333E+00
          1   -1    0    0  502    0  0.00000000000E+00  0.00000000000E+00  0.14658990850E+03  0.14658990850E+03  0.00000000000E+00 0. -1.
         -2   -1    0    0    0  501 -0.00000000000E+00 -0.00000000000E+00 -0.15129437620E+03  0.15129437620E+03  0.00000000000E+00 0.  1.
        -24    2    1    2    0    0  0.38110114602E+02  0.22877481805E+02 -0.57345545396E+02  0.10790167520E+03  0.79865511494E+02 0.  0.
         23    2    1    2    0    0 -0.29090445279E+02 -0.76712708097E+02  0.55088184390E+02  0.13534219995E+03  0.92475453165E+02 0.  0.
         11    1    3    3    0    0  0.25531811669E+01 -0.25522184285E+02 -0.35919215998E+02  0.44137180502E+02  0.00000000000E+00 0. -1.
        -12    1    3    3    0    0  0.35556933435E+02  0.48399666091E+02 -0.21426329398E+02  0.63764494701E+02  0.00000000000E+00 0.  1.
        -13    1    4    4    0    0 -0.49274514581E+02 -0.81398544684E+01  0.10316070766E+02  0.50996630614E+02  0.00000000000E+00 0. -1.
         13    1    4    4    0    0  0.20184069302E+02 -0.68572853628E+02  0.44772113624E+02  0.84345569336E+02  0.00000000000E+00 0.  1.
         21    1    1    2  502  501 -0.90196693236E+01  0.53835226291E+02 -0.24471066976E+01  0.54640409549E+02  0.00000000000E+00 0.  1.
<scales pt_clust_5="13000.00000" pt_clust_6="13000.00000" pt_clust_7="13000.00000" pt_clust_8="13000.00000" pt_clust_9="54.58558"></scales>
<clustering>
<clus scale="   54.586">  2  9  1 -1</clus>
<clus scale="   79.866">  5  6 -1 -1</clus>
<clus scale="   92.475">  7  8 -1 -1</clus>
<clus scale="  104.401">  2  5  1 -1</clus>
<clus scale="  114.336">  1  5  2 -1</clus>
</clustering>
</event>
<event>
 9    1  0.2674825E-005  0.1070348E+03  0.7546771E-02  0.1269595E+00
          3   -1    0    0  502    0  0.00000000000E+00  0.00000000000E+00  0.75510365982E+02  0.75510365982E+02  0.00000000000E+00 0. -1.
         -4   -1    0    0    0  501 -0.00000000000E+00 -0.00000000000E+00 -0.46301107704E+03  0.46301107704E+03  0.00000000000E+00 0.  1.
         23    2    1    2    0    0  0.16368799010E+02 -0.67720940028E+02 -0.34850120735E+03  0.36702151470E+03  0.91638624111E+02 0.  0.
        -24    2    1    2    0    0  0.30224706109E+02  0.51035460929E+01 -0.19135795788E+02  0.90961368392E+02  0.83475821752E+02 0.  0.
         13    1    4    4    0    0  0.56016257550E+02  0.46671411060E+01  0.39435302038E+01  0.56348511484E+02  0.00000000000E+00 0. -1.
        -14    1    4    4    0    0 -0.25791551442E+02  0.43640498690E+00 -0.23079325992E+02  0.34612856908E+02  0.00000000000E+00 0.  1.
        -11    1    3    3    0    0  0.12569636097E+02 -0.90653531277E+02 -0.26577112181E+03  0.28108779353E+03  0.00000000000E+00 0.  1.
         11    1    3    3    0    0  0.37991629130E+01  0.22932591249E+02 -0.82730085549E+02  0.85933721176E+02  0.00000000000E+00 0. -1.
         21    1    1    2  502  501 -0.46593505119E+02  0.62617393935E+02 -0.19863707912E+02  0.80538559923E+02  0.00000000000E+00 0. -1.
<scales pt_clust_5="13000.00000" pt_clust_6="13000.00000" pt_clust_7="13000.00000" pt_clust_8="13000.00000" pt_clust_9="78.05058"></scales>
<clustering>
<clus scale="   78.051">  1  9  2 -1</clus>
<clus scale="   83.476">  5  6 -1 -1</clus>
<clus scale="   91.639">  7  8 -1 -1</clus>
<clus scale="  100.135">  1  5  2 -1</clus>
<clus scale="   78.051">  1  5  2 -1</clus>
</clustering>
</event>
<event>
 9    1  0.2674825E-005  0.9194327E+02  0.7546771E-02  0.1305687E+00
         -2   -1    0    0    0  501 -0.00000000000E+00  0.00000000000E+00  0.26851111200E+03  0.26851111200E+03  0.00000000000E+00 0.  1.
          1   -1    0    0  502    0  0.00000000000E+00 -0.00000000000E+00 -0.16725707642E+03  0.16725707642E+03  0.00000000000E+00 0. -1.
         23    2    1    2    0    0  0.27070777475E+02  0.72896065825E+01  0.17812747905E+03  0.20203032372E+03  0.91109206738E+02 0.  0.
        -24    2    1    2    0    0  0.27512655036E+02  0.34508768137E+02  0.39253117909E+02  0.98786638351E+02  0.79184540068E+02 0.  0.
         13    1    4    4    0    0 -0.14531070680E+02 -0.17557537801E+02  0.39732648032E+01  0.23134519272E+02  0.00000000000E+00 0. -1.
        -14    1    4    4    0    0  0.42043725716E+02  0.52066305938E+02  0.35279853105E+02  0.75652119080E+02  0.00000000000E+00 0.  1.
        -11    1    3    3    0    0  0.40512167694E+02 -0.21986209356E+02  0.42728226430E+02  0.62851654449E+02  0.00000000000E+00 0. -1.
         11    1    3    3    0    0 -0.13441390219E+02  0.29275815938E+02  0.13539925262E+03  0.13917866927E+03  0.00000000000E+00 0.  1.
         21    1    1    2  502  501 -0.54583432511E+02 -0.41798374719E+02 -0.11612656139E+03  0.13495122635E+03  0.00000000000E+00 0. -1.
<scales pt_clust_5="13000.00000" pt_clust_6="13000.00000" pt_clust_7="13000.00000" pt_clust_8="13000.00000" pt_clust_9="68.74922"></scales>
<clustering>
<clus scale="   68.749">  2  9  1 -1</clus>
<clus scale="   79.185">  5  6 -1 -1</clus>
<clus scale="   80.143">  2  5  1 -1</clus>
<clus scale="   91.109">  7  8 -1 -1</clus>
<clus scale="   68.749">  2  5  1 -1</clus>
</clustering>
</event>
<event>
 9    1  0.2674825E-005  0.1200211E+03  0.7546771E-02  0.1245985E+00
         -2   -1    0    0    0  501 -0.00000000000E+00  0.00000000000E+00  0.64571580055E+03  0.64571580055E+03  0.00000000000E+00 0.  1.
          1   -1    0    0  502    0  0.00000000000E+00 -0.00000000000E+00 -0.15070528853E+03  0.15070528853E+03  0.00000000000E+00 0. -1.
        -24    2    1    2    0    0 -0.74819636770E+02 -0.23168620360E+02  0.58283141490E+03  0.59357832678E+03  0.80672230737E+02 0.  0.
         23    2    1    2    0    0  0.10535855260E+03 -0.69670915211E+01 -0.57042040915E+02  0.15004006489E+03  0.90051439023E+02 0.  0.
         13    1    3    3    0    0 -0.53888039668E+02  0.11493130822E+02  0.16865958327E+03  0.17743186835E+03  0.00000000000E+00 0. -1.
        -14    1    3    3    0    0 -0.20931597102E+02 -0.34661751183E+02  0.41417183163E+03  0.41614645843E+03  0.00000000000E+00 0.  1.
        -13    1    4    4    0    0  0.74698629135E+02 -0.32410203325E+02 -0.11921127582E+01  0.81435419856E+02  0.00000000000E+00 0.  1.
         13    1    4    4    0    0  0.30659923466E+02  0.25443111804E+02 -0.55849928157E+02  0.68604645034E+02  0.00000000000E+00 0. -1.
         21    1    1    2  502  501 -0.30538915831E+02  0.30135711881E+02 -0.30778861966E+02  0.52802697418E+02  0.00000000000E+00 0.  1.
<scales pt_clust_5="13000.00000" pt_clust_6="13000.00000" pt_clust_7="13000.00000" pt_clust_8="13000.00000" pt_clust_9="42.90439"></scales>
<clustering>
<clus scale="   42.904">  2  9  1 -1</clus>
<clus scale="   80.672">  5  6 -1 -1</clus>
<clus scale="   90.051">  7  8 -1 -1</clus>
<clus scale="  113.154">  1  5  2 -1</clus>
<clus scale="   42.904">  2  5  1 -1</clus>
</clustering>
</event>
<event>
 9    1  0.1637075E-004  0.1805317E+03  0.7546771E-02  0.1168868E+00
          1   -1    0    0  502    0  0.00000000000E+00  0.00000000000E+00  0.34060118835E+03  0.34060118835E+03  0.00000000000E+00 0. -1.
         -2   -1    0    0    0  501 -0.00000000000E+00 -0.00000000000E+00 -0.82030019192E+03  0.82030019192E+03  0.00000000000E+00 0.  1.
         23    2    1    2    0    0  0.14652311586E+03  0.47505268396E+02 -0.76826089951E+03  0.78906054773E+03  0.93091161033E+02 0.  0.
        -24    2    1    2    0    0 -0.16993877332E+03 -0.41684311362E+02  0.28962655273E+03  0.34768901998E+03  0.79920873862E+02 0.  0.
         13    1    4    4    0    0 -0.13881421469E+03  0.68263155432E+00  0.22505680616E+03  0.26442469285E+03  0.00000000000E+00 0. -1.
        -14    1    4    4    0    0 -0.31124558630E+02 -0.42366942916E+02  0.64569746568E+02  0.83264327138E+02  0.00000000000E+00 0.  1.
        -11    1    3    3    0    0  0.15423937453E+03  0.26391972896E+02 -0.64056156616E+03  0.65939778656E+03  0.00000000000E+00 0.  1.
         11    1    3    3    0    0 -0.77162586655E+01  0.21113295500E+02 -0.12769933336E+03  0.12966276117E+03  0.00000000000E+00 0. -1.
         21    1    1    2  502  501  0.23415657461E+02 -0.58209570345E+01 -0.10646567869E+01  0.24151812545E+02  0.00000000000E+00 0. -1.
<scales pt_clust_5="13000.00000" pt_clust_6="13000.00000" pt_clust_7="13000.00000" pt_clust_8="13000.00000" pt_clust_9="24.12834"></scales>
<clustering>
<clus scale="   24.128">  1  9  2 -1</clus>
<clus scale="   79.921">  5  6 -1 -1</clus>
<clus scale="   93.091">  7  8 -1 -1</clus>
<clus scale="  174.107">  1  5  2 -1</clus>
<clus scale="   24.128">  1  5  2 -1</clus>
</clustering>
</event>
<event>
 9    1  0.2674825E-005  0.1073524E+03  0.7546771E-02  0.1270209E+00
          1   -1    0    0  502    0  0.00000000000E+00  0.00000000000E+00  0.32757665766E+03  0.32757665766E+03  0.00000000000E+00 0. -1.
         -2   -1    0    0    0  501 -0.00000000000E+00 -0.00000000000E+00 -0.83253659687E+02  0.83253659687E+02  0.00000000000E+00 0.  1.
        -24    2    1    2    0    0 -0.20586738047E+02  0.54972862164E+02 -0.15075177635E+02  0.10066797019E+03  0.80380034112E+02 0.  0.
         23    2    1    2    0    0 -0.35959257444E+02 -0.56332885975E+02  0.17991837355E+03  0.21261062649E+03  0.91466907212E+02 0.  0.
         11    1    3    3    0    0 -0.51532574642E+02  0.39355682435E+02 -0.10952283639E+02  0.65760387059E+02  0.00000000000E+00 0. -1.
        -12    1    3    3    0    0  0.30945836595E+02  0.15617179729E+02 -0.41228939954E+01  0.34907583133E+02  0.00000000000E+00 0.  1.
        -13    1    4    4    0    0 -0.12435597085E+02 -0.39147405412E+02  0.12874634378E+02  0.43045553030E+02  0.00000000000E+00 0.  1.
         13    1    4    4    0    0 -0.23523660360E+02 -0.17185480563E+02  0.16704373917E+03  0.16956507346E+03  0.00000000000E+00 0. -1.
         21    1    1    2  502  501  0.56545995492E+02  0.13600238108E+01  0.79479802060E+02  0.97551720674E+02  0.00000000000E+00 0.  1.
<scales pt_clust_5="13000.00000" pt_clust_6="13000.00000" pt_clust_7="13000.00000" pt_clust_8="13000.00000" pt_clust_9="56.56235"></scales>
<clustering>
<clus scale="   56.562">  1  9  2 -1</clus>
<clus scale="   80.380">  5  6 -1 -1</clus>
<clus scale="   91.467">  7  8 -1 -1</clus>
<clus scale="   98.078">  2  5  1 -1</clus>
<clus scale="   56.562">  1  5  2 -1</clus>
</clustering>
</event>
<event>
 9    1  0.2674825E-005  0.9633525E+02  0.7546771E-02  0.1293418E+00
         -2   -1    0    0    0  501 -0.00000000000E+00  0.00000000000E+00  0.37821675306E+03  0.37821675306E+03  0.00000000000E+00 0.  1.
          1   -1    0    0  502    0  0.00000000000E+00 -0.00000000000E+00 -0.63565438471E+02  0.63565438471E+02  0.00000000000E+00 0. -1.
         23    2    1    2    0    0 -0.24603276600E+02  0.20123821874E+02  0.29344130932E+03  0.30855320907E+03  0.89927700875E+02 0.  0.
        -24    2    1    2    0    0  0.46437036238E+02 -0.13762378703E+02  0.41725422104E+02  0.10260116264E+03  0.80250771480E+02 0.  0.
         11    1    4    4    0    0  0.28472784103E+02  0.19233917613E+02 -0.12559188639E+02  0.36583824849E+02  0.00000000000E+00 0. -1.
        -12    1    4    4    0    0  0.17964252135E+02 -0.32996296316E+02  0.54284610744E+02  0.66017337791E+02  0.00000000000E+00 0.  1.
        -11    1    3    3    0    0 -0.25276675790E+02  0.50779964461E+02  0.24291857116E+03  0.24945329692E+03  0.00000000000E+00 0.  1.
         11    1    3    3    0    0  0.67339918982E+00 -0.30656142587E+02  0.50522738159E+02  0.59099912148E+02  0.00000000000E+00 0. -1.
         21    1    1    2  502  501 -0.21833759638E+02 -0.63614431711E+01 -0.20515416836E+02  0.30627819823E+02  0.00000000000E+00 0. -1.
<scales pt_clust_5="13000.00000" pt_clust_6="13000.00000" pt_clust_7="13000.00000" pt_clust_8="13000.00000" pt_clust_9="22.74161"></scales>
<clustering>
<clus scale="   22.742">  2  9  1 -1</clus>
<clus scale="   80.251">  5  6 -1 -1</clus>
<clus scale="   87.371">  2  5  1 -1</clus>
<clus scale="   89.928">  7  8 -1 -1</clus>
<clus scale="   22.742">  2  5  1 -1</clus>
</clustering>
</event>
<event>
 9    1  0.2674825E-005  0.1374291E+03  0.7546771E-02  0.1218274E+00
          1   -1    0    0  502    0  0.00000000000E+00  0.00000000000E+00  0.35332554102E+03  0.35332554102E+03  0.00000000000E+00 0. -1.
         -2   -1    0    0    0  501 -0.00000000000E+00 -0.00000000000E+00 -0.80404883234E+02  0.80404883234E+02  0.00000000000E+00 0.  1.
         23    2    1    2    0    0  0.10014801974E+03 -0.75116979307E+02  0.59523596084E+02  0.16375649128E+03  0.87183390088E+02 0.  0.
        -24    2    1    2    0    0 -0.51137287618E+02  0.62929504664E+02  0.13724885797E+03  0.17860032993E+03  0.80533745079E+02 0.  0.
         13    1    4    4    0    0 -0.63897837672E+02  0.43161232845E+02  0.13433357272E+03  0.15489136335E+03  0.00000000000E+00 0. -1.
        -14    1    4    4    0    0  0.12760550054E+02  0.19768271820E+02  0.29152852455E+01  0.23708966584E+02  0.00000000000E+00 0.  1.
        -11    1    3    3    0    0 -0.39199123420E+01 -0.36493837472E+02 -0.21565068348E+01  0.36767056014E+02  0.00000000000E+00 0.  1.
         11    1    3    3    0    0  0.10406793208E+03 -0.38623141836E+02  0.61680102919E+02  0.12698943526E+03  0.00000000000E+00 0. -1.
         21    1    1    2  502  501 -0.49010732120E+02  0.12187474643E+02  0.76148203734E+02  0.91373603042E+02  0.00000000000E+00 0.  1.
<scales pt_clust_5="13000.00000" pt_clust_6="13000.00000" pt_clust_7="13000.00000" pt_clust_8="13000.00000" pt_clust_9="50.50333"></scales>
<clustering>
<clus scale="   50.503">  1  9  2 -1</clus>
<clus scale="   80.534">  5  6 -1 -1</clus>
<clus scale="   87.183">  7  8 -1 -1</clus>
<clus scale="  133.310">  1  5  2 -1</clus>
<clus scale="   50.503">  1  5  2 -1</clus>
</clustering>
</event>
<event>
 9    1  0.2674825E-005  0.1672654E+03  0.7546771E-02  0.1180792E+00
          1   -1    0    0  502    0  0.00000000000E+00  0.00000000000E+00  0.77180947020E+03  0.77180947020E+03  0.00000000000E+00 0. -1.
         -2   -1    0    0    0  501 -0.00000000000E+00 -0.00000000000E+00 -0.23956693883E+03  0.23956693883E+03  0.00000000000E+00 0.  1.
         23    2    1    2    0    0 -0.10486091132E+03 -0.91289011201E+02 -0.15679156331E+03  0.22816525331E+03  0.90256823585E+02 0.  0.
        -24    2    1    2    0    0  0.51328074334E+02  0.19757960959E+03  0.58154621064E+03  0.62284563212E+03  0.89824345257E+02 0.  0.
         11    1    4    4    0    0  0.93959284836E+01  0.17526999698E+03  0.45567244358E+03  0.48830854094E+03  0.00000000000E+00 0. -1.
        -12    1    4    4    0    0  0.41932145850E+02  0.22309612613E+02  0.12587376706E+03  0.13453709118E+03  0.00000000000E+00 0.  1.
        -11    1    3    3    0    0 -0.10722368867E+03 -0.61649592377E+02 -0.83934096678E+02  0.14947415909E+03  0.00000000000E+00 0. -1.
         11    1    3    3    0    0  0.23627773455E+01 -0.29639418825E+02 -0.72857466630E+02  0.78691094216E+02  0.00000000000E+00 0.  1.
         21    1    1    2  502  501  0.53532836988E+02 -0.10629059839E+03  0.10748788404E+03  0.16036552360E+03  0.00000000000E+00 0.  1.
<scales pt_clust_5="13000.00000" pt_clust_6="13000.00000" pt_clust_7="13000.00000" pt_clust_8="13000.00000" pt_clust_9="119.01032"></scales>
<clustering>
<clus scale="   89.824">  5  6 -1 -1</clus>
<clus scale="   90.257">  7  8 -1 -1</clus>
<clus scale="  119.010">  1  9  2 -1</clus>
<clus scale="  167.032">  1  5  2 -1</clus>
<clus scale="  119.010">  1  5  2 -1</clus>
</clustering>
</event>
<event>
 9    1  0.2674825E-005  0.1430785E+03  0.7546771E-02  0.1231414E+00
         -2   -1    0    0    0  501 -0.00000000000E+00  0.00000000000E+00  0.18827797207E+03  0.18827797207E+03  0.00000000000E+00 0.  1.
          1   -1    0    0  502    0  0.00000000000E+00 -0.00000000000E+00 -0.39099448053E+03  0.39099448053E+03  0.00000000000E+00 0. -1.
        -24    2    1    2    0    0  0.12881019078E+01 -0.41685071781E+02  0.58506756337E+02  0.10722070736E+03  0.79586023489E+02 0.  0.
         23    2    1    2    0    0 -0.11081436969E+03  0.49046922127E+02  0.35406681836E+02  0.15576149023E+03  0.91228195315E+02 0.  0.
         13    1    3    3    0    0 -0.34178616991E+01 -0.65178187690E+02  0.37009264371E+02  0.75030417688E+02  0.00000000000E+00 0. -1.
        -14    1    3    3    0    0  0.47059636069E+01  0.23493115910E+02  0.21497491965E+02  0.32190289676E+02  0.00000000000E+00 0.  1.
        -13    1    4    4    0    0 -0.55049629377E+02 -0.80744985716E+01  0.49770793353E+02  0.74651129213E+02  0.00000000000E+00 0. -1.
         13    1    4    4    0    0 -0.55764740308E+02  0.57121420699E+02 -0.14364111517E+02  0.81110361015E+02  0.00000000000E+00 0.  1.
         21    1    1    2  502  501  0.10952626778E+03 -0.73618503467E+01 -0.29662994664E+03  0.31629025501E+03  0.00000000000E+00 0. -1.
<scales pt_clust_5="13000.00000" pt_clust_6="13000.00000" pt_clust_7="13000.00000" pt_clust_8="13000.00000" pt_clust_9="110.22192"></scales>
<clustering>
<clus scale="   79.586">  5  6 -1 -1</clus>
<clus scale="   89.851">  1  5  2 -1</clus>
<clus scale="   91.228">  7  8 -1 -1</clus>
<clus scale="  110.222">  2  9  1 -1</clus>
<clus scale="  110.222">  2  5  1 -1</clus>
</clustering>
</event>
<event>
 9    1  0.2674825E-005  0.1129467E+03  0.7546771E-02  0.1257226E+00
          1   -1    0    0  502    0  0.00000000000E+00  0.00000000000E+00  0.34326344646E+03  0.34326344646E+03  0.00000000000E+00 0. -1.
         -2   -1    0    0    0  501 -0.00000000000E+00 -0.00000000000E+00 -0.82014676028E+02  0.82014676028E+02  0.00000000000E+00 0.  1.
         23    2    1    2    0    0  0.72448545349E+01 -0.76650767720E+02 -0.15690064272E+02  0.11749581375E+03  0.87357083419E+02 0.  0.
        -24    2    1    2    0    0  0.14143299007E+02  0.52987478468E+02  0.17198724516E+03  0.19809073879E+03  0.81563610231E+02 0.  0.
         11    1    4    4    0    0 -0.76267504401E+01  0.70072972629E+02  0.12791983840E+03  0.14605435246E+03  0.00000000000E+00 0. -1.
        -12    1    4    4    0    0  0.21770049447E+02 -0.17085494161E+02  0.44067406757E+02  0.52036386327E+02  0.00000000000E+00 0.  1.
        -13    1    3    3    0    0  0.22304989553E+02 -0.51181460565E+02 -0.48040839552E+02  0.73654441342E+02  0.00000000000E+00 0.  1.
         13    1    3    3    0    0 -0.15060135018E+02 -0.25469307155E+02  0.32350775280E+02  0.43841372412E+02  0.00000000000E+00 0. -1.
         21    1    1    2  502  501 -0.21388153541E+02  0.23663289251E+02  0.10495158955E+03  0.10969156995E+03  0.00000000000E+00 0. -1.
<scales pt_clust_5="13000.00000" pt_clust_6="13000.00000" pt_clust_7="13000.00000" pt_clust_8="13000.00000" pt_clust_9="31.89678"></scales>
<clustering>
<clus scale="   31.897">  1  9  2 -1</clus>
<clus scale="   81.564">  5  6 -1 -1</clus>
<clus scale="   87.357">  7  8 -1 -1</clus>
<clus scale="  108.528">  1  5  2 -1</clus>
<clus scale="   31.897">  1  5  2 -1</clus>
</clustering>
</event>
<event>
 9    1  0.2674825E-005  0.2030194E+03  0.7546771E-02  0.1181833E+00
         -2   -1    0    0    0  501 -0.00000000000E+00  0.00000000000E+00  0.32623891136E+03  0.32623891136E+03  0.00000000000E+00 0.  1.
          1   -1    0    0  502    0  0.00000000000E+00 -0.00000000000E+00 -0.95391890005E+03  0.95391890005E+03  0.00000000000E+00 0. -1.
        -24    2    1    2    0    0  0.13201410633E+02  0.39163479802E+02  0.25770347545E+03  0.27338431126E+03  0.81362429846E+02 0.  0.
         23    2    1    2    0    0 -0.13066433885E+03  0.10450592233E+03 -0.13391495817E+03  0.23272999228E+03  0.90748972643E+02 0.  0.
         13    1    3    3    0    0  0.10096595519E+02 -0.24295644044E+02  0.98976112433E+02  0.10241333113E+03  0.00000000000E+00 0. -1.
        -14    1    3    3    0    0  0.31048151135E+01  0.63459123846E+02  0.15872736302E+03  0.17097098013E+03  0.00000000000E+00 0.  1.
        -13    1    4    4    0    0 -0.69184630650E+02  0.38114275287E+02 -0.10478844504E+02  0.79680720886E+02  0.00000000000E+00 0.  1.
         13    1    4    4    0    0 -0.61479708204E+02  0.66391647046E+02 -0.12343611367E+03  0.15304927140E+03  0.00000000000E+00 0. -1.
         21    1    1    2  502  501  0.11746292822E+03 -0.14366940214E+03 -0.75146850597E+03  0.77404350787E+03  0.00000000000E+00 0.  1.
<scales pt_clust_5="13000.00000" pt_clust_6="13000.00000" pt_clust_7="13000.00000" pt_clust_8="13000.00000" pt_clust_9="181.60811"></scales>
<clustering>
<clus scale="   81.362">  5  6 -1 -1</clus>
<clus scale="   90.749">  7  8 -1 -1</clus>
<clus scale="   91.257">  1  5  2 -1</clus>
<clus scale="  181.608">  2  9  1 -1</clus>
<clus scale="  181.608">  2  5  1 -1</clus>
</clustering>
</event>
<event>
 9    1  0.2674825E-005  0.9147931E+02  0.7546771E-02  0.1304678E+00
         -2   -1    0    0    0  501 -0.00000000000E+00  0.00000000000E+00  0.12959415923E+03  0.12959415923E+03  0.00000000000E+00 0.  1.
          1   -1    0    0  502    0  0.00000000000E+00 -0.00000000000E+00 -0.19846542543E+03  0.19846542543E+03  0.00000000000E+00 0. -1.
         23    2    1    2    0    0  0.11549410264E+02  0.14143799939E+02  0.81253644325E+02  0.12161750057E+03  0.88629711584E+02 0.  0.
        -24    2    1    2    0    0 -0.53328640732E+02 -0.20681334311E+02 -0.11717230812E+03  0.15283128798E+03  0.79726979651E+02 0.  0.
         13    1    4    4    0    0 -0.27017470540E+02 -0.11646945409E+02 -0.12120213937E+03  0.12472190521E+03  0.00000000000E+00 0. -1.
        -14    1    4    4    0    0 -0.26311170192E+02 -0.90343889016E+01  0.40298312499E+01  0.28109382768E+02  0.00000000000E+00 0.  1.
        -13    1    3    3    0    0 -0.24412106184E+02 -0.21657256177E+02  0.56289388869E+02  0.65065220914E+02  0.00000000000E+00 0. -1.
         13    1    3    3    0    0  0.35961516448E+02  0.35801056115E+02  0.24964255456E+02  0.56552279659E+02  0.00000000000E+00 0.  1.
         21    1    1    2  502  501  0.41779230468E+02  0.65375343717E+01 -0.32952602402E+02  0.53610796107E+02  0.00000000000E+00 0.  1.
<scales pt_clust_5="13000.00000" pt_clust_6="13000.00000" pt_clust_7="13000.00000" pt_clust_8="13000.00000" pt_clust_9="42.28763"></scales>
<clustering>
<clus scale="   42.288">  2  9  1 -1</clus>
<clus scale="   79.727">  5  6 -1 -1</clus>
<clus scale="   82.883">  2  5  1 -1</clus>
<clus scale="   88.630">  7  8 -1 -1</clus>
<clus scale="   42.288">  2  5  1 -1</clus>
</clustering>
</event>
<event>
 9    1  0.2674825E-005  0.1011370E+03  0.7546771E-02  0.1284409E+00
         -2   -1    0    0    0  501 -0.00000000000E+00  0.00000000000E+00  0.24505426640E+03  0.24505426640E+03  0.00000000000E+00 0.  1.
          1   -1    0    0  502    0  0.00000000000E+00 -0.00000000000E+00 -0.99640152421E+02  0.99640152421E+02  0.00000000000E+00 0. -1.
         23    2    1    2    0    0 -0.21284092017E+02 -0.28051290932E+02  0.18446673198E+03  0.20983657230E+03  0.93613697547E+02 0.  0.
        -24    2    1    2    0    0  0.41616810167E+02  0.40096358477E+02 -0.47031188696E+02  0.10991469777E+03  0.80806133581E+02 0.  0.
         13    1    4    4    0    0  0.48038732370E+02  0.70333315744E+01 -0.56918551830E+02  0.74812492962E+02  0.00000000000E+00 0. -1.
        -14    1    4    4    0    0 -0.64219222028E+01  0.33063026902E+02  0.98873631338E+01  0.35102204809E+02  0.00000000000E+00 0.  1.
        -11    1    3    3    0    0  0.36285422067E+02 -0.20295836649E+02  0.68388899644E+02  0.80034957577E+02  0.00000000000E+00 0. -1.
         11    1    3    3    0    0 -0.57569514084E+02 -0.77554542829E+01  0.11607783234E+03  0.12980161472E+03  0.00000000000E+00 0.  1.
         21    1    1    2  502  501 -0.20332718150E+02 -0.12045067545E+02  0.79785706931E+01  0.24943148755E+02  0.00000000000E+00 0. -1.
<scales pt_clust_5="13000.00000" pt_clust_6="13000.00000" pt_clust_7="13000.00000" pt_clust_8="13000.00000" pt_clust_9="23.63267"></scales>
<clustering>
<clus scale="   23.633">  2  9  1 -1</clus>
<clus scale="   80.806">  5  6 -1 -1</clus>
<clus scale="   89.414">  2  5  1 -1</clus>
<clus scale="   93.614">  7  8 -1 -1</clus>
<clus scale="   23.633">  2  5  1 -1</clus>
</clustering>
</event>
<event>
 9    1  0.2674825E-005  0.1791809E+03  0.7546771E-02  0.1169264E+00
         -2   -1    0    0    0  501 -0.00000000000E+00  0.00000000000E+00  0.17240991918E+03  0.17240991918E+03  0.00000000000E+00 0.  1.
          1   -1    0    0  502    0  0.00000000000E+00 -0.00000000000E+00 -0.40530994002E+03  0.40530994002E+03  0.00000000000E+00 0. -1.
        -24    2    1    2    0    0  0.12468758363E+03 -0.87435153114E+02  0.86966476753E+02  0.19941446926E+03  0.94926618818E+02 0.  0.
         23    2    1    2    0    0 -0.13680218606E+03  0.66151155976E+02 -0.26699232919E+03  0.32003490160E+03  0.89702958992E+02 0.  0.
         11    1    3    3    0    0  0.10161115347E+03 -0.28340885326E+02  0.20371146871E+02  0.10743842849E+03  0.00000000000E+00 0. -1.
        -12    1    3    3    0    0  0.23076430157E+02 -0.59094267788E+02  0.66595329881E+02  0.91976040772E+02  0.00000000000E+00 0.  1.
        -11    1    4    4    0    0 -0.79129257737E+02  0.73467761914E+02 -0.22078090372E+03  0.24577054119E+03  0.00000000000E+00 0. -1.
         11    1    4    4    0    0 -0.57672928320E+02 -0.73166059384E+01 -0.46211425470E+02  0.74264360412E+02  0.00000000000E+00 0.  1.
         21    1    1    2  502  501  0.12114602427E+02  0.21283997138E+02 -0.52874168409E+02  0.58270488337E+02  0.00000000000E+00 0. -1.
<scales pt_clust_5="13000.00000" pt_clust_6="13000.00000" pt_clust_7="13000.00000" pt_clust_8="13000.00000" pt_clust_9="24.49025"></scales>
<clustering>
<clus scale="   24.490">  2  9  1 -1</clus>
<clus scale="   89.703">  7  8 -1 -1</clus>
<clus scale="   94.927">  5  6 -1 -1</clus>
<clus scale="  176.469">  2  7  1 -1</clus>
<clus scale="   24.490">  2  5  1 -1</clus>
</clustering>
</event>
<event>
 9    1  0.2674825E-005  0.9371130E+02  0.7546771E-02  0.1299443E+00
         -2   -1    0    0    0  501 -0.00000000000E+00  0.00000000000E+00  0.15065115930E+04  0.15065115930E+04  0.00000000000E+00 0.  1.
          1   -1    0    0  502    0  0.00000000000E+00 -0.00000000000E+00 -0.91270731182E+02  0.91270731182E+02  0.00000000000E+00 0. -1.
        -24    2    1    2    0    0  0.74649168434E+01  0.86445137762E+02  0.12686184616E+04  0.12741175054E+04  0.80337597875E+02 0.  0.
         23    2    1    2    0    0  0.16318634813E+02 -0.21049262245E+02 -0.56308931621E+02  0.10913416058E+03  0.89611382884E+02 0.  0.
         11    1    3    3    0    0  0.17115346055E+02  0.25386006942E+02  0.12025061985E+03  0.12408705006E+03  0.00000000000E+00 0. -1.
        -12    1    3    3    0    0 -0.96504292111E+01  0.61059130820E+02  0.11483678418E+04  0.11500304554E+04  0.00000000000E+00 0.  1.
        -11    1    4    4    0    0  0.55632702457E+01  0.26510979648E+02  0.81700013158E+01  0.28293655459E+02  0.00000000000E+00 0.  1.
         11    1    4    4    0    0  0.10755364567E+02 -0.47560241893E+02 -0.64478932936E+02  0.80840505123E+02  0.00000000000E+00 0. -1.
         21    1    1    2  502  501 -0.23783551656E+02 -0.65395875517E+02  0.20293133177E+03  0.21453065813E+03  0.00000000000E+00 0. -1.
<scales pt_clust_5="13000.00000" pt_clust_6="13000.00000" pt_clust_7="13000.00000" pt_clust_8="13000.00000" pt_clust_9="69.58648"></scales>
<clustering>
<clus scale="   69.586">  1  9  2 -1</clus>
<clus scale="   80.338">  5  6 -1 -1</clus>
<clus scale="   84.887">  1  5  2 -1</clus>
<clus scale="   89.611">  7  8 -1 -1</clus>
<clus scale="   93.711">  2  5  1 -1</clus>
</clustering>
</event>
<event>
 9    1  0.2674825E-005  0.1890140E+03  0.7546771E-02  0.1160208E+00
         -2   -1    0    0    0  501 -0.00000000000E+00  0.00000000000E+00  0.96679370967E+02  0.96679370967E+02  0.00000000000E+00 0.  1.
          1   -1    0    0  502    0  0.00000000000E+00 -0.00000000000E+00 -0.63846502339E+03  0.63846502339E+03  0.00000000000E+00 0. -1.
        -24    2    1    2    0    0 -0.16764207515E+03 -0.48227096273E+02 -0.78312379509E+02  0.20788741262E+03  0.81575911683E+02 0.  0.
         23    2    1    2    0    0  0.14218273527E+03  0.84175997195E+02 -0.43732670896E+03  0.47603057964E+03  0.89715849589E+02 0.  0.
         13    1    3    3    0    0 -0.46099189892E+02 -0.13513532633E+02 -0.64942722581E+02  0.80779379108E+02  0.00000000000E+00 0. -1.
        -14    1    3    3    0    0 -0.12154288526E+03 -0.34713563640E+02 -0.13369656929E+02  0.12710803352E+03  0.00000000000E+00 0.  1.
        -13    1    4    4    0    0  0.11797903254E+03  0.80740117442E+02 -0.42549856377E+03  0.44887308502E+03  0.00000000000E+00 0.  1.
         13    1    4    4    0    0  0.24203702727E+02  0.34358797535E+01 -0.11828145193E+02  0.27157494621E+02  0.00000000000E+00 0. -1.
         21    1    1    2  502  501  0.25459339886E+02 -0.35948900922E+02 -0.26146563949E+02  0.51226402092E+02  0.00000000000E+00 0. -1.
<scales pt_clust_5="13000.00000" pt_clust_6="13000.00000" pt_clust_7="13000.00000" pt_clust_8="13000.00000" pt_clust_9="44.05112"></scales>
<clustering>
<clus scale="   44.051">  1  9  2 -1</clus>
<clus scale="   81.576">  5  6 -1 -1</clus>
<clus scale="   89.716">  7  8 -1 -1</clus>
<clus scale="  185.289">  1  5  2 -1</clus>
<clus scale="  189.014">  2  5  1 -1</clus>
</clustering>
</event>
<event>
 9    1  0.2674825E-005  0.1483525E+03  0.7546771E-02  0.1204643E+00
          1   -1    0    0  502    0  0.00000000000E+00  0.00000000000E+00  0.32629889884E+03  0.32629889884E+03  0.00000000000E+00 0. -1.
         -2   -1    0    0    0  501 -0.00000000000E+00 -0.00000000000E+00 -0.25119601465E+03  0.25119601465E+03  0.00000000000E+00 0.  1.
        -24    2    1    2    0    0 -0.99662732762E+02 -0.66152301824E+02 -0.20376860179E+03  0.24931794846E+03  0.79555069056E+02 0.  0.
         23    2    1    2    0    0  0.93757980813E+02  0.28933823563E+02  0.19785935798E+03  0.23882907137E+03  0.90902555952E+02 0.  0.
         11    1    3    3    0    0 -0.15726435865E+02 -0.41298265882E+02 -0.26277813208E+02  0.51413918513E+02  0.00000000000E+00 0. -1.
        -12    1    3    3    0    0 -0.83936296897E+02 -0.24854035942E+02 -0.17749078858E+03  0.19790402995E+03  0.00000000000E+00 0.  1.
        -11    1    4    4    0    0  0.49940231521E+02  0.87630546861E+01  0.18062298986E+03  0.18760459035E+03  0.00000000000E+00 0. -1.
         11    1    4    4    0    0  0.43817749292E+02  0.20170768877E+02  0.17236368115E+02  0.51224481022E+02  0.00000000000E+00 0.  1.
         21    1    1    2  502  501  0.59047519496E+01  0.37218478261E+02  0.81012127997E+02  0.89347893664E+02  0.00000000000E+00 0. -1.
<scales pt_clust_5="13000.00000" pt_clust_6="13000.00000" pt_clust_7="13000.00000" pt_clust_8="13000.00000" pt_clust_9="37.68397"></scales>
<clustering>
<clus scale="   37.684">  1  9  2 -1</clus>
<clus scale="   79.555">  5  6 -1 -1</clus>
<clus scale="   90.903">  7  8 -1 -1</clus>
<clus scale="  141.683">  2  5  1 -1</clus>
<clus scale="   37.684">  1  5  2 -1</clus>
</clustering>
</event>
<event>
 9    1  0.2674825E-005  0.1108126E+03  0.7546771E-02  0.1262164E+00
         -2   -1    0    0    0  501 -0.00000000000E+00  0.00000000000E+00  0.78709038996E+03  0.78709038996E+03  0.00000000000E+00 0.  1.
          1   -1    0    0  502    0  0.00000000000E+00 -0.00000000000E+00 -0.32859962283E+02  0.32859962283E+02  0.00000000000E+00 0. -1.
        -24    2    1    2    0    0  0.65136634905E+02 -0.75271326784E+01  0.64961271755E+03  0.65825609246E+03  0.83695648125E+02 0.  0.
         23    2    1    2    0    0 -0.44141190134E+02  0.48905126501E+01  0.90305066702E+02  0.13614798358E+03  0.91700090405E+02 0.  0.
         13    1    3    3    0    0  0.10710122229E+02 -0.38340758785E+02  0.17090930534E+03  0.17548421910E+03  0.00000000000E+00 0. -1.
        -14    1    3    3    0    0  0.54426512676E+02  0.30813626106E+02  0.47870341222E+03  0.48277187336E+03  0.00000000000E+00 0.  1.
        -11    1    4    4    0    0  0.22216967403E+02 -0.18862166996E+02  0.40282133617E+02  0.49719465737E+02  0.00000000000E+00 0.  1.
         11    1    4    4    0    0 -0.66358157538E+02  0.23752679646E+02  0.50022933085E+02  0.86428517843E+02  0.00000000000E+00 0. -1.
         21    1    1    2  502  501 -0.20995444771E+02  0.26366200283E+01  0.14312643420E+02  0.25546276206E+02  0.00000000000E+00 0. -1.
<scales pt_clust_5="13000.00000" pt_clust_6="13000.00000" pt_clust_7="13000.00000" pt_clust_8="13000.00000" pt_clust_9="21.16035"></scales>
<clustering>
<clus scale="   21.160">  2  9  1 -1</clus>
<clus scale="   83.696">  5  6 -1 -1</clus>
<clus scale="   91.700">  7  8 -1 -1</clus>
<clus scale="  104.286">  1  5  2 -1</clus>
<clus scale="   21.160">  2  5  1 -1</clus>
</clustering>
</event>
<event>
 9    1  0.2674825E-005  0.9787206E+02  0.7546771E-02  0.1291236E+00
          1   -1    0    0  502    0  0.00000000000E+00  0.00000000000E+00  0.11214041050E+03  0.11214041050E+03  0.00000000000E+00 0. -1.
         -2   -1    0    0    0  501 -0.00000000000E+00 -0.00000000000E+00 -0.12404641393E+03  0.12404641393E+03  0.00000000000E+00 0.  1.
        -24    2    1    2    0    0 -0.20943947449E+01 -0.38355525512E+02 -0.47202043623E+02  0.10150934534E+03  0.81243962501E+02 0.  0.
         23    2    1    2    0    0  0.12197020104E+02  0.14491816847E+02  0.53236521080E+01  0.95055721447E+02  0.92997144328E+02 0.  0.
         11    1    3    3    0    0 -0.32140384680E+02 -0.31845554213E+02 -0.80015410130E-01  0.45245442345E+02  0.00000000000E+00 0. -1.
        -12    1    3    3    0    0  0.30045989936E+02 -0.65099712991E+01 -0.47122028213E+02  0.56263902997E+02  0.00000000000E+00 0.  1.
        -13    1    4    4    0    0  0.33024781927E+02  0.37391154294E+02 -0.21283495254E+02  0.54237642012E+02  0.00000000000E+00 0. -1.
         13    1    4    4    0    0 -0.20827761822E+02 -0.22899337447E+02  0.26607147362E+02  0.40818079436E+02  0.00000000000E+00 0.  1.
         21    1    1    2  502  501 -0.10102625359E+02  0.23863708665E+02  0.29972388090E+02  0.39621757636E+02  0.00000000000E+00 0.  1.
<scales pt_clust_5="13000.00000" pt_clust_6="13000.00000" pt_clust_7="13000.00000" pt_clust_8="13000.00000" pt_clust_9="25.91408"></scales>
<clustering>
<clus scale="   25.914">  1  9  2 -1</clus>
<clus scale="   81.244">  5  6 -1 -1</clus>
<clus scale="   86.782">  2  5  1 -1</clus>
<clus scale="   92.997">  7  8 -1 -1</clus>
<clus scale="   25.914">  1  5  2 -1</clus>
</clustering>
</event>
<event>
 9    1  0.2674825E-005  0.1404546E+03  0.7546771E-02  0.1216717E+00
          1   -1    0    0  502    0  0.00000000000E+00  0.00000000000E+00  0.49892348726E+03  0.49892348726E+03  0.00000000000E+00 0. -1.
         -2   -1    0    0    0  501 -0.00000000000E+00 -0.00000000000E+00 -0.61963395156E+02  0.61963395156E+02  0.00000000000E+00 0.  1.
         23    2    1    2    0    0  0.29339071096E+02  0.90094807177E+02  0.63528934670E+02  0.15061374620E+03  0.98339817120E+02 0.  0.
        -24    2    1    2    0    0 -0.48858208753E+02 -0.10571693760E+03  0.28550080767E+03  0.31885763369E+03  0.81217509936E+02 0.  0.
         13    1    4    4    0    0 -0.12468558359E+02 -0.95184351649E+02  0.24628225294E+03  0.26433023637E+03  0.00000000000E+00 0. -1.
        -14    1    4    4    0    0 -0.36389650394E+02 -0.10532585948E+02  0.39218554730E+02  0.54527397312E+02  0.00000000000E+00 0.  1.
        -11    1    3    3    0    0 -0.26441903635E+02  0.29237173820E+02 -0.93264807840E+01  0.40508885996E+02  0.00000000000E+00 0.  1.
         11    1    3    3    0    0  0.55780974731E+02  0.60857633357E+02  0.72855415454E+02  0.11010486020E+03  0.00000000000E+00 0. -1.
         21    1    1    2  502  501  0.19519137657E+02  0.15622130420E+02  0.87930349762E+02  0.91415502531E+02  0.00000000000E+00 0. -1.
<scales pt_clust_5="13000.00000" pt_clust_6="13000.00000" pt_clust_7="13000.00000" pt_clust_8="13000.00000" pt_clust_9="25.00095"></scales>
<clustering>
<clus scale="   25.001">  1  9  2 -1</clus>
<clus scale="   81.218">  5  6 -1 -1</clus>
<clus scale="   98.340">  7  8 -1 -1</clus>
<clus scale="  129.047">  1  5  2 -1</clus>
<clus scale="   25.001">  1  5  2 -1</clus>
</clustering>
</event>
<event>
 9    1  0.2674825E-005  0.9016816E+02  0.7546771E-02  0.1323654E+00
         -2   -1    0    0    0  501 -0.00000000000E+00  0.00000000000E+00  0.11132291880E+03  0.11132291880E+03  0.00000000000E+00 0.  1.
          1   -1    0    0  502    0  0.00000000000E+00 -0.00000000000E+00 -0.17819620694E+03  0.17819620694E+03  0.00000000000E+00 0. -1.
        -24    2    1    2    0    0 -0.33187165196E+02 -0.63349391481E+01  0.77199588568E+02  0.99421140620E+02  0.52756680519E+02 0.  0.
         23    2    1    2    0    0  0.12971861775E+01  0.81269461456E+01 -0.12987207383E+03  0.15514308770E+03  0.84468290835E+02 0.  0.
         11    1    3    3    0    0 -0.90596941233E-01  0.20210745993E+02  0.25748409455E+02  0.32733210213E+02  0.00000000000E+00 0. -1.
        -12    1    3    3    0    0 -0.33096568255E+02 -0.26545685141E+02  0.51451179113E+02  0.66687930407E+02  0.00000000000E+00 0.  1.
        -11    1    4    4    0    0 -0.32107466052E+02 -0.21851383374E+02 -0.47697022144E+02  0.61509172105E+02  0.00000000000E+00 0.  1.
         11    1    4    4    0    0  0.33404652230E+02  0.29978329519E+02 -0.82175051682E+02  0.93633915598E+02  0.00000000000E+00 0. -1.
         21    1    1    2  502  501  0.31889979019E+02 -0.17920069975E+01 -0.14200802883E+02  0.34954897417E+02  0.00000000000E+00 0. -1.
<scales pt_clust_5="13000.00000" pt_clust_6="13000.00000" pt_clust_7="13000.00000" pt_clust_8="13000.00000" pt_clust_9="31.94029"></scales>
<clustering>
<clus scale="   31.940">  2  9  1 -1</clus>
<clus scale="   52.757">  5  6 -1 -1</clus>
<clus scale="   61.471">  1  5  2 -1</clus>
<clus scale="   84.468">  7  8 -1 -1</clus>
<clus scale="   31.940">  2  5  1 -1</clus>
</clustering>
</event>
<event>
 9    1  0.2674825E-005  0.3758780E+03  0.7546771E-02  0.1052603E+00
         -2   -1    0    0    0  501 -0.00000000000E+00  0.00000000000E+00  0.23040384692E+03  0.23040384692E+03  0.00000000000E+00 0.  1.
          1   -1    0    0  502    0  0.00000000000E+00 -0.00000000000E+00 -0.10835618040E+04  0.10835618040E+04  0.00000000000E+00 0. -1.
        -24    2    1    2    0    0 -0.28267830818E+03  0.24075393819E+03 -0.11071894954E+02  0.38019808579E+03  0.80984646140E+02 0.  0.
         23    2    1    2    0    0  0.26311767178E+03 -0.22299818588E+03 -0.66022563673E+03  0.74999841766E+03  0.87410725826E+02 0.  0.
         11    1    3    3    0    0 -0.12036028288E+03  0.13928404195E+03 -0.34686350555E+02  0.18732267602E+03  0.00000000000E+00 0. -1.
        -12    1    3    3    0    0 -0.16231802530E+03  0.10146989624E+03  0.23614455601E+02  0.19287540977E+03  0.00000000000E+00 0.  1.
        -11    1    4    4    0    0  0.24078435478E+00 -0.29231861580E+02 -0.53383843376E+02  0.60863736676E+02  0.00000000000E+00 0.  1.
         11    1    4    4    0    0  0.26287688743E+03 -0.19376632430E+03 -0.60684179335E+03  0.68913468098E+03  0.00000000000E+00 0. -1.
         21    1    1    2  502  501  0.19560636393E+02 -0.17755752319E+02 -0.18186042540E+03  0.18376914747E+03  0.00000000000E+00 0. -1.
<scales pt_clust_5="13000.00000" pt_clust_6="13000.00000" pt_clust_7="13000.00000" pt_clust_8="13000.00000" pt_clust_9="26.41752"></scales>
<clustering>
<clus scale="   26.418">  2  9  1 -1</clus>
<clus scale="   80.985">  5  6 -1 -1</clus>
<clus scale="   87.411">  7  8 -1 -1</clus>
<clus scale="  374.436">  1  5  2 -1</clus>
<clus scale="   26.418">  2  5  1 -1</clus>
</clustering>
</event>
<event>
 9    1  0.2674825E-005  0.1185155E+03  0.7546771E-02  0.1249830E+00
         -2   -1    0    0    0  501 -0.00000000000E+00  0.00000000000E+00  0.74076592347E+02  0.74076592347E+02  0.00000000000E+00 0.  1.
          1   -1    0    0  502    0  0.00000000000E+00 -0.00000000000E+00 -0.77862607917E+03  0.77862607917E+03  0.00000000000E+00 0. -1.
         23    2    1    2    0    0 -0.75621382527E+02  0.75289531170E+01  0.14594262536E+02  0.12180242159E+03  0.94061462756E+02 0.  0.
        -24    2    1    2    0    0  0.39923013316E+02 -0.83005939805E+01 -0.42916003500E+03  0.43872645989E+03  0.81485115879E+02 0.  0.
         11    1    4    4    0    0  0.63170523131E+02 -0.13475412060E+02 -0.26025897116E+03  0.26815449613E+03  0.00000000000E+00 0. -1.
        -12    1    4    4    0    0 -0.23247509815E+02  0.51748180793E+01 -0.16890106384E+03  0.17057196376E+03  0.00000000000E+00 0.  1.
        -11    1    3    3    0    0 -0.24090339566E+02 -0.17094432260E+02  0.47465463567E+02  0.55906478215E+02  0.00000000000E+00 0.  1.
         11    1    3    3    0    0 -0.51531042960E+02  0.24623385377E+02 -0.32871201031E+02  0.65895943375E+02  0.00000000000E+00 0. -1.
         21    1    1    2  502  501  0.35698369210E+02  0.77164086350E+00 -0.28998371436E+03  0.29217379004E+03  0.00000000000E+00 0. -1.
<scales pt_clust_5="13000.00000" pt_clust_6="13000.00000" pt_clust_7="13000.00000" pt_clust_8="13000.00000" pt_clust_9="35.70671"></scales>
<clustering>
<clus scale="   35.707">  2  9  1 -1</clus>
<clus scale="   81.485">  5  6 -1 -1</clus>
<clus scale="   94.061">  7  8 -1 -1</clus>
<clus scale="  108.803">  2  5  1 -1</clus>
<clus scale="   35.707">  2  5  1 -1</clus>
</clustering>
</event>
<event>
 9    1  0.2674825E-005  0.8942992E+02  0.7546771E-02  0.1309741E+00
         -2   -1    0    0    0  501 -0.00000000000E+00  0.00000000000E+00  0.47824471393E+03  0.47824471393E+03  0.00000000000E+00 0.  1.
          1   -1    0    0  502    0  0.00000000000E+00 -0.00000000000E+00 -0.91110408908E+02  0.91110408908E+02  0.00000000000E+00 0. -1.
        -24    2    1    2    0    0  0.60851514930E+00 -0.89098528391E+01  0.42991330956E+03  0.43748828222E+03  0.80565424194E+02 0.  0.
         23    2    1    2    0    0 -0.10651201458E+02 -0.18941440135E+02 -0.18532775228E+02  0.93598972840E+02  0.89135165407E+02 0.  0.
         13    1    3    3    0    0 -0.31398994810E+02 -0.18341506374E+02  0.11033829597E+03  0.11617593249E+03  0.00000000000E+00 0. -1.
        -14    1    3    3    0    0  0.32007509959E+02  0.94316535346E+01  0.31957501359E+03  0.32131234973E+03  0.00000000000E+00 0.  1.
        -13    1    4    4    0    0 -0.39353754985E+02 -0.39740748787E+02 -0.72310339702E+01  0.56394441196E+02  0.00000000000E+00 0. -1.
         13    1    4    4    0    0  0.28702553527E+02  0.20799308652E+02 -0.11301741258E+02  0.37204531644E+02  0.00000000000E+00 0.  1.
         21    1    1    2  502  501  0.10042686309E+02  0.27851292974E+02 -0.24246229308E+02  0.38267867778E+02  0.00000000000E+00 0. -1.
<scales pt_clust_5="13000.00000" pt_clust_6="13000.00000" pt_clust_7="13000.00000" pt_clust_8="13000.00000" pt_clust_9="29.60659"></scales>
<clustering>
<clus scale="   29.607">  2  9  1 -1</clus>
<clus scale="   80.565">  5  6 -1 -1</clus>
<clus scale="   80.891">  1  5  2 -1</clus>
<clus scale="   89.135">  7  8 -1 -1</clus>
<clus scale="   29.607">  2  5  1 -1</clus>
</clustering>
</event>
<event>
 9    1  0.2674825E-005  0.9375034E+02  0.7546771E-02  0.1300769E+00
          1   -1    0    0  502    0  0.00000000000E+00  0.00000000000E+00  0.29086906385E+03  0.29086906385E+03  0.00000000000E+00 0. -1.
         -2   -1    0    0    0  501 -0.00000000000E+00 -0.00000000000E+00 -0.99545377196E+02  0.99545377196E+02  0.00000000000E+00 0.  1.
        -24    2    1    2    0    0  0.14096200602E+02  0.72151489345E+01 -0.64126817785E+02  0.10506719679E+03  0.81707440526E+02 0.  0.
         23    2    1    2    0    0  0.14938093078E+02  0.69479661142E+01  0.20132785848E+03  0.22231673702E+03  0.92846131304E+02 0.  0.
         13    1    3    3    0    0 -0.25215208616E+02 -0.61469335091E+01  0.30111479789E+01  0.26127735249E+02  0.00000000000E+00 0. -1.
        -14    1    3    3    0    0  0.39311409218E+02  0.13362082444E+02 -0.67137965764E+02  0.78939461544E+02  0.00000000000E+00 0.  1.
        -13    1    4    4    0    0  0.42419293869E+01  0.38770732876E+02  0.34270748896E+02  0.51919629454E+02  0.00000000000E+00 0.  1.
         13    1    4    4    0    0  0.10696163691E+02 -0.31822766762E+02  0.16705710959E+03  0.17039710756E+03  0.00000000000E+00 0. -1.
         21    1    1    2  502  501 -0.29034293680E+02 -0.14163115049E+02  0.54122645958E+02  0.63030507240E+02  0.00000000000E+00 0. -1.
<scales pt_clust_5="13000.00000" pt_clust_6="13000.00000" pt_clust_7="13000.00000" pt_clust_8="13000.00000" pt_clust_9="32.30455"></scales>
<clustering>
<clus scale="   32.305">  1  9  2 -1</clus>
<clus scale="   81.707">  5  6 -1 -1</clus>
<clus scale="   82.733">  2  5  1 -1</clus>
<clus scale="   92.846">  7  8 -1 -1</clus>
<clus scale="   32.305">  1  5  2 -1</clus>
</clustering>
</event>
<event>
 9    1  0.2674825E-005  0.1306397E+03  0.7546771E-02  0.1229424E+00
         -2   -1    0    0    0  501 -0.00000000000E+00  0.00000000000E+00  0.27232386855E+03  0.27232386855E+03  0.00000000000E+00 0.  1.
          1   -1    0    0  502    0  0.00000000000E+00 -0.00000000000E+00 -0.81549570190E+02  0.81549570190E+02  0.00000000000E+00 0. -1.
         23    2    1    2    0    0 -0.14554455755E+02 -0.73062660482E+02  0.14372254855E+03  0.18578864936E+03  0.91166149030E+02 0.  0.
        -24    2    1    2    0    0  0.16249386303E+02  0.10148794600E+03  0.26072416576E+02  0.13271528176E+03  0.79810584307E+02 0.  0.
         13    1    4    4    0    0  0.40070235911E+02  0.95593625523E+02  0.29901794967E+02  0.10787901737E+03  0.00000000000E+00 0. -1.
        -14    1    4    4    0    0 -0.23820849608E+02  0.58943204801E+01 -0.38293783911E+01  0.24836264390E+02  0.00000000000E+00 0.  1.
        -13    1    3    3    0    0 -0.23922179861E+02  0.40275921039E+01  0.21983111225E+01  0.24358258543E+02  0.00000000000E+00 0. -1.
         13    1    3    3    0    0  0.93677241063E+01 -0.77090252586E+02  0.14152423743E+03  0.16143039081E+03  0.00000000000E+00 0.  1.
         21    1    1    2  502  501 -0.16949305482E+01 -0.28425285521E+02  0.20979333232E+02  0.35369507621E+02  0.00000000000E+00 0.  1.
<scales pt_clust_5="13000.00000" pt_clust_6="13000.00000" pt_clust_7="13000.00000" pt_clust_8="13000.00000" pt_clust_9="28.47577"></scales>
<clustering>
<clus scale="   28.476">  1  9  2 -1</clus>
<clus scale="   79.811">  5  6 -1 -1</clus>
<clus scale="   91.166">  7  8 -1 -1</clus>
<clus scale="  122.985">  2  5  1 -1</clus>
<clus scale="  122.985">  2  5  1 -1</clus>
</clustering>
</event>
<event>
 9    1  0.2674825E-005  0.9592620E+02  0.7546771E-02  0.1294051E+00
         -2   -1    0    0    0  501 -0.00000000000E+00  0.00000000000E+00  0.89803589737E+02  0.89803589737E+02  0.00000000000E+00 0.  1.
          1   -1    0    0  502    0  0.00000000000E+00 -0.00000000000E+00 -0.19314502747E+03  0.19314502747E+03  0.00000000000E+00 0. -1.
         23    2    1    2    0    0  0.33294567757E+02 -0.42359319683E+01  0.35793663649E+02  0.10306901515E+03  0.90639749361E+02 0.  0.
        -24    2    1    2    0    0 -0.18748617952E+02  0.20752511484E+02 -0.13005097373E+03  0.15606986813E+03  0.81623345688E+02 0.  0.
         13    1    4    4    0    0 -0.40370984907E+02  0.25968344332E+02 -0.12407759857E+03  0.13303917392E+03  0.00000000000E+00 0. -1.
        -14    1    4    4    0    0  0.21622366955E+02 -0.52158328478E+01 -0.59733751602E+01  0.23030694211E+02  0.00000000000E+00 0.  1.
        -13    1    3    3    0    0  0.22552513661E+02 -0.42398900457E+02 -0.23121609137E+01  0.48079400167E+02  0.00000000000E+00 0. -1.
         13    1    3    3    0    0  0.10742054097E+02  0.38162968488E+02  0.38105824563E+02  0.54989614980E+02  0.00000000000E+00 0.  1.
         21    1    1    2  502  501 -0.14545949805E+02 -0.16516579516E+02 -0.90841276509E+01  0.23809733930E+02  0.00000000000E+00 0. -1.
<scales pt_clust_5="13000.00000" pt_clust_6="13000.00000" pt_clust_7="13000.00000" pt_clust_8="13000.00000" pt_clust_9="22.00868"></scales>
<clustering>
<clus scale="   22.009">  2  9  1 -1</clus>
<clus scale="   81.623">  5  6 -1 -1</clus>
<clus scale="   87.457">  2  5  1 -1</clus>
<clus scale="   90.640">  7  8 -1 -1</clus>
<clus scale="   22.009">  2  5  1 -1</clus>
</clustering>
</event>
<event>
 9    1  0.2674825E-005  0.1155333E+03  0.7546771E-02  0.1256485E+00
         -2   -1    0    0    0  501 -0.00000000000E+00  0.00000000000E+00  0.79827854586E+03  0.79827854586E+03  0.00000000000E+00 0.  1.
          1   -1    0    0  502    0  0.00000000000E+00 -0.00000000000E+00 -0.40729947590E+02  0.40729947590E+02  0.00000000000E+00 0. -1.
        -24    2    1    2    0    0 -0.34344515899E+02  0.39441490169E+02  0.37768376564E+03  0.38914000233E+03  0.77780059584E+02 0.  0.
         23    2    1    2    0    0  0.97269229140E+02 -0.88052999214E+02  0.24640706552E+03  0.29451864738E+03  0.93862442468E+02 0.  0.
         13    1    3    3    0    0 -0.20523562317E+02  0.22787019596E+02  0.38290459146E+02  0.49057355553E+02  0.00000000000E+00 0. -1.
        -14    1    3    3    0    0 -0.13820953582E+02  0.16654470572E+02  0.33939330650E+03  0.34008264678E+03  0.00000000000E+00 0.  1.
        -13    1    4    4    0    0  0.63922263846E+02 -0.71515343282E+01  0.57278559715E+02  0.86128007416E+02  0.00000000000E+00 0. -1.
         13    1    4    4    0    0  0.33346965294E+02 -0.80901464886E+02  0.18912850581E+03  0.20839063996E+03  0.00000000000E+00 0.  1.
         21    1    1    2  502  501 -0.62924713240E+02  0.48611509046E+02  0.13345776711E+03  0.15534984374E+03  0.00000000000E+00 0.  1.
<scales pt_clust_5="13000.00000" pt_clust_6="13000.00000" pt_clust_7="13000.00000" pt_clust_8="13000.00000" pt_clust_9="79.51477"></scales>
<clustering>
<clus scale="   77.780">  5  6 -1 -1</clus>
<clus scale="   79.515">  2  9  1 -1</clus>
<clus scale="   93.862">  7  8 -1 -1</clus>
<clus scale="  102.896">  1  5  2 -1</clus>
<clus scale="   79.515">  2  5  1 -1</clus>
</clustering>
</event>
<event>
 9    1  0.2674825E-005  0.1177478E+03  0.7546771E-02  0.1250747E+00
         -2   -1    0    0    0  501 -0.00000000000E+00  0.00000000000E+00  0.11015305804E+03  0.11015305804E+03  0.00000000000E+00 0.  1.
          1   -1    0    0  502    0  0.00000000000E+00 -0.00000000000E+00 -0.29076055129E+03  0.29076055129E+03  0.00000000000E+00 0. -1.
        -24    2    1    2    0    0  0.75516372338E+02  0.72045025798E+01  0.60670205998E+02  0.12632288943E+03  0.80758721826E+02 0.  0.
         23    2    1    2    0    0 -0.53665757877E+02 -0.47408532828E+01 -0.21662751747E+03  0.24155815442E+03  0.92305857816E+02 0.  0.
         11    1    3    3    0    0  0.57056757358E+02 -0.11527316369E+02 -0.21194005282E+01  0.58248128223E+02  0.00000000000E+00 0. -1.
        -12    1    3    3    0    0  0.18459614979E+02  0.18731818949E+02  0.62789606526E+02  0.68074761212E+02  0.00000000000E+00 0.  1.
        -11    1    4    4    0    0 -0.18649534176E+02 -0.44229695121E+02 -0.63571683520E+02  0.79658207368E+02  0.00000000000E+00 0.  1.
         11    1    4    4    0    0 -0.35016223701E+02  0.39488841838E+02 -0.15305583395E+03  0.16189994706E+03  0.00000000000E+00 0. -1.
         21    1    1    2  502  501 -0.21850614461E+02 -0.24636492970E+01 -0.24650181779E+02  0.33032565475E+02  0.00000000000E+00 0. -1.
<scales pt_clust_5="13000.00000" pt_clust_6="13000.00000" pt_clust_7="13000.00000" pt_clust_8="13000.00000" pt_clust_9="21.98906"></scales>
<clustering>
<clus scale="   21.989">  2  9  1 -1</clus>
<clus scale="   80.759">  5  6 -1 -1</clus>
<clus scale="   92.306">  7  8 -1 -1</clus>
<clus scale="  108.932">  1  5  2 -1</clus>
<clus scale="   21.989">  2  5  1 -1</clus>
</clustering>
</event>
<event>
 9    1  0.2674825E-005  0.9482095E+02  0.7546771E-02  0.1300056E+00
         -2   -1    0    0    0  501 -0.00000000000E+00  0.00000000000E+00  0.14957350179E+03  0.14957350179E+03  0.00000000000E+00 0.  1.
          1   -1    0    0  502    0  0.00000000000E+00 -0.00000000000E+00 -0.18936735039E+03  0.18936735039E+03  0.00000000000E+00 0. -1.
         23    2    1    2    0    0 -0.11469878412E+02 -0.11393502429E+02  0.11188190379E+03  0.14686854055E+03  0.93762667404E+02 0.  0.
        -24    2    1    2    0    0  0.42706693972E+01 -0.10970884204E+02 -0.14764785058E+03  0.16823497972E+03  0.79777952497E+02 0.  0.
         13    1    4    4    0    0  0.22904325547E+02  0.22872448365E+02 -0.29014974382E+02  0.43469825872E+02  0.00000000000E+00 0. -1.
        -14    1    4    4    0    0 -0.18633656150E+02 -0.33843332569E+02 -0.11863287620E+03  0.12476515385E+03  0.00000000000E+00 0.  1.
        -11    1    3    3    0    0 -0.10096998968E+02  0.33667982608E+02  0.11759226949E+02  0.37064293592E+02  0.00000000000E+00 0. -1.
         11    1    3    3    0    0 -0.13728794433E+01 -0.45061485038E+02  0.10012267684E+03  0.10980424695E+03  0.00000000000E+00 0.  1.
         21    1    1    2  502  501  0.71992090143E+01  0.22364386633E+02 -0.40279018097E+01  0.23837331916E+02  0.00000000000E+00 0. -1.
<scales pt_clust_5="13000.00000" pt_clust_6="13000.00000" pt_clust_7="13000.00000" pt_clust_8="13000.00000" pt_clust_9="23.49456"></scales>
<clustering>
<clus scale="   23.495">  2  9  1 -1</clus>
<clus scale="   79.778">  5  6 -1 -1</clus>
<clus scale="   81.019">  2  5  1 -1</clus>
<clus scale="   93.763">  7  8 -1 -1</clus>
<clus scale="   23.495">  2  5  1 -1</clus>
</clustering>
</event>
<event>
 9    1  0.2674825E-005  0.1935364E+03  0.7546771E-02  0.1157014E+00
         -2   -1    0    0    0  501 -0.00000000000E+00  0.00000000000E+00  0.23182480468E+03  0.23182480468E+03  0.00000000000E+00 0.  1.
          1   -1    0    0  502    0  0.00000000000E+00 -0.00000000000E+00 -0.27571138564E+03  0.27571138564E+03  0.00000000000E+00 0. -1.
        -24    2    1    2    0    0  0.14893782925E+03  0.82923517479E+02  0.12751351866E+03  0.22757137169E+03  0.80437833375E+02 0.  0.
         23    2    1    2    0    0 -0.15214276280E+03 -0.48494329168E+02 -0.14121088245E+03  0.23406242828E+03  0.96672575099E+02 0.  0.
         11    1    3    3    0    0  0.12665607435E+03  0.91358684038E+02  0.82446901600E+02  0.17659462591E+03  0.00000000000E+00 0. -1.
        -12    1    3    3    0    0  0.22281754901E+02 -0.84351665587E+01  0.45066617061E+02  0.50976745774E+02  0.00000000000E+00 0.  1.
        -11    1    4    4    0    0 -0.16212797190E+03 -0.28958323352E+02 -0.12602203207E+03  0.20737795526E+03  0.00000000000E+00 0. -1.
         11    1    4    4    0    0  0.99852091022E+01 -0.19536005816E+02 -0.15188850384E+02  0.26684473014E+02  0.00000000000E+00 0.  1.
         21    1    1    2  502  501  0.32049335506E+01 -0.34429188312E+02 -0.30189217165E+02  0.45902390351E+02  0.00000000000E+00 0. -1.
<scales pt_clust_5="13000.00000" pt_clust_6="13000.00000" pt_clust_7="13000.00000" pt_clust_8="13000.00000" pt_clust_9="34.57804"></scales>
<clustering>
<clus scale="   34.578">  2  9  1 -1</clus>
<clus scale="   80.438">  5  6 -1 -1</clus>
<clus scale="   96.673">  7  8 -1 -1</clus>
<clus scale="  185.960">  1  5  2 -1</clus>
<clus scale="   34.578">  2  5  1 -1</clus>
</clustering>
</event>
<event>
 9    1  0.2674825E-005  0.1284057E+03  0.7546771E-02  0.1234513E+00
          1   -1    0    0  502    0  0.00000000000E+00  0.00000000000E+00  0.27754063196E+03  0.27754063196E+03  0.00000000000E+00 0. -1.
         -2   -1    0    0    0  501 -0.00000000000E+00 -0.00000000000E+00 -0.92478602517E+02  0.92478602517E+02  0.00000000000E+00 0.  1.
         23    2    1    2    0    0 -0.24897730823E+02 -0.81430537806E+02 -0.17427888386E+01  0.12714830765E+03  0.94407761000E+02 0.  0.
        -24    2    1    2    0    0 -0.16539961226E+01  0.95930236343E+02  0.16252093354E+03  0.20407733819E+03  0.77647666903E+02 0.  0.
         11    1    4    4    0    0  0.33091001701E+02  0.72760845936E+02  0.12224711893E+03  0.14605996434E+03  0.00000000000E+00 0. -1.
        -12    1    4    4    0    0 -0.34744997823E+02  0.23169390406E+02  0.40273814608E+02  0.58017373851E+02  0.00000000000E+00 0.  1.
        -11    1    3    3    0    0  0.73959429689E+01 -0.56066990773E+02  0.39474578759E+02  0.68967019617E+02  0.00000000000E+00 0. -1.
         11    1    3    3    0    0 -0.32293673792E+02 -0.25363547033E+02 -0.41217367598E+02  0.58181288029E+02  0.00000000000E+00 0.  1.
         21    1    1    2  502  501  0.26551726945E+02 -0.14499698537E+02  0.24283884738E+02  0.38793588638E+02  0.00000000000E+00 0.  1.
<scales pt_clust_5="13000.00000" pt_clust_6="13000.00000" pt_clust_7="13000.00000" pt_clust_8="13000.00000" pt_clust_9="30.25286"></scales>
<clustering>
<clus scale="   30.253">  1  9  2 -1</clus>
<clus scale="   77.648">  5  6 -1 -1</clus>
<clus scale="   94.408">  7  8 -1 -1</clus>
<clus scale="  116.638">  1  5  2 -1</clus>
<clus scale="   30.253">  1  5  2 -1</clus>
</clustering>
</event>
<event>
 9    1  0.4590884E-005  0.1199552E+03  0.7546771E-02  0.1246970E+00
         -2   -1    0    0    0  501 -0.00000000000E+00  0.00000000000E+00  0.48765083021E+03  0.48765083021E+03  0.00000000000E+00 0.  1.
          1   -1    0    0  502    0  0.00000000000E+00 -0.00000000000E+00 -0.59285468511E+03  0.59285468511E+03  0.00000000000E+00 0. -1.
        -24    2    1    2    0    0 -0.17560651001E+02 -0.71558405200E+01  0.42789211201E+03  0.43556340884E+03  0.79146958750E+02 0.  0.
         23    2    1    2    0    0  0.30097075671E+02 -0.73234236920E+02 -0.54893399365E+03  0.56205320743E+03  0.91138307955E+02 0.  0.
         11    1    3    3    0    0 -0.36638915402E+02 -0.12924191781E+02  0.10337424590E+03  0.11043405077E+03  0.00000000000E+00 0. -1.
        -12    1    3    3    0    0  0.19078264401E+02  0.57683512605E+01  0.32451786611E+03  0.32512935806E+03  0.00000000000E+00 0.  1.
        -11    1    4    4    0    0 -0.30150888395E+02 -0.39943838077E+02 -0.28080252442E+03  0.28522735492E+03  0.00000000000E+00 0.  1.
         11    1    4    4    0    0  0.60247964066E+02 -0.33290398843E+02 -0.26813146923E+03  0.27682585252E+03  0.00000000000E+00 0. -1.
         21    1    1    2  502  501 -0.12536424669E+02  0.80390077440E+02  0.15838026748E+02  0.82888899049E+02  0.00000000000E+00 0.  1.
<scales pt_clust_5="13000.00000" pt_clust_6="13000.00000" pt_clust_7="13000.00000" pt_clust_8="13000.00000" pt_clust_9="81.36170"></scales>
<clustering>
<clus scale="   79.147">  5  6 -1 -1</clus>
<clus scale="   81.362">  1  9  2 -1</clus>
<clus scale="   91.138">  7  8 -1 -1</clus>
<clus scale="  111.118">  1  5  2 -1</clus>
<clus scale="  119.955">  2  5  1 -1</clus>
</clustering>
</event>
<event>
 9    1  0.2674825E-005  0.1876008E+03  0.7546771E-02  0.1161180E+00
         -2   -1    0    0    0  501 -0.00000000000E+00  0.00000000000E+00  0.15946090679E+03  0.15946090679E+03  0.00000000000E+00 0.  1.
          1   -1    0    0  502    0  0.00000000000E+00 -0.00000000000E+00 -0.43363470602E+03  0.43363470602E+03  0.00000000000E+00 0. -1.
        -24    2    1    2    0    0  0.16481927058E+03  0.78146192413E+01  0.31016392453E+02  0.18798977366E+03  0.84567595279E+02 0.  0.
         23    2    1    2    0    0 -0.16476722061E+03  0.32186954064E+02 -0.14289530887E+03  0.23795393948E+03  0.89547590810E+02 0.  0.
         11    1    3    3    0    0  0.54710295567E+02 -0.49761063759E+00 -0.29408952925E+02  0.62115622588E+02  0.00000000000E+00 0. -1.
        -12    1    3    3    0    0  0.11010897501E+03  0.83122298789E+01  0.60425345377E+02  0.12587415107E+03  0.00000000000E+00 0.  1.
        -13    1    4    4    0    0 -0.37565553117E+02 -0.20026291210E+02 -0.44050936162E+01  0.42797522947E+02  0.00000000000E+00 0.  1.
         13    1    4    4    0    0 -0.12720166749E+03  0.52213245274E+02 -0.13849021525E+03  0.19515641654E+03  0.00000000000E+00 0. -1.
         21    1    1    2  502  501 -0.52049973959E-01 -0.40001573305E+02 -0.16229488281E+03  0.16715189967E+03  0.00000000000E+00 0.  1.
<scales pt_clust_5="13000.00000" pt_clust_6="13000.00000" pt_clust_7="13000.00000" pt_clust_8="13000.00000" pt_clust_9="40.00161"></scales>
<clustering>
<clus scale="   40.002">  2  9  1 -1</clus>
<clus scale="   84.568">  5  6 -1 -1</clus>
<clus scale="   89.548">  7  8 -1 -1</clus>
<clus scale="  185.275">  1  5  2 -1</clus>
<clus scale="   40.002">  2  5  1 -1</clus>
</clustering>
</event>
<event>
 9    1  0.2674825E-005  0.8680857E+02  0.7546771E-02  0.1314266E+00
          3   -1    0    0  502    0  0.00000000000E+00  0.00000000000E+00  0.11929820339E+03  0.11929820339E+03  0.00000000000E+00 0. -1.
         -4   -1    0    0    0  501 -0.00000000000E+00 -0.00000000000E+00 -0.17490154523E+03  0.17490154523E+03  0.00000000000E+00 0.  1.
        -24    2    1    2    0    0  0.11280421692E+02  0.11501399357E+02 -0.11349184168E+03  0.14018827499E+03  0.80702070691E+02 0.  0.
         23    2    1    2    0    0  0.17771162182E+01  0.29319986943E+02  0.63312485960E+02  0.11081072711E+03  0.86068150828E+02 0.  0.
         11    1    3    3    0    0  0.22238890981E+02 -0.28319469596E+02 -0.77293102866E+02  0.85268894569E+02  0.00000000000E+00 0. -1.
        -12    1    3    3    0    0 -0.10958469289E+02  0.39820868954E+02 -0.36198738819E+02  0.54919380418E+02  0.00000000000E+00 0.  1.
        -11    1    4    4    0    0  0.22114005197E+02  0.23942028024E+02  0.78412523713E+02  0.84916275276E+02  0.00000000000E+00 0. -1.
         11    1    4    4    0    0 -0.20336888978E+02  0.53779589189E+01 -0.15100037753E+02  0.25894451830E+02  0.00000000000E+00 0.  1.
         21    1    1    2  502  501 -0.13057537910E+02 -0.40821386300E+02 -0.54239861146E+01  0.43200746534E+02  0.00000000000E+00 0.  1.
<scales pt_clust_5="13000.00000" pt_clust_6="13000.00000" pt_clust_7="13000.00000" pt_clust_8="13000.00000" pt_clust_9="42.85889"></scales>
<clustering>
<clus scale="   42.859">  1  9  2 -1</clus>
<clus scale="   80.702">  5  6 -1 -1</clus>
<clus scale="   81.491">  2  5  1 -1</clus>
<clus scale="   86.068">  7  8 -1 -1</clus>
<clus scale="   42.859">  1  5  2 -1</clus>
</clustering>
</event>
<event>
 9    1  0.2674825E-005  0.1113643E+03  0.7546771E-02  0.1260548E+00
         -2   -1    0    0    0  501 -0.00000000000E+00  0.00000000000E+00  0.30140885663E+02  0.30140885663E+02  0.00000000000E+00 0.  1.
          1   -1    0    0  502    0  0.00000000000E+00 -0.00000000000E+00 -0.65084155062E+03  0.65084155062E+03  0.00000000000E+00 0. -1.
        -24    2    1    2    0    0 -0.53444449917E+02 -0.59469601402E+02 -0.23037296386E+03  0.25820153322E+03  0.84872766910E+02 0.  0.
         23    2    1    2    0    0  0.38703464484E+01  0.58686066741E+02 -0.30863388181E+03  0.32721895576E+03  0.91423946531E+02 0.  0.
         11    1    3    3    0    0 -0.70989053966E+02 -0.24264952418E+02 -0.12574576548E+03  0.14642483135E+03  0.00000000000E+00 0. -1.
        -12    1    3    3    0    0  0.17544604049E+02 -0.35204648984E+02 -0.10462719838E+03  0.11177670188E+03  0.00000000000E+00 0.  1.
        -13    1    4    4    0    0 -0.27348216774E+02  0.45325610518E+02 -0.27265298977E+03  0.27774446666E+03  0.00000000000E+00 0. -1.
         13    1    4    4    0    0  0.31218563222E+02  0.13360456222E+02 -0.35980892038E+02  0.49474489102E+02  0.00000000000E+00 0.  1.
         21    1    1    2  502  501  0.49574103469E+02  0.78353466142E+00 -0.81693819288E+02  0.95561947297E+02  0.00000000000E+00 0.  1.
<scales pt_clust_5="13000.00000" pt_clust_6="13000.00000" pt_clust_7="13000.00000" pt_clust_8="13000.00000" pt_clust_9="49.58030"></scales>
<clustering>
<clus scale="   49.580">  1  9  2 -1</clus>
<clus scale="   84.873">  5  6 -1 -1</clus>
<clus scale="   91.424">  7  8 -1 -1</clus>
<clus scale="  106.052">  1  5  2 -1</clus>
<clus scale="  111.364">  2  5  1 -1</clus>
</clustering>
</event>
<event>
 9    1  0.2674825E-005  0.1489957E+03  0.7546771E-02  0.1203850E+00
         -2   -1    0    0    0  501 -0.00000000000E+00  0.00000000000E+00  0.38393860881E+03  0.38393860881E+03  0.00000000000E+00 0.  1.
          1   -1    0    0  502    0  0.00000000000E+00 -0.00000000000E+00 -0.12584410956E+03  0.12584410956E+03  0.00000000000E+00 0. -1.
        -24    2    1    2    0    0  0.49478023996E+02 -0.82658284909E+02  0.26902632435E+03  0.29697538021E+03  0.80862515013E+02 0.  0.
         23    2    1    2    0    0 -0.80423325828E+02  0.90840317766E+02 -0.51761527527E+02  0.16092649423E+03  0.92185715508E+02 0.  0.
         13    1    3    3    0    0 -0.18943189491E+02 -0.10820281773E+02  0.86737868499E+02  0.89439257362E+02  0.00000000000E+00 0. -1.
        -14    1    3    3    0    0  0.68421213487E+02 -0.71838003136E+02  0.18228845585E+03  0.20753612284E+03  0.00000000000E+00 0.  1.
        -13    1    4    4    0    0 -0.95311193533E+02  0.48293232220E+02 -0.30690673847E+02  0.11116823895E+03  0.00000000000E+00 0. -1.
         13    1    4    4    0    0  0.14887867705E+02  0.42547085545E+02 -0.21070853680E+02  0.49758255275E+02  0.00000000000E+00 0.  1.
         21    1    1    2  502  501  0.30945301833E+02 -0.81820328570E+01  0.40829702433E+02  0.51880843940E+02  0.00000000000E+00 0.  1.
<scales pt_clust_5="13000.00000" pt_clust_6="13000.00000" pt_clust_7="13000.00000" pt_clust_8="13000.00000" pt_clust_9="32.00871"></scales>
<clustering>
<clus scale="   32.009">  1  9  2 -1</clus>
<clus scale="   80.863">  5  6 -1 -1</clus>
<clus scale="   92.186">  7  8 -1 -1</clus>
<clus scale="  142.268">  1  5  2 -1</clus>
<clus scale="  148.996">  2  5  1 -1</clus>
</clustering>
</event>
<event>
 9    1  0.2674825E-005  0.8199926E+02  0.7546771E-02  0.1328802E+00
         -2   -1    0    0    0  501 -0.00000000000E+00  0.00000000000E+00  0.66298324753E+02  0.66298324753E+02  0.00000000000E+00 0.  1.
          1   -1    0    0  502    0  0.00000000000E+00 -0.00000000000E+00 -0.38549974743E+03  0.38549974743E+03  0.00000000000E+00 0. -1.
         23    2    1    2    0    0 -0.23152936692E+02 -0.14185965742E+01  0.23869711392E+02  0.78381270868E+02  0.70963297607E+02 0.  0.
        -24    2    1    2    0    0 -0.51651839554E+01 -0.25494134620E+02 -0.31391169062E+03  0.32466760441E+03  0.78688460497E+02 0.  0.
         11    1    4    4    0    0  0.21010960015E+02 -0.45024051226E+02 -0.20696976556E+03  0.21284996942E+03  0.00000000000E+00 0. -1.
        -12    1    4    4    0    0 -0.26176143971E+02  0.19529916606E+02 -0.10694192507E+03  0.11181763498E+03  0.00000000000E+00 0.  1.
        -11    1    3    3    0    0  0.24313041728E+02 -0.27831289429E+01 -0.15482941536E+01  0.24520746717E+02  0.00000000000E+00 0.  1.
         11    1    3    3    0    0 -0.47465978420E+02  0.13645323687E+01  0.25418005545E+02  0.53860524151E+02  0.00000000000E+00 0. -1.
         21    1    1    2  502  501  0.28318120647E+02  0.26912731194E+02 -0.29159443444E+02  0.48749196909E+02  0.00000000000E+00 0.  1.
<scales pt_clust_5="13000.00000" pt_clust_6="13000.00000" pt_clust_7="13000.00000" pt_clust_8="13000.00000" pt_clust_9="39.06675"></scales>
<clustering>
<clus scale="   39.067">  1  9  2 -1</clus>
<clus scale="   70.963">  7  8 -1 -1</clus>
<clus scale="   74.618">  1  7  2 -1</clus>
<clus scale="   78.688">  5  6 -1 -1</clus>
<clus scale="   81.999">  2  5  1 -1</clus>
</clustering>
</event>
<event>
 9    1  0.2674825E-005  0.9301821E+02  0.7546771E-02  0.1302172E+00
         -2   -1    0    0    0  501 -0.00000000000E+00  0.00000000000E+00  0.23762729964E+03  0.23762729964E+03  0.00000000000E+00 0.  1.
          1   -1    0    0  502    0  0.00000000000E+00 -0.00000000000E+00 -0.51594658605E+02  0.51594658605E+02  0.00000000000E+00 0. -1.
        -24    2    1    2    0    0  0.19109197827E+02 -0.13403450546E+02  0.14533936675E+03  0.16760313281E+03  0.80140281207E+02 0.  0.
         23    2    1    2    0    0 -0.14547375082E+02 -0.77542207634E+01  0.27986387454E+02  0.96520573406E+02  0.90891304020E+02 0.  0.
         11    1    3    3    0    0  0.47788012235E+02 -0.16644976255E+02  0.11545163734E+03  0.12605486866E+03  0.00000000000E+00 0. -1.
        -12    1    3    3    0    0 -0.28678814407E+02  0.32415257088E+01  0.29887729413E+02  0.41548264154E+02  0.00000000000E+00 0.  1.
        -13    1    4    4    0    0  0.20479815961E+02 -0.20463800486E+02 -0.20423866388E+02  0.35430556168E+02  0.00000000000E+00 0. -1.
         13    1    4    4    0    0 -0.35027191043E+02  0.12709579723E+02  0.48410253842E+02  0.61090017238E+02  0.00000000000E+00 0.  1.
         21    1    1    2  502  501 -0.45618227455E+01  0.21157671310E+02  0.12706886830E+02  0.25098252029E+02  0.00000000000E+00 0. -1.
<scales pt_clust_5="13000.00000" pt_clust_6="13000.00000" pt_clust_7="13000.00000" pt_clust_8="13000.00000" pt_clust_9="21.64387"></scales>
<clustering>
<clus scale="   21.644">  2  9  1 -1</clus>
<clus scale="   80.140">  5  6 -1 -1</clus>
<clus scale="   82.545">  1  5  2 -1</clus>
<clus scale="   90.891">  7  8 -1 -1</clus>
<clus scale="   21.644">  2  5  1 -1</clus>
</clustering>
</event>
<event>
 9    1  0.2674825E-005  0.1562327E+03  0.7546771E-02  0.1199705E+00
          1   -1    0    0  502    0  0.00000000000E+00  0.00000000000E+00  0.37563318685E+03  0.37563318685E+03  0.00000000000E+00 0. -1.
         -2   -1    0    0    0  501 -0.00000000000E+00 -0.00000000000E+00 -0.10379720416E+03  0.10379720416E+03  0.00000000000E+00 0.  1.
         23    2    1    2    0    0 -0.24567032423E+02 -0.83570241217E+02  0.39064931462E+02  0.14788128268E+03  0.11293927836E+03 0.  0.
        -24    2    1    2    0    0  0.25835451711E+02  0.14284098349E+03  0.12304340106E+03  0.20683027660E+03  0.81043615701E+02 0.  0.
         13    1    4    4    0    0  0.34911573528E+02  0.33425545584E+02  0.10216851950E+02  0.49401104517E+02  0.00000000000E+00 0. -1.
        -14    1    4    4    0    0 -0.90761218168E+01  0.10941543790E+03  0.11282654911E+03  0.15742917209E+03  0.00000000000E+00 0.  1.
        -13    1    3    3    0    0  0.38754307710E+02 -0.14457189107E+01  0.76798284213E+01  0.39534367755E+02  0.00000000000E+00 0.  1.
         13    1    3    3    0    0 -0.63321340133E+02 -0.82124522307E+02  0.31385103041E+02  0.10834691492E+03  0.00000000000E+00 0. -1.
         21    1    1    2  502  501 -0.12684192884E+01 -0.59270742269E+02  0.10972765016E+03  0.12471883172E+03  0.00000000000E+00 0. -1.
<scales pt_clust_5="13000.00000" pt_clust_6="13000.00000" pt_clust_7="13000.00000" pt_clust_8="13000.00000" pt_clust_9="59.28431"></scales>
<clustering>
<clus scale="   59.284">  1  9  2 -1</clus>
<clus scale="   81.044">  5  6 -1 -1</clus>
<clus scale="  112.939">  7  8 -1 -1</clus>
<clus scale="  134.987">  1  5  2 -1</clus>
<clus scale="   59.284">  1  5  2 -1</clus>
</clustering>
</event>
<event>
 9    1  0.2674825E-005  0.1259601E+03  0.7546771E-02  0.1237847E+00
          1   -1    0    0  502    0  0.00000000000E+00  0.00000000000E+00  0.85118646892E+02  0.85118646892E+02  0.00000000000E+00 0. -1.
         -2   -1    0    0    0  501 -0.00000000000E+00 -0.00000000000E+00 -0.44060330743E+03  0.44060330743E+03  0.00000000000E+00 0.  1.
        -24    2    1    2    0    0  0.66803204236E+02 -0.43886195220E+02 -0.30493237179E+03  0.32472775955E+03  0.77946778214E+02 0.  0.
         23    2    1    2    0    0 -0.85634376360E+02  0.64857544636E+02 -0.77708391553E+02  0.16185515468E+03  0.92837220279E+02 0.  0.
         13    1    3    3    0    0  0.30393804903E+02  0.20814421487E+02 -0.86279225416E+02  0.93814328632E+02  0.00000000000E+00 0. -1.
        -14    1    3    3    0    0  0.36409399333E+02 -0.64700616707E+02 -0.21865314637E+03  0.23091343092E+03  0.00000000000E+00 0.  1.
        -13    1    4    4    0    0 -0.80708904685E+02  0.20379598668E+02 -0.14633983440E+02  0.84518689109E+02  0.00000000000E+00 0. -1.
         13    1    4    4    0    0 -0.49254716749E+01  0.44477945968E+02 -0.63074408113E+02  0.77336465575E+02  0.00000000000E+00 0.  1.
         21    1    1    2  502  501  0.18831172124E+02 -0.20971349417E+02  0.27156102797E+02  0.39139040089E+02  0.00000000000E+00 0. -1.
<scales pt_clust_5="13000.00000" pt_clust_6="13000.00000" pt_clust_7="13000.00000" pt_clust_8="13000.00000" pt_clust_9="28.18529"></scales>
<clustering>
<clus scale="   28.185">  1  9  2 -1</clus>
<clus scale="   77.947">  5  6 -1 -1</clus>
<clus scale="   92.837">  7  8 -1 -1</clus>
<clus scale="  115.425">  2  5  1 -1</clus>
<clus scale="   28.185">  1  5  2 -1</clus>
</clustering>
</event>
<event>
 9    1  0.2674825E-005  0.1487369E+03  0.7546771E-02  0.1203515E+00
         -4   -1    0    0    0  501 -0.00000000000E+00  0.00000000000E+00  0.37893574765E+03  0.37893574765E+03  0.00000000000E+00 0.  1.
          3   -1    0    0  502    0  0.00000000000E+00 -0.00000000000E+00 -0.92130074228E+02  0.92130074228E+02  0.00000000000E+00 0. -1.
        -24    2    1    2    0    0 -0.12236293664E+03 -0.32435168241E+02  0.25121367649E+03  0.29286972797E+03  0.81483973291E+02 0.  0.
         23    2    1    2    0    0  0.98140312915E+02  0.26873266868E+02  0.55409378613E+02  0.14640932207E+03  0.89508641263E+02 0.  0.
         11    1    3    3    0    0 -0.41460838323E+02 -0.24142806394E+02  0.28575393542E+02  0.55842898664E+02  0.00000000000E+00 0. -1.
        -12    1    3    3    0    0 -0.80902098321E+02 -0.82923618465E+01  0.22263828295E+03  0.23702682931E+03  0.00000000000E+00 0.  1.
        -11    1    4    4    0    0  0.80436603314E+02  0.55478990210E+02  0.24531872629E+02  0.10074610802E+03  0.00000000000E+00 0. -1.
         11    1    4    4    0    0  0.17703709601E+02 -0.28605723342E+02  0.30877505984E+02  0.45663214050E+02  0.00000000000E+00 0.  1.
         21    1    1    2  502  501  0.24222623729E+02  0.55619013731E+01 -0.19817381677E+02  0.31786771836E+02  0.00000000000E+00 0. -1.
<scales pt_clust_5="13000.00000" pt_clust_6="13000.00000" pt_clust_7="13000.00000" pt_clust_8="13000.00000" pt_clust_9="24.85297"></scales>
<clustering>
<clus scale="   24.853">  2  9  1 -1</clus>
<clus scale="   81.484">  5  6 -1 -1</clus>
<clus scale="   89.509">  7  8 -1 -1</clus>
<clus scale="  144.050">  1  5  2 -1</clus>
<clus scale="   24.853">  2  5  1 -1</clus>
</clustering>
</event>
<event>
 9    1  0.2674825E-005  0.2576126E+03  0.7546771E-02  0.1109182E+00
         -2   -1    0    0    0  501 -0.00000000000E+00  0.00000000000E+00  0.18387262904E+03  0.18387262904E+03  0.00000000000E+00 0.  1.
          1   -1    0    0  502    0  0.00000000000E+00 -0.00000000000E+00 -0.53689772152E+03  0.53689772152E+03  0.00000000000E+00 0. -1.
        -24    2    1    2    0    0 -0.16507842873E+03 -0.18444173384E+03  0.16030400322E+02  0.26024818531E+03  0.78755973805E+02 0.  0.
         23    2    1    2    0    0  0.14281983980E+03  0.17258100204E+03 -0.28954757366E+03  0.37710975043E+03  0.90511090757E+02 0.  0.
         13    1    3    3    0    0 -0.41494489447E+02 -0.49006101488E+01  0.18369972338E+01  0.41823237478E+02  0.00000000000E+00 0. -1.
        -14    1    3    3    0    0 -0.12358393928E+03 -0.17954112369E+03  0.14193403088E+02  0.21842494783E+03  0.00000000000E+00 0.  1.
        -11    1    4    4    0    0  0.81721020456E+02  0.50914659192E+02 -0.71027474970E+02  0.11964752361E+03  0.00000000000E+00 0. -1.
         11    1    4    4    0    0  0.61098819339E+02  0.12166634285E+03 -0.21852009869E+03  0.25746222682E+03  0.00000000000E+00 0.  1.
         21    1    1    2  502  501  0.22258588932E+02  0.11860731798E+02 -0.79507919145E+02  0.83412414825E+02  0.00000000000E+00 0.  1.
<scales pt_clust_5="13000.00000" pt_clust_6="13000.00000" pt_clust_7="13000.00000" pt_clust_8="13000.00000" pt_clust_9="25.22145"></scales>
<clustering>
<clus scale="   25.221">  2  9  1 -1</clus>
<clus scale="   78.756">  5  6 -1 -1</clus>
<clus scale="   90.511">  7  8 -1 -1</clus>
<clus scale="  253.721">  1  5  2 -1</clus>
<clus scale="   25.221">  2  5  1 -1</clus>
</clustering>
</event>
<event>
 9    1  0.2674825E-005  0.2600636E+03  0.7546771E-02  0.1109923E+00
         -2   -1    0    0    0  501 -0.00000000000E+00  0.00000000000E+00  0.43090239292E+03  0.43090239292E+03  0.00000000000E+00 0.  1.
          1   -1    0    0  502    0  0.00000000000E+00 -0.00000000000E+00 -0.44369676184E+03  0.44369676184E+03  0.00000000000E+00 0. -1.
        -24    2    1    2    0    0 -0.18772206807E+03 -0.15554585019E+03  0.31272945188E+03  0.40448131997E+03  0.79820685150E+02 0.  0.
         23    2    1    2    0    0  0.14687201561E+03  0.17306409726E+03 -0.33634813548E+03  0.42437090534E+03  0.12424985444E+03 0.  0.
         13    1    3    3    0    0 -0.13417016115E+03 -0.63862679835E+02  0.20533245466E+03  0.25345905183E+03  0.00000000000E+00 0. -1.
        -14    1    3    3    0    0 -0.53551906916E+02 -0.91683170352E+02  0.10739699722E+03  0.15102226813E+03  0.00000000000E+00 0.  1.
        -11    1    4    4    0    0  0.83178801694E+02  0.16747963494E+03 -0.20015514797E+03  0.27391645521E+03  0.00000000000E+00 0.  1.
         11    1    4    4    0    0  0.63693213917E+02  0.55844623100E+01 -0.13619298751E+03  0.15045445013E+03  0.00000000000E+00 0. -1.
         21    1    1    2  502  501  0.40850052459E+02 -0.17518247068E+02  0.10824314677E+02  0.45746929454E+02  0.00000000000E+00 0. -1.
<scales pt_clust_5="13000.00000" pt_clust_6="13000.00000" pt_clust_7="13000.00000" pt_clust_8="13000.00000" pt_clust_9="44.44790"></scales>
<clustering>
<clus scale="   44.448">  1  9  2 -1</clus>
<clus scale="   79.821">  5  6 -1 -1</clus>
<clus scale="  124.250">  7  8 -1 -1</clus>
<clus scale="  242.005">  1  5  2 -1</clus>
<clus scale="  260.064">  2  5  1 -1</clus>
</clustering>
</event>
<event>
 9    1  0.2674825E-005  0.2594935E+03  0.7546771E-02  0.1107988E+00
          1   -1    0    0  502    0  0.00000000000E+00  0.00000000000E+00  0.95006069779E+02  0.95006069779E+02  0.00000000000E+00 0. -1.
         -2   -1    0    0    0  501 -0.00000000000E+00 -0.00000000000E+00 -0.87336429848E+03  0.87336429848E+03  0.00000000000E+00 0.  1.
        -24    2    1    2    0    0  0.12308724140E+03 -0.18865159063E+03 -0.35452286881E+03  0.42778426614E+03  0.81074177193E+02 0.  0.
         23    2    1    2    0    0 -0.10356858164E+03  0.23952744467E+03 -0.31739187638E+03  0.42100539387E+03  0.91695641216E+02 0.  0.
         13    1    3    3    0    0  0.10432693259E+03 -0.13348018975E+03 -0.19699409554E+03  0.25982252327E+03  0.00000000000E+00 0. -1.
        -14    1    3    3    0    0  0.18760308807E+02 -0.55171400884E+02 -0.15752877327E+03  0.16796174288E+03  0.00000000000E+00 0.  1.
        -11    1    4    4    0    0 -0.65757931965E+02  0.64155265087E+02 -0.14845194290E+03  0.17457944611E+03  0.00000000000E+00 0. -1.
         11    1    4    4    0    0 -0.37810649674E+02  0.17537217959E+03 -0.16893993349E+03  0.24642594776E+03  0.00000000000E+00 0.  1.
         21    1    1    2  502  501 -0.19518659762E+02 -0.50875854040E+02 -0.10644348351E+03  0.11958070825E+03  0.00000000000E+00 0.  1.
<scales pt_clust_5="13000.00000" pt_clust_6="13000.00000" pt_clust_7="13000.00000" pt_clust_8="13000.00000" pt_clust_9="54.49156"></scales>
<clustering>
<clus scale="   54.492">  2  9  1 -1</clus>
<clus scale="   81.074">  5  6 -1 -1</clus>
<clus scale="   91.696">  7  8 -1 -1</clus>
<clus scale="  255.933">  2  5  1 -1</clus>
<clus scale="  259.494">  1  5  2 -1</clus>
</clustering>
</event>
<event>
 9    1  0.2674825E-005  0.9982711E+02  0.7546771E-02  0.1285507E+00
          3   -1    0    0  502    0  0.00000000000E+00  0.00000000000E+00  0.12330180179E+03  0.12330180179E+03  0.00000000000E+00 0. -1.
         -4   -1    0    0    0  501 -0.00000000000E+00 -0.00000000000E+00 -0.12385757202E+03  0.12385757202E+03  0.00000000000E+00 0.  1.
        -24    2    1    2    0    0  0.31687243898E+02  0.33685643925E+02 -0.61373702483E+02  0.11148955166E+03  0.80773663658E+02 0.  0.
         23    2    1    2    0    0 -0.83708386151E+01 -0.29677739345E+02  0.57982991526E+02  0.11184221330E+03  0.90530736309E+02 0.  0.
         11    1    3    3    0    0  0.35995233127E+02 -0.14368882154E+02 -0.47463138569E+02  0.61277003068E+02  0.00000000000E+00 0. -1.
        -12    1    3    3    0    0 -0.43079892282E+01  0.48054526079E+02 -0.13910563914E+02  0.50212548594E+02  0.00000000000E+00 0.  1.
        -13    1    4    4    0    0 -0.48668984733E+02 -0.13161303064E+02  0.41412639536E+02  0.65244897782E+02  0.00000000000E+00 0.  1.
         13    1    4    4    0    0  0.40298146118E+02 -0.16516436281E+02  0.16570351991E+02  0.46597315513E+02  0.00000000000E+00 0. -1.
         21    1    1    2  502  501 -0.23316405283E+02 -0.40079045798E+01  0.28349407228E+01  0.23827608847E+02  0.00000000000E+00 0.  1.
<scales pt_clust_5="13000.00000" pt_clust_6="13000.00000" pt_clust_7="13000.00000" pt_clust_8="13000.00000" pt_clust_9="23.65836"></scales>
<clustering>
<clus scale="   23.658">  1  9  2 -1</clus>
<clus scale="   80.774">  5  6 -1 -1</clus>
<clus scale="   90.531">  7  8 -1 -1</clus>
<clus scale="   91.072">  2  5  1 -1</clus>
<clus scale="   23.658">  1  5  2 -1</clus>
</clustering>
</event>
<event>
 9    1  0.2674825E-005  0.1510925E+03  0.7546771E-02  0.1201572E+00
         -2   -1    0    0    0  501 -0.00000000000E+00  0.00000000000E+00  0.80307261121E+03  0.80307261121E+03  0.00000000000E+00 0.  1.
          1   -1    0    0  502    0  0.00000000000E+00 -0.00000000000E+00 -0.44013047728E+02  0.44013047728E+02  0.00000000000E+00 0. -1.
         23    2    1    2    0    0  0.67313254416E+02  0.85495009270E+02  0.33961170676E+03  0.36813971692E+03  0.91379806177E+02 0.  0.
        -24    2    1    2    0    0 -0.12731004759E+03 -0.49075035268E+02  0.24649280062E+03  0.29229257042E+03  0.77846250144E+02 0.  0.
         11    1    4    4    0    0 -0.12081937013E+02 -0.39492424423E+02  0.59151925137E+02  0.72142740703E+02  0.00000000000E+00 0. -1.
        -12    1    4    4    0    0 -0.11522811058E+03 -0.95826108456E+01  0.18734087548E+03  0.22014982971E+03  0.00000000000E+00 0.  1.
        -11    1    3    3    0    0 -0.22464752316E+02  0.26015473942E+02  0.79070964453E+02  0.86218834372E+02  0.00000000000E+00 0.  1.
         11    1    3    3    0    0  0.89778006732E+02  0.59479535328E+02  0.26054074231E+03  0.28192088255E+03  0.00000000000E+00 0. -1.
         21    1    1    2  502  501  0.59996793173E+02 -0.36419974002E+02  0.17295505610E+03  0.18665337160E+03  0.00000000000E+00 0. -1.
<scales pt_clust_5="13000.00000" pt_clust_6="13000.00000" pt_clust_7="13000.00000" pt_clust_8="13000.00000" pt_clust_9="70.18568"></scales>
<clustering>
<clus scale="   70.186">  1  9  2 -1</clus>
<clus scale="   77.846">  5  6 -1 -1</clus>
<clus scale="   91.380">  7  8 -1 -1</clus>
<clus scale="  143.313">  2  5  1 -1</clus>
<clus scale="  143.313">  2  5  1 -1</clus>
</clustering>
</event>
<event>
 9    1  0.2674825E-005  0.9746770E+02  0.7546771E-02  0.1292800E+00
          1   -1    0    0  502    0  0.00000000000E+00  0.00000000000E+00  0.32376695168E+03  0.32376695168E+03  0.00000000000E+00 0. -1.
         -2   -1    0    0    0  501 -0.00000000000E+00 -0.00000000000E+00 -0.10143648884E+03  0.10143648884E+03  0.00000000000E+00 0.  1.
         23    2    1    2    0    0 -0.18355180895E+02  0.28786984631E+02 -0.64190805597E+02  0.11727988653E+03  0.92024502776E+02 0.  0.
        -24    2    1    2    0    0  0.99384236657E+01 -0.73520021069E+01  0.26341082930E+03  0.27529852258E+03  0.79064450545E+02 0.  0.
         11    1    4    4    0    0 -0.90148977086E-01 -0.37472906892E+02  0.20875534650E+03  0.21209201204E+03  0.00000000000E+00 0. -1.
        -12    1    4    4    0    0  0.10028572643E+02  0.30120904785E+02  0.54655482801E+02  0.63206510539E+02  0.00000000000E+00 0.  1.
        -13    1    3    3    0    0  0.23649605417E+02  0.42942077741E+01 -0.64310649350E+02  0.68655689324E+02  0.00000000000E+00 0.  1.
         13    1    3    3    0    0 -0.42004786312E+02  0.24492776857E+02  0.11984375279E+00  0.48624197205E+02  0.00000000000E+00 0. -1.
         21    1    1    2  502  501  0.84167572297E+01 -0.21434982524E+02  0.23110439131E+02  0.32625031416E+02  0.00000000000E+00 0. -1.
<scales pt_clust_5="13000.00000" pt_clust_6="13000.00000" pt_clust_7="13000.00000" pt_clust_8="13000.00000" pt_clust_9="23.02825"></scales>
<clustering>
<clus scale="   23.028">  1  9  2 -1</clus>
<clus scale="   79.064">  5  6 -1 -1</clus>
<clus scale="   85.338">  1  5  2 -1</clus>
<clus scale="   92.025">  7  8 -1 -1</clus>
<clus scale="   23.028">  1  5  2 -1</clus>
</clustering>
</event>
<event>
 9    1  0.2674825E-005  0.2799543E+03  0.7546771E-02  0.1096353E+00
         -2   -1    0    0    0  501 -0.00000000000E+00  0.00000000000E+00  0.40935884158E+03  0.40935884158E+03  0.00000000000E+00 0.  1.
          1   -1    0    0  502    0  0.00000000000E+00 -0.00000000000E+00 -0.36054426718E+03  0.36054426718E+03  0.00000000000E+00 0. -1.
        -24    2    1    2    0    0 -0.24764949610E+03 -0.75495135596E+02  0.25457160834E+03  0.37099020069E+03  0.76139587726E+02 0.  0.
         23    2    1    2    0    0  0.28305519958E+03  0.70292128066E+02 -0.18915568751E+03  0.35946370238E+03  0.91504371144E+02 0.  0.
         11    1    3    3    0    0 -0.60760034697E+02 -0.33444590291E+02  0.29324988209E+02  0.75301244144E+02  0.00000000000E+00 0. -1.
        -12    1    3    3    0    0 -0.18688946140E+03 -0.42050545304E+02  0.22524662013E+03  0.29568895655E+03  0.00000000000E+00 0.  1.
        -13    1    4    4    0    0  0.23416030061E+03  0.30947602577E+02 -0.17791276759E+03  0.29570551797E+03  0.00000000000E+00 0. -1.
         13    1    4    4    0    0  0.48894898966E+02  0.39344525489E+02 -0.11242919913E+02  0.63758184408E+02  0.00000000000E+00 0.  1.
         21    1    1    2  502  501 -0.35405703479E+02  0.52030075297E+01 -0.16601346434E+02  0.39449205691E+02  0.00000000000E+00 0. -1.
<scales pt_clust_5="13000.00000" pt_clust_6="13000.00000" pt_clust_7="13000.00000" pt_clust_8="13000.00000" pt_clust_9="35.78596"></scales>
<clustering>
<clus scale="   35.786">  2  9  1 -1</clus>
<clus scale="   76.140">  5  6 -1 -1</clus>
<clus scale="   91.504">  7  8 -1 -1</clus>
<clus scale="  275.315">  1  5  2 -1</clus>
<clus scale="   35.786">  2  5  1 -1</clus>
</clustering>
</event>
<event>
 9    1  0.2674825E-005  0.1023351E+03  0.7546771E-02  0.1282818E+00
          1   -1    0    0  502    0  0.00000000000E+00  0.00000000000E+00  0.15065876918E+03  0.15065876918E+03  0.00000000000E+00 0. -1.
         -2   -1    0    0    0  501 -0.00000000000E+00 -0.00000000000E+00 -0.13784308353E+03  0.13784308353E+03  0.00000000000E+00 0.  1.
        -24    2    1    2    0    0 -0.29310782577E+02 -0.27896445644E+02 -0.83624261355E+02  0.12296166682E+03  0.80555699767E+02 0.  0.
         23    2    1    2    0    0  0.35258561328E+02 -0.32922977758E+01  0.63211582988E+02  0.11958109578E+03  0.95131114109E+02 0.  0.
         11    1    3    3    0    0  0.83460024050E+01  0.24111345453E+02 -0.18575611536E+02  0.31560514566E+02  0.00000000000E+00 0. -1.
        -12    1    3    3    0    0 -0.37656784982E+02 -0.52007791098E+02 -0.65048649819E+02  0.91401152254E+02  0.00000000000E+00 0.  1.
        -11    1    4    4    0    0  0.57368931940E+02 -0.23239776116E+02  0.16285542960E+02  0.64003909688E+02  0.00000000000E+00 0.  1.
         11    1    4    4    0    0 -0.22110370613E+02  0.19947478340E+02  0.46926040028E+02  0.55577186088E+02  0.00000000000E+00 0. -1.
         21    1    1    2  502  501 -0.59477787509E+01  0.31188743420E+02  0.33228364018E+02  0.45959090108E+02  0.00000000000E+00 0. -1.
<scales pt_clust_5="13000.00000" pt_clust_6="13000.00000" pt_clust_7="13000.00000" pt_clust_8="13000.00000" pt_clust_9="31.75081"></scales>
<clustering>
<clus scale="   31.751">  1  9  2 -1</clus>
<clus scale="   80.556">  5  6 -1 -1</clus>
<clus scale="   88.948">  2  5  1 -1</clus>
<clus scale="   95.131">  7  8 -1 -1</clus>
<clus scale="   31.751">  1  5  2 -1</clus>
</clustering>
</event>
<event>
 9    1  0.2674825E-005  0.1347337E+03  0.7546771E-02  0.1224703E+00
          1   -1    0    0  502    0  0.00000000000E+00  0.00000000000E+00  0.36492755956E+03  0.36492755956E+03  0.00000000000E+00 0. -1.
         -2   -1    0    0    0  501 -0.00000000000E+00 -0.00000000000E+00 -0.13343394781E+03  0.13343394781E+03  0.00000000000E+00 0.  1.
        -24    2    1    2    0    0  0.90351968670E+02 -0.52860157157E+02 -0.58493423303E+02  0.14113189663E+03  0.74424842757E+02 0.  0.
         23    2    1    2    0    0 -0.87890011181E+02 -0.24616686223E+02  0.20302933174E+03  0.24073770261E+03  0.91668405711E+02 0.  0.
         13    1    3    3    0    0  0.33158658789E+02  0.17511722121E+02 -0.13087156341E+02  0.39716882121E+02  0.00000000000E+00 0. -1.
        -14    1    3    3    0    0  0.57193309881E+02 -0.70371879279E+02 -0.45406266962E+02  0.10141501451E+03  0.00000000000E+00 0.  1.
        -11    1    4    4    0    0 -0.53809928673E+02 -0.56839887145E+02  0.95866458420E+02  0.12376049064E+03  0.00000000000E+00 0.  1.
         11    1    4    4    0    0 -0.34080082508E+02  0.32223200922E+02  0.10716287332E+03  0.11697721197E+03  0.00000000000E+00 0. -1.
         21    1    1    2  502  501 -0.24619574886E+01  0.77476843380E+02  0.86957703309E+02  0.11649190813E+03  0.00000000000E+00 0. -1.
<scales pt_clust_5="13000.00000" pt_clust_6="13000.00000" pt_clust_7="13000.00000" pt_clust_8="13000.00000" pt_clust_9="77.51595"></scales>
<clustering>
<clus scale="   74.425">  5  6 -1 -1</clus>
<clus scale="   77.516">  1  9  2 -1</clus>
<clus scale="   91.668">  7  8 -1 -1</clus>
<clus scale="  123.649">  2  5  1 -1</clus>
<clus scale="   77.516">  1  5  2 -1</clus>
</clustering>
</event>
<event>
 9    1  0.2674825E-005  0.1014993E+03  0.7546771E-02  0.1280665E+00
         -2   -1    0    0    0  501 -0.00000000000E+00  0.00000000000E+00  0.11382638126E+03  0.11382638126E+03  0.00000000000E+00 0.  1.
          1   -1    0    0  502    0  0.00000000000E+00 -0.00000000000E+00 -0.24346704484E+03  0.24346704484E+03  0.00000000000E+00 0. -1.
         23    2    1    2    0    0  0.51297817234E+02 -0.11882782273E+01  0.61190748211E+02  0.11776592402E+03  0.86554186120E+02 0.  0.
        -24    2    1    2    0    0 -0.57964493549E+02  0.30840295537E+02 -0.98031118983E+02  0.14187720230E+03  0.78791077547E+02 0.  0.
         11    1    4    4    0    0 -0.71247215258E+02  0.31154069691E+01 -0.74765136768E+02  0.10332326514E+03  0.00000000000E+00 0. -1.
        -12    1    4    4    0    0  0.13282721708E+02  0.27724888568E+02 -0.23265982216E+02  0.38553937160E+02  0.00000000000E+00 0.  1.
        -13    1    3    3    0    0  0.28329283668E+02  0.28153762282E+01 -0.19018344572E+02  0.34236998798E+02  0.00000000000E+00 0. -1.
         13    1    3    3    0    0  0.22968533566E+02 -0.40036544555E+01  0.80209092783E+02  0.83528925219E+02  0.00000000000E+00 0.  1.
         21    1    1    2  502  501  0.66666763151E+01 -0.29652017310E+02 -0.92800292803E+02  0.97650299784E+02  0.00000000000E+00 0. -1.
<scales pt_clust_5="13000.00000" pt_clust_6="13000.00000" pt_clust_7="13000.00000" pt_clust_8="13000.00000" pt_clust_9="30.39221"></scales>
<clustering>
<clus scale="   30.392">  2  9  1 -1</clus>
<clus scale="   78.791">  5  6 -1 -1</clus>
<clus scale="   86.554">  7  8 -1 -1</clus>
<clus scale="   94.966">  2  5  1 -1</clus>
<clus scale="   30.392">  2  5  1 -1</clus>
</clustering>
</event>
<event>
 9    1  0.2674825E-005  0.1657990E+03  0.7546771E-02  0.1184195E+00
         -2   -1    0    0    0  501 -0.00000000000E+00  0.00000000000E+00  0.88474276566E+02  0.88474276566E+02  0.00000000000E+00 0.  1.
          1   -1    0    0  502    0  0.00000000000E+00 -0.00000000000E+00 -0.91863158792E+03  0.91863158792E+03  0.00000000000E+00 0. -1.
         23    2    1    2    0    0 -0.13532621029E+03 -0.14036505138E+02 -0.11904606679E+02  0.16530547930E+03  0.93134178247E+02 0.  0.
        -24    2    1    2    0    0  0.14809875740E+03 -0.10947339415E+02 -0.72646866119E+03  0.74582309055E+03  0.80263818262E+02 0.  0.
         13    1    4    4    0    0  0.13662269724E+03 -0.30931368047E+02 -0.67572351546E+03  0.69009041456E+03  0.00000000000E+00 0. -1.
        -14    1    4    4    0    0  0.11476060161E+02  0.19984028632E+02 -0.50745145738E+02  0.55732675991E+02  0.00000000000E+00 0.  1.
        -11    1    3    3    0    0 -0.10020131269E+02 -0.36038498505E+02 -0.65122102073E+01  0.37968214166E+02  0.00000000000E+00 0. -1.
         11    1    3    3    0    0 -0.12530607902E+03  0.22001993367E+02 -0.53923964722E+01  0.12733726513E+03  0.00000000000E+00 0.  1.
         21    1    1    2  502  501 -0.12772547112E+02  0.24983844553E+02 -0.91784043481E+02  0.95977294638E+02  0.00000000000E+00 0.  1.
<scales pt_clust_5="13000.00000" pt_clust_6="13000.00000" pt_clust_7="13000.00000" pt_clust_8="13000.00000" pt_clust_9="28.05941"></scales>
<clustering>
<clus scale="   28.059">  2  9  1 -1</clus>
<clus scale="   80.264">  5  6 -1 -1</clus>
<clus scale="   93.134">  7  8 -1 -1</clus>
<clus scale="  158.926">  2  5  1 -1</clus>
<clus scale="   28.059">  2  5  1 -1</clus>
</clustering>
</event>
<event>
 9    1  0.2674825E-005  0.1068509E+03  0.7546771E-02  0.1277039E+00
          1   -1    0    0  502    0  0.00000000000E+00  0.00000000000E+00  0.53593959623E+02  0.53593959623E+02  0.00000000000E+00 0. -1.
         -2   -1    0    0    0  501 -0.00000000000E+00 -0.00000000000E+00 -0.64191649420E+03  0.64191649420E+03  0.00000000000E+00 0.  1.
         23    2    1    2    0    0 -0.21996465465E+02 -0.20758704864E+02 -0.51871466358E+03  0.52933093838E+03  0.10105232205E+03 0.  0.
        -24    2    1    2    0    0  0.55856243483E+02  0.17082835720E+02 -0.83335946665E+02  0.12945817774E+03  0.80017476615E+02 0.  0.
         13    1    4    4    0    0  0.74612673469E+02  0.18086645401E+01 -0.66747150078E+02  0.10012744056E+03  0.00000000000E+00 0. -1.
        -14    1    4    4    0    0 -0.18756429986E+02  0.15274171180E+02 -0.16588796587E+02  0.29330737175E+02  0.00000000000E+00 0.  1.
        -13    1    3    3    0    0 -0.53374949156E+02 -0.39614255379E+02 -0.38499332172E+03  0.39068917594E+03  0.00000000000E+00 0.  1.
         13    1    3    3    0    0  0.31378483691E+02  0.18855550514E+02 -0.13372134186E+03  0.13864176244E+03  0.00000000000E+00 0. -1.
         21    1    1    2  502  501 -0.33859778018E+02  0.36758691447E+01  0.13728075668E+02  0.36721337707E+02  0.00000000000E+00 0. -1.
<scales pt_clust_5="13000.00000" pt_clust_6="13000.00000" pt_clust_7="13000.00000" pt_clust_8="13000.00000" pt_clust_9="34.05872"></scales>
<clustering>
<clus scale="   34.059">  1  9  2 -1</clus>
<clus scale="   80.017">  5  6 -1 -1</clus>
<clus scale="   87.226">  1  5  2 -1</clus>
<clus scale="  101.052">  7  8 -1 -1</clus>
<clus scale="   34.059">  1  5  2 -1</clus>
</clustering>
</event>
<event>
 9    1  0.2674825E-005  0.1562715E+03  0.7546771E-02  0.1193762E+00
          1   -1    0    0  502    0  0.00000000000E+00  0.00000000000E+00  0.30599551415E+03  0.30599551415E+03  0.00000000000E+00 0. -1.
         -2   -1    0    0    0  501 -0.00000000000E+00 -0.00000000000E+00 -0.20386304296E+03  0.20386304296E+03  0.00000000000E+00 0.  1.
        -24    2    1    2    0    0 -0.14077222777E+03 -0.64238838823E+02 -0.11524911717E+03  0.20870985692E+03  0.79586411162E+02 0.  0.
         23    2    1    2    0    0  0.43969766215E+02  0.57068196367E+02  0.10974427665E+03  0.15620758957E+03  0.84657459227E+02 0.  0.
         11    1    3    3    0    0 -0.20654971176E+02  0.11621360581E+01  0.10250293146E+02  0.23087808560E+02  0.00000000000E+00 0. -1.
        -12    1    3    3    0    0 -0.12011725659E+03 -0.65400974881E+02 -0.12549941032E+03  0.18562204836E+03  0.00000000000E+00 0.  1.
        -11    1    4    4    0    0  0.20120697793E+01  0.21205940468E+02 -0.10612168144E+02  0.23798286675E+02  0.00000000000E+00 0.  1.
         11    1    4    4    0    0  0.41957696435E+02  0.35862255898E+02  0.12035644480E+03  0.13240930289E+03  0.00000000000E+00 0. -1.
         21    1    1    2  502  501  0.96802461554E+02  0.71706424566E+01  0.10763731171E+03  0.14494111062E+03  0.00000000000E+00 0. -1.
<scales pt_clust_5="13000.00000" pt_clust_6="13000.00000" pt_clust_7="13000.00000" pt_clust_8="13000.00000" pt_clust_9="97.06768"></scales>
<clustering>
<clus scale="   79.586">  5  6 -1 -1</clus>
<clus scale="   84.657">  7  8 -1 -1</clus>
<clus scale="   97.068">  1  9  2 -1</clus>
<clus scale="  153.583">  2  5  1 -1</clus>
<clus scale="   97.068">  1  5  2 -1</clus>
</clustering>
</event>
<event>
 9    1  0.2674825E-005  0.9592606E+02  0.7546771E-02  0.1293025E+00
          1   -1    0    0  502    0  0.00000000000E+00  0.00000000000E+00  0.24767320803E+03  0.24767320803E+03  0.00000000000E+00 0. -1.
         -2   -1    0    0    0  501 -0.00000000000E+00 -0.00000000000E+00 -0.70515762550E+02  0.70515762550E+02  0.00000000000E+00 0.  1.
        -24    2    1    2    0    0 -0.37921359247E+02 -0.52942652688E+01  0.30993979064E+02  0.97252422716E+02  0.83853135028E+02 0.  0.
         23    2    1    2    0    0  0.30789323362E+01 -0.43617747952E+02  0.11578209870E+03  0.15363567674E+03  0.91029879855E+02 0.  0.
         11    1    3    3    0    0 -0.43126803233E+02 -0.76119932274E+01  0.56291912716E+02  0.71320705515E+02  0.00000000000E+00 0. -1.
        -12    1    3    3    0    0  0.52054439858E+01  0.23177279585E+01 -0.25297933651E+02  0.25931717201E+02  0.00000000000E+00 0.  1.
        -11    1    4    4    0    0  0.21457857612E+02 -0.21914276060E+02  0.12090814782E+03  0.12473754590E+03  0.00000000000E+00 0. -1.
         11    1    4    4    0    0 -0.18378925276E+02 -0.21703471892E+02 -0.51260491145E+01  0.28898130839E+02  0.00000000000E+00 0.  1.
         21    1    1    2  502  501  0.34842426911E+02  0.48912013221E+02  0.30381367716E+02  0.67300871128E+02  0.00000000000E+00 0.  1.
<scales pt_clust_5="13000.00000" pt_clust_6="13000.00000" pt_clust_7="13000.00000" pt_clust_8="13000.00000" pt_clust_9="60.05314"></scales>
<clustering>
<clus scale="   60.053">  2  9  1 -1</clus>
<clus scale="   83.853">  5  6 -1 -1</clus>
<clus scale="   89.144">  2  5  1 -1</clus>
<clus scale="   91.030">  7  8 -1 -1</clus>
<clus scale="   95.926">  1  5  2 -1</clus>
</clustering>
</event>
<event>
 9    1  0.2674825E-005  0.1036097E+03  0.7546771E-02  0.1280328E+00
          1   -1    0    0  502    0  0.00000000000E+00  0.00000000000E+00  0.84993749496E+02  0.84993749496E+02  0.00000000000E+00 0. -1.
         -2   -1    0    0    0  501 -0.00000000000E+00 -0.00000000000E+00 -0.16174743254E+03  0.16174743254E+03  0.00000000000E+00 0.  1.
        -24    2    1    2    0    0 -0.36560027567E+02  0.38162125100E+02 -0.58501035076E+02  0.11272323986E+03  0.80567824175E+02 0.  0.
         23    2    1    2    0    0  0.19729253387E+02 -0.95978619755E+01 -0.22195034681E+02  0.10063030224E+03  0.95668572539E+02 0.  0.
         13    1    3    3    0    0  0.19069767696E+02 -0.10584311582E+02 -0.18698902739E+02  0.28728603434E+02  0.00000000000E+00 0. -1.
        -14    1    3    3    0    0 -0.55629795263E+02  0.48746436682E+02 -0.39802132337E+02  0.83994636428E+02  0.00000000000E+00 0.  1.
        -11    1    4    4    0    0 -0.38518747525E+02  0.61688382086E+00 -0.38614768990E+01  0.38716733596E+02  0.00000000000E+00 0.  1.
         11    1    4    4    0    0  0.58248000911E+02 -0.10214745796E+02 -0.18333557782E+02  0.61913568649E+02  0.00000000000E+00 0. -1.
         21    1    1    2  502  501  0.16830774180E+02 -0.28564263125E+02  0.39423867079E+01  0.33387639933E+02  0.00000000000E+00 0. -1.
<scales pt_clust_5="13000.00000" pt_clust_6="13000.00000" pt_clust_7="13000.00000" pt_clust_8="13000.00000" pt_clust_9="33.15407"></scales>
<clustering>
<clus scale="   33.154">  1  9  2 -1</clus>
<clus scale="   80.568">  5  6 -1 -1</clus>
<clus scale="   89.854">  2  5  1 -1</clus>
<clus scale="   95.669">  7  8 -1 -1</clus>
<clus scale="   33.154">  1  5  2 -1</clus>
</clustering>
</event>
<event>
 9    1  0.2674825E-005  0.1570528E+03  0.7546771E-02  0.1194276E+00
          1   -1    0    0  502    0  0.00000000000E+00  0.00000000000E+00  0.50215933137E+03  0.50215933137E+03  0.00000000000E+00 0. -1.
         -2   -1    0    0    0  501 -0.00000000000E+00 -0.00000000000E+00 -0.82308092746E+02  0.82308092746E+02  0.00000000000E+00 0.  1.
        -24    2    1    2    0    0  0.79360130395E+02  0.84121887962E+02  0.60455664714E+02  0.15145174920E+03  0.76864963468E+02 0.  0.
         23    2    1    2    0    0 -0.12764470397E+03 -0.10527089896E+03  0.27296406366E+03  0.33177790195E+03  0.90510019087E+02 0.  0.
         13    1    3    3    0    0  0.43031382056E+02  0.71591002755E+02  0.73097661588E+02  0.11099657493E+03  0.00000000000E+00 0. -1.
        -14    1    3    3    0    0  0.36328748339E+02  0.12530885207E+02 -0.12641996874E+02  0.40455174267E+02  0.00000000000E+00 0.  1.
        -13    1    4    4    0    0 -0.66335599852E+02 -0.79223729959E+02  0.89871080454E+02  0.13694386550E+03  0.00000000000E+00 0.  1.
         13    1    4    4    0    0 -0.61309104116E+02 -0.26047168998E+02  0.18309298321E+03  0.19483403645E+03  0.00000000000E+00 0. -1.
         21    1    1    2  502  501  0.48284573573E+02  0.21149010995E+02  0.86431510254E+02  0.10123777297E+03  0.00000000000E+00 0. -1.
<scales pt_clust_5="13000.00000" pt_clust_6="13000.00000" pt_clust_7="13000.00000" pt_clust_8="13000.00000" pt_clust_9="52.71319"></scales>
<clustering>
<clus scale="   52.713">  1  9  2 -1</clus>
<clus scale="   76.865">  5  6 -1 -1</clus>
<clus scale="   90.510">  7  8 -1 -1</clus>
<clus scale="  149.605">  2  5  1 -1</clus>
<clus scale="   52.713">  1  5  2 -1</clus>
</clustering>
</event>
<event>
 9    1  0.2674825E-005  0.1701830E+03  0.7546771E-02  0.1179055E+00
         -4   -1    0    0    0  501 -0.00000000000E+00  0.00000000000E+00  0.12554954928E+03  0.12554954928E+03  0.00000000000E+00 0.  1.
          3   -1    0    0  502    0  0.00000000000E+00 -0.00000000000E+00 -0.73686296798E+03  0.73686296798E+03  0.00000000000E+00 0. -1.
        -24    2    1    2    0    0 -0.10762201282E+03 -0.92690308486E+02  0.43367421489E+02  0.16944848709E+03  0.81596970531E+02 0.  0.
         23    2    1    2    0    0  0.89323744998E+02  0.13049413773E+03 -0.48978544234E+03  0.52280396334E+03  0.91797348293E+02 0.  0.
         11    1    3    3    0    0 -0.22336304143E+02 -0.39440303213E+02 -0.21115206755E+02  0.50002999476E+02  0.00000000000E+00 0. -1.
        -12    1    3    3    0    0 -0.85285708677E+02 -0.53250005273E+02  0.64482628244E+02  0.11944548761E+03  0.00000000000E+00 0.  1.
        -11    1    4    4    0    0  0.85528835318E+02  0.66390902003E+02 -0.38474741720E+03  0.39969176697E+03  0.00000000000E+00 0. -1.
         11    1    4    4    0    0  0.37949096794E+01  0.64103235729E+02 -0.10503802514E+03  0.12311219637E+03  0.00000000000E+00 0.  1.
         21    1    1    2  502  501  0.18298267822E+02 -0.37803829246E+02 -0.16489539785E+03  0.17016006682E+03  0.00000000000E+00 0. -1.
<scales pt_clust_5="13000.00000" pt_clust_6="13000.00000" pt_clust_7="13000.00000" pt_clust_8="13000.00000" pt_clust_9="41.99948"></scales>
<clustering>
<clus scale="   41.999">  2  9  1 -1</clus>
<clus scale="   81.597">  5  6 -1 -1</clus>
<clus scale="   91.797">  7  8 -1 -1</clus>
<clus scale="  164.905">  1  5  2 -1</clus>
<clus scale="   41.999">  2  5  1 -1</clus>
</clustering>
</event>
<event>
 9    1  0.2674825E-005  0.2710467E+03  0.7546771E-02  0.1101275E+00
          1   -1    0    0  502    0  0.00000000000E+00  0.00000000000E+00  0.21784546264E+03  0.21784546264E+03  0.00000000000E+00 0. -1.
         -2   -1    0    0    0  501 -0.00000000000E+00 -0.00000000000E+00 -0.44676041999E+03  0.44676041999E+03  0.00000000000E+00 0.  1.
        -24    2    1    2    0    0  0.56895951206E+02  0.25476562900E+03 -0.26328726754E+03  0.37910172180E+03  0.79090171564E+02 0.  0.
         23    2    1    2    0    0 -0.39699836188E+02 -0.23700912290E+03  0.23240253524E+02  0.25839470553E+03  0.92077755902E+02 0.  0.
         11    1    3    3    0    0  0.23879685404E+02  0.58241901957E+02 -0.23200176527E+02  0.67086561318E+02  0.00000000000E+00 0. -1.
        -12    1    3    3    0    0  0.33016265802E+02  0.19652372705E+03 -0.24008709101E+03  0.31201516048E+03  0.00000000000E+00 0.  1.
        -11    1    4    4    0    0 -0.30647013081E+02 -0.57324901381E+02 -0.28814707810E+02  0.71103242650E+02  0.00000000000E+00 0.  1.
         11    1    4    4    0    0 -0.90528231071E+01 -0.17968422152E+03  0.52054961334E+02  0.18729146288E+03  0.00000000000E+00 0. -1.
         21    1    1    2  502  501 -0.17196115018E+02 -0.17756506103E+02  0.11132056662E+02  0.27109455292E+02  0.00000000000E+00 0. -1.
<scales pt_clust_5="13000.00000" pt_clust_6="13000.00000" pt_clust_7="13000.00000" pt_clust_8="13000.00000" pt_clust_9="24.71841"></scales>
<clustering>
<clus scale="   24.718">  1  9  2 -1</clus>
<clus scale="   79.090">  5  6 -1 -1</clus>
<clus scale="   92.078">  7  8 -1 -1</clus>
<clus scale="  266.914">  2  5  1 -1</clus>
<clus scale="   24.718">  1  5  2 -1</clus>
</clustering>
</event>
<event>
 9    1  0.2674825E-005  0.9675216E+02  0.7546771E-02  0.1291503E+00
          3   -1    0    0  502    0  0.00000000000E+00  0.00000000000E+00  0.27685009837E+03  0.27685009837E+03  0.00000000000E+00 0. -1.
         -4   -1    0    0    0  501 -0.00000000000E+00 -0.00000000000E+00 -0.58250855797E+02  0.58250855797E+02  0.00000000000E+00 0.  1.
        -24    2    1    2    0    0 -0.34679107265E+02 -0.17384200858E+02  0.42755331536E+01  0.91206190936E+02  0.82434447661E+02 0.  0.
         23    2    1    2    0    0  0.13414981743E+02  0.16849100887E+02  0.15311136302E+03  0.17909197997E+03  0.90371421749E+02 0.  0.
         11    1    3    3    0    0 -0.47441744974E+02  0.96042847903E+01  0.25371726443E+02  0.54650580557E+02  0.00000000000E+00 0. -1.
        -12    1    3    3    0    0  0.12762637709E+02 -0.26988485648E+02 -0.21096193290E+02  0.36555610379E+02  0.00000000000E+00 0.  1.
        -11    1    4    4    0    0  0.17460737501E+02  0.51094787998E+02  0.11855979708E+03  0.13027655275E+03  0.00000000000E+00 0. -1.
         11    1    4    4    0    0 -0.40457557581E+01 -0.34245687111E+02  0.34551565941E+02  0.48815427216E+02  0.00000000000E+00 0.  1.
         21    1    1    2  502  501  0.21264125522E+02  0.53509997008E+00  0.61212346403E+02  0.64802783261E+02  0.00000000000E+00 0. -1.
<scales pt_clust_5="13000.00000" pt_clust_6="13000.00000" pt_clust_7="13000.00000" pt_clust_8="13000.00000" pt_clust_9="21.27086"></scales>
<clustering>
<clus scale="   21.271">  1  9  2 -1</clus>
<clus scale="   82.434">  5  6 -1 -1</clus>
<clus scale="   89.384">  2  5  1 -1</clus>
<clus scale="   90.371">  7  8 -1 -1</clus>
<clus scale="   21.271">  1  5  2 -1</clus>
</clustering>
</event>
<event>
 9    1  0.2674825E-005  0.1926188E+03  0.7546771E-02  0.1157531E+00
         -2   -1    0    0    0  501 -0.00000000000E+00  0.00000000000E+00  0.38064179888E+02  0.38064179888E+02  0.00000000000E+00 0.  1.
          1   -1    0    0  502    0  0.00000000000E+00 -0.00000000000E+00 -0.11707840239E+04  0.11707840239E+04  0.00000000000E+00 0. -1.
        -24    2    1    2    0    0  0.11019899315E+03  0.12193424790E+03 -0.35962745343E+03  0.40336895744E+03  0.79767359641E+02 0.  0.
         23    2    1    2    0    0 -0.10382949640E+03 -0.14192713317E+03 -0.62641146470E+03  0.65730509216E+03  0.93460075018E+02 0.  0.
         11    1    3    3    0    0  0.24259919293E+02 -0.75143307352E+01 -0.73664514277E+02  0.77919634972E+02  0.00000000000E+00 0. -1.
        -12    1    3    3    0    0  0.85939073853E+02  0.12944857864E+03 -0.28596293916E+03  0.32544932247E+03  0.00000000000E+00 0.  1.
        -11    1    4    4    0    0 -0.47235012852E+02 -0.11765558724E+02 -0.88727622126E+02  0.10120358561E+03  0.00000000000E+00 0.  1.
         11    1    4    4    0    0 -0.56594483552E+02 -0.13016157445E+03 -0.53768384257E+03  0.55610150656E+03  0.00000000000E+00 0. -1.
         21    1    1    2  502  501 -0.63694967430E+01  0.19992885269E+02 -0.14668092588E+03  0.14817415418E+03  0.00000000000E+00 0. -1.
<scales pt_clust_5="13000.00000" pt_clust_6="13000.00000" pt_clust_7="13000.00000" pt_clust_8="13000.00000" pt_clust_9="20.98299"></scales>
<clustering>
<clus scale="   20.983">  2  9  1 -1</clus>
<clus scale="   79.767">  5  6 -1 -1</clus>
<clus scale="   93.460">  7  8 -1 -1</clus>
<clus scale="  186.360">  1  5  2 -1</clus>
<clus scale="   20.983">  2  5  1 -1</clus>
</clustering>
</event>
<event>
 9    1  0.2674825E-005  0.1011552E+03  0.7546771E-02  0.1283865E+00
         -4   -1    0    0    0  501 -0.00000000000E+00  0.00000000000E+00  0.25009499568E+02  0.25009499568E+02  0.00000000000E+00 0.  1.
          3   -1    0    0  502    0  0.00000000000E+00 -0.00000000000E+00 -0.52370802479E+03  0.52370802479E+03  0.00000000000E+00 0. -1.
        -24    2    1    2    0    0 -0.64175543840E+01  0.42409507664E+02 -0.12403863038E+03  0.15392316988E+03  0.80417716051E+02 0.  0.
         23    2    1    2    0    0  0.25367633646E+02 -0.32154202245E+02 -0.27959419748E+03  0.29731736433E+03  0.92451556549E+02 0.  0.
         13    1    3    3    0    0  0.30231817728E+02  0.18066056116E+02 -0.94710692452E+02  0.10104682306E+03  0.00000000000E+00 0. -1.
        -14    1    3    3    0    0 -0.36649372112E+02  0.24343451548E+02 -0.29327937927E+02  0.52876346815E+02  0.00000000000E+00 0.  1.
        -13    1    4    4    0    0  0.13410584218E+02  0.32599795010E+02 -0.94816365898E+02  0.10115697527E+03  0.00000000000E+00 0.  1.
         13    1    4    4    0    0  0.11957049427E+02 -0.64753997255E+02 -0.18477783158E+03  0.19616038906E+03  0.00000000000E+00 0. -1.
         21    1    1    2  502  501 -0.18950079262E+02 -0.10255305418E+02 -0.95065697361E+02  0.97476990146E+02  0.00000000000E+00 0.  1.
<scales pt_clust_5="13000.00000" pt_clust_6="13000.00000" pt_clust_7="13000.00000" pt_clust_8="13000.00000" pt_clust_9="21.54708"></scales>
<clustering>
<clus scale="   21.547">  2  9  1 -1</clus>
<clus scale="   80.418">  5  6 -1 -1</clus>
<clus scale="   90.289">  1  5  2 -1</clus>
<clus scale="   92.452">  7  8 -1 -1</clus>
<clus scale="   21.547">  2  5  1 -1</clus>
</clustering>
</event>
<event>
 9    1  0.2674825E-005  0.1293075E+03  0.7546771E-02  0.1230958E+00
         -2   -1    0    0    0  501 -0.00000000000E+00  0.00000000000E+00  0.17337515850E+03  0.17337515850E+03  0.00000000000E+00 0.  1.
          1   -1    0    0  502    0  0.00000000000E+00 -0.00000000000E+00 -0.23449721931E+03  0.23449721931E+03  0.00000000000E+00 0. -1.
        -24    2    1    2    0    0  0.84649456591E+02  0.85600990775E+00  0.11518402523E+03  0.17417155674E+03  0.99509337526E+02 0.  0.
         23    2    1    2    0    0 -0.73285077279E+02  0.17855766198E+02 -0.10161231590E+03  0.15586484623E+03  0.90990420422E+02 0.  0.
         13    1    3    3    0    0  0.10543531690E+03 -0.56384853130E+01  0.78726064785E+02  0.13170494236E+03  0.00000000000E+00 0. -1.
        -14    1    3    3    0    0 -0.20785860307E+02  0.64944952207E+01  0.36457960450E+02  0.42466614381E+02  0.00000000000E+00 0.  1.
        -13    1    4    4    0    0 -0.56593223614E+02 -0.26442844135E+02 -0.28255031452E+02  0.68559198999E+02  0.00000000000E+00 0.  1.
         13    1    4    4    0    0 -0.16691853665E+02  0.44298610334E+02 -0.73357284452E+02  0.87305647231E+02  0.00000000000E+00 0. -1.
         21    1    1    2  502  501 -0.11364379311E+02 -0.18711776106E+02 -0.74693770134E+02  0.77835974838E+02  0.00000000000E+00 0.  1.
<scales pt_clust_5="13000.00000" pt_clust_6="13000.00000" pt_clust_7="13000.00000" pt_clust_8="13000.00000" pt_clust_9="21.89246"></scales>
<clustering>
<clus scale="   21.892">  2  9  1 -1</clus>
<clus scale="   90.990">  7  8 -1 -1</clus>
<clus scale="   99.509">  5  6 -1 -1</clus>
<clus scale="  122.872">  2  7  1 -1</clus>
<clus scale="   21.892">  2  5  1 -1</clus>
</clustering>
</event>
<event>
 9    1  0.2674825E-005  0.1301133E+03  0.7546771E-02  0.1229303E+00
          3   -1    0    0  502    0  0.00000000000E+00  0.00000000000E+00  0.98404289240E+02  0.98404289240E+02  0.00000000000E+00 0. -1.
         -4   -1    0    0    0  501 -0.00000000000E+00 -0.00000000000E+00 -0.23988037467E+03  0.23988037467E+03  0.00000000000E+00 0.  1.
        -24    2    1    2    0    0 -0.76336338066E+02 -0.67013717206E+02 -0.14437558942E+03  0.19424435464E+03  0.81046182422E+02 0.  0.
         23    2    1    2    0    0  0.65238887453E+02  0.45400460897E+02 -0.15075958837E+01  0.11934802733E+03  0.89018899660E+02 0.  0.
         11    1    3    3    0    0 -0.76432462062E+02 -0.21463810303E+02 -0.64476492339E+02  0.10227333217E+03  0.00000000000E+00 0. -1.
        -12    1    3    3    0    0  0.96123995538E-01 -0.45549906903E+02 -0.79899097083E+02  0.91971022466E+02  0.00000000000E+00 0.  1.
        -13    1    4    4    0    0  0.16638093579E+02 -0.22634545687E+02 -0.19016949363E+02  0.33923342693E+02  0.00000000000E+00 0.  1.
         13    1    4    4    0    0  0.48600793875E+02  0.68035006584E+02  0.17509353479E+02  0.85424684638E+02  0.00000000000E+00 0. -1.
         21    1    1    2  502  501  0.11097450613E+02  0.21613256309E+02  0.44070998715E+01  0.24692281945E+02  0.00000000000E+00 0. -1.
<scales pt_clust_5="13000.00000" pt_clust_6="13000.00000" pt_clust_7="13000.00000" pt_clust_8="13000.00000" pt_clust_9="24.29581"></scales>
<clustering>
<clus scale="   24.296">  1  9  2 -1</clus>
<clus scale="   81.046">  5  6 -1 -1</clus>
<clus scale="   89.019">  7  8 -1 -1</clus>
<clus scale="  124.794">  2  5  1 -1</clus>
<clus scale="   24.296">  1  5  2 -1</clus>
</clustering>
</event>
<event>
 9    1  0.2674825E-005  0.1253848E+03  0.7546771E-02  0.1237759E+00
         -2   -1    0    0    0  501 -0.00000000000E+00  0.00000000000E+00  0.55290176601E+03  0.55290176601E+03  0.00000000000E+00 0.  1.
          1   -1    0    0  502    0  0.00000000000E+00 -0.00000000000E+00 -0.12891961223E+03  0.12891961223E+03  0.00000000000E+00 0. -1.
         23    2    1    2    0    0 -0.17199397903E+01 -0.87699173282E+02  0.49815327608E+03  0.51406035765E+03  0.91691120914E+02 0.  0.
        -24    2    1    2    0    0 -0.22833010121E+02  0.57159501203E+02 -0.78983425286E+02  0.12828093472E+03  0.80181430609E+02 0.  0.
         11    1    4    4    0    0  0.13553741033E+02  0.55500368894E+02 -0.70750572339E+02  0.90937551812E+02  0.00000000000E+00 0. -1.
        -12    1    4    4    0    0 -0.36386751154E+02  0.16591323089E+01 -0.82328529474E+01  0.37343382911E+02  0.00000000000E+00 0.  1.
        -11    1    3    3    0    0 -0.42861437568E+02 -0.61214280107E+02  0.24197404770E+03  0.25325033205E+03  0.00000000000E+00 0.  1.
         11    1    3    3    0    0  0.41141497777E+02 -0.26484893175E+02  0.25617922837E+03  0.26081002561E+03  0.00000000000E+00 0. -1.
         21    1    1    2  502  501  0.24552949911E+02  0.30539672079E+02  0.48123029825E+01  0.39480085867E+02  0.00000000000E+00 0. -1.
<scales pt_clust_5="13000.00000" pt_clust_6="13000.00000" pt_clust_7="13000.00000" pt_clust_8="13000.00000" pt_clust_9="39.18570"></scales>
<clustering>
<clus scale="   39.186">  2  9  1 -1</clus>
<clus scale="   80.181">  5  6 -1 -1</clus>
<clus scale="   91.691">  7  8 -1 -1</clus>
<clus scale="  117.231">  2  5  1 -1</clus>
<clus scale="   39.186">  2  5  1 -1</clus>
</clustering>
</event>
<event>
 9    1  0.2674825E-005  0.1187819E+03  0.7546771E-02  0.1248379E+00
          1   -1    0    0  502    0  0.00000000000E+00  0.00000000000E+00  0.26186459323E+03  0.26186459323E+03  0.00000000000E+00 0. -1.
         -2   -1    0    0    0  501 -0.00000000000E+00 -0.00000000000E+00 -0.91559956354E+02  0.91559956354E+02  0.00000000000E+00 0.  1.
         23    2    1    2    0    0 -0.19480959019E+02  0.84409776886E+02 -0.13090386423E+02  0.12549798310E+03  0.89854701315E+02 0.  0.
        -24    2    1    2    0    0  0.58226367717E+01 -0.57930893531E+02  0.10506735337E+03  0.14412379262E+03  0.79640613571E+02 0.  0.
         11    1    4    4    0    0  0.28654846457E+02 -0.49990709623E+02  0.10520369778E+03  0.11994994498E+03  0.00000000000E+00 0. -1.
        -12    1    4    4    0    0 -0.22832209686E+02 -0.79401839082E+01 -0.13634441457E+00  0.24173847634E+02  0.00000000000E+00 0.  1.
        -11    1    3    3    0    0 -0.43677687677E+02  0.72029410219E+02  0.15936923606E+02  0.85731918626E+02  0.00000000000E+00 0. -1.
         11    1    3    3    0    0  0.24196728659E+02  0.12380366668E+02 -0.29027310029E+02  0.39766064478E+02  0.00000000000E+00 0.  1.
         21    1    1    2  502  501  0.13658322247E+02 -0.26478883355E+02  0.78327669927E+02  0.83802773859E+02  0.00000000000E+00 0.  1.
<scales pt_clust_5="13000.00000" pt_clust_6="13000.00000" pt_clust_7="13000.00000" pt_clust_8="13000.00000" pt_clust_9="29.79398"></scales>
<clustering>
<clus scale="   29.794">  1  9  2 -1</clus>
<clus scale="   79.641">  5  6 -1 -1</clus>
<clus scale="   89.855">  7  8 -1 -1</clus>
<clus scale="  111.256">  1  5  2 -1</clus>
<clus scale="   29.794">  1  5  2 -1</clus>
</clustering>
</event>
<event>
 9    1  0.2674825E-005  0.9879697E+02  0.7546771E-02  0.1286383E+00
         -2   -1    0    0    0  501 -0.00000000000E+00  0.00000000000E+00  0.15415119734E+03  0.15415119734E+03  0.00000000000E+00 0.  1.
          1   -1    0    0  502    0  0.00000000000E+00 -0.00000000000E+00 -0.12664308072E+03  0.12664308072E+03  0.00000000000E+00 0. -1.
         23    2    1    2    0    0 -0.17946178626E+02 -0.33229404590E+02  0.10428515497E+03  0.14395735326E+03  0.91771822230E+02 0.  0.
        -24    2    1    2    0    0 -0.25596483823E+01  0.36168592135E+02 -0.58919651583E+02  0.10948707970E+03  0.84859745585E+02 0.  0.
         13    1    4    4    0    0 -0.16668406429E+02  0.41586481085E+02 -0.75035525558E+02  0.87393370902E+02  0.00000000000E+00 0. -1.
        -14    1    4    4    0    0  0.14108758047E+02 -0.54178889499E+01  0.16115873975E+02  0.22093708794E+02  0.00000000000E+00 0.  1.
        -11    1    3    3    0    0  0.18216338702E+02 -0.26365160838E+02  0.10218176885E+03  0.10708907781E+03  0.00000000000E+00 0.  1.
         11    1    3    3    0    0 -0.36162517327E+02 -0.68642437520E+01  0.21033861212E+01  0.36868275453E+02  0.00000000000E+00 0. -1.
         21    1    1    2  502  501  0.20505827008E+02 -0.29391875458E+01 -0.17857386768E+02  0.27349845098E+02  0.00000000000E+00 0. -1.
<scales pt_clust_5="13000.00000" pt_clust_6="13000.00000" pt_clust_7="13000.00000" pt_clust_8="13000.00000" pt_clust_9="20.71540"></scales>
<clustering>
<clus scale="   20.715">  2  9  1 -1</clus>
<clus scale="   84.860">  5  6 -1 -1</clus>
<clus scale="   91.772">  7  8 -1 -1</clus>
<clus scale="   92.412">  2  5  1 -1</clus>
<clus scale="   20.715">  2  5  1 -1</clus>
</clustering>
</event>
<event>
 9    1  0.2674825E-005  0.1173557E+03  0.7546771E-02  0.1249777E+00
         -4   -1    0    0    0  501 -0.00000000000E+00  0.00000000000E+00  0.82954522397E+02  0.82954522397E+02  0.00000000000E+00 0.  1.
          3   -1    0    0  502    0  0.00000000000E+00 -0.00000000000E+00 -0.35075886164E+03  0.35075886164E+03  0.00000000000E+00 0. -1.
        -24    2    1    2    0    0  0.64789610773E+02  0.29453125451E+02 -0.74402917343E+01  0.10732389986E+03  0.79986756882E+02 0.  0.
         23    2    1    2    0    0 -0.78234928590E+02 -0.59181971299E+02 -0.10611894507E+03  0.16873120665E+03  0.87096382345E+02 0.  0.
         13    1    3    3    0    0  0.25475215998E+02  0.43970425458E+02  0.22745683186E+02  0.55675407934E+02  0.00000000000E+00 0. -1.
        -14    1    3    3    0    0  0.39314394775E+02 -0.14517300007E+02 -0.30185974920E+02  0.51648491923E+02  0.00000000000E+00 0.  1.
        -11    1    4    4    0    0 -0.64128724690E+02 -0.79120073111E+02 -0.64735038866E+02  0.12067768873E+03  0.00000000000E+00 0.  1.
         11    1    4    4    0    0 -0.14106203900E+02  0.19938101813E+02 -0.41383906205E+02  0.48053517927E+02  0.00000000000E+00 0. -1.
         21    1    1    2  502  501  0.13445317817E+02  0.29728845848E+02 -0.15424510244E+03  0.15765827753E+03  0.00000000000E+00 0. -1.
<scales pt_clust_5="13000.00000" pt_clust_6="13000.00000" pt_clust_7="13000.00000" pt_clust_8="13000.00000" pt_clust_9="32.62792"></scales>
<clustering>
<clus scale="   32.628">  2  9  1 -1</clus>
<clus scale="   79.987">  5  6 -1 -1</clus>
<clus scale="   87.096">  7  8 -1 -1</clus>
<clus scale="  112.180">  1  5  2 -1</clus>
<clus scale="   32.628">  2  5  1 -1</clus>
</clustering>
</event>
<event>
 9    1  0.2674825E-005  0.1684952E+03  0.7546771E-02  0.1180713E+00
         -2   -1    0    0    0  501 -0.00000000000E+00  0.00000000000E+00  0.14587713976E+03  0.14587713976E+03  0.00000000000E+00 0.  1.
          1   -1    0    0  502    0  0.00000000000E+00 -0.00000000000E+00 -0.36435234308E+03  0.36435234308E+03  0.00000000000E+00 0. -1.
         23    2    1    2    0    0 -0.14049601873E+03  0.48677499538E+02  0.55353502420E+02  0.18221521774E+03  0.89608845021E+02 0.  0.
        -24    2    1    2    0    0  0.11018623551E+03 -0.53249841461E+02 -0.19781360041E+03  0.24605155707E+03  0.80215934292E+02 0.  0.
         11    1    4    4    0    0  0.45571230612E+02 -0.19845645685E+02 -0.15239803323E+03  0.16029893089E+03  0.00000000000E+00 0. -1.
        -12    1    4    4    0    0  0.64615004902E+02 -0.33404195776E+02 -0.45415567187E+02  0.85752626180E+02  0.00000000000E+00 0.  1.
        -11    1    3    3    0    0 -0.10397463932E+03  0.26514603272E+02  0.79130167703E+02  0.13332416603E+03  0.00000000000E+00 0.  1.
         11    1    3    3    0    0 -0.36521379410E+02  0.22162896267E+02 -0.23776665283E+02  0.48891051706E+02  0.00000000000E+00 0. -1.
         21    1    1    2  502  501  0.30309783215E+02  0.45723419221E+01 -0.76015105332E+02  0.81962708031E+02  0.00000000000E+00 0. -1.
<scales pt_clust_5="13000.00000" pt_clust_6="13000.00000" pt_clust_7="13000.00000" pt_clust_8="13000.00000" pt_clust_9="30.65272"></scales>
<clustering>
<clus scale="   30.653">  2  9  1 -1</clus>
<clus scale="   80.216">  5  6 -1 -1</clus>
<clus scale="   89.609">  7  8 -1 -1</clus>
<clus scale="  163.693">  2  5  1 -1</clus>
<clus scale="   30.653">  2  5  1 -1</clus>
</clustering>
</event>
<event>
 9    1  0.2674825E-005  0.9167320E+02  0.7546771E-02  0.1303302E+00
          1   -1    0    0  502    0  0.00000000000E+00  0.00000000000E+00  0.10842732510E+03  0.10842732510E+03  0.00000000000E+00 0. -1.
         -2   -1    0    0    0  501 -0.00000000000E+00 -0.00000000000E+00 -0.14258620922E+03  0.14258620922E+03  0.00000000000E+00 0.  1.
        -24    2    1    2    0    0  0.32829704630E+00  0.27070790594E+02 -0.85115680197E+02  0.11988921750E+03  0.79973808054E+02 0.  0.
         23    2    1    2    0    0 -0.24817770283E+02 -0.24839151487E+02  0.30517926604E+02  0.99148358707E+02  0.87556541855E+02 0.  0.
         11    1    3    3    0    0 -0.13998434558E+02  0.52210921824E+02 -0.44474179675E+02  0.69999208464E+02  0.00000000000E+00 0. -1.
        -12    1    3    3    0    0  0.14326731605E+02 -0.25140131230E+02 -0.40641500522E+02  0.49890009034E+02  0.00000000000E+00 0.  1.
        -13    1    4    4    0    0  0.30483589980E+02 -0.14614772840E+02 -0.25608648374E+01  0.33902785608E+02  0.00000000000E+00 0.  1.
         13    1    4    4    0    0 -0.55301360264E+02 -0.10224378647E+02  0.33078791442E+02  0.65245573099E+02  0.00000000000E+00 0. -1.
         21    1    1    2  502  501  0.24489473237E+02 -0.22316391065E+01  0.20438869469E+02  0.31975958120E+02  0.00000000000E+00 0.  1.
<scales pt_clust_5="13000.00000" pt_clust_6="13000.00000" pt_clust_7="13000.00000" pt_clust_8="13000.00000" pt_clust_9="24.59094"></scales>
<clustering>
<clus scale="   24.591">  1  9  2 -1</clus>
<clus scale="   79.974">  5  6 -1 -1</clus>
<clus scale="   84.461">  2  5  1 -1</clus>
<clus scale="   87.557">  7  8 -1 -1</clus>
<clus scale="   24.591">  1  5  2 -1</clus>
</clustering>
</event>
<event>
 9    1  0.2674825E-005  0.1582380E+03  0.7546771E-02  0.1219793E+00
         -4   -1    0    0    0  501 -0.00000000000E+00  0.00000000000E+00  0.14458177179E+03  0.14458177179E+03  0.00000000000E+00 0.  1.
          3   -1    0    0  502    0  0.00000000000E+00 -0.00000000000E+00 -0.39560546043E+03  0.39560546043E+03  0.00000000000E+00 0. -1.
         23    2    1    2    0    0  0.12557298904E+03 -0.40010914475E+02  0.43752207171E+02  0.16609494101E+03  0.91125325469E+02 0.  0.
        -24    2    1    2    0    0 -0.13553568692E+02 -0.16374493098E+02 -0.19919902521E+03  0.21641349456E+03  0.81870176088E+02 0.  0.
         11    1    4    4    0    0 -0.35286338001E+02 -0.31027723790E+01 -0.33451396881E+02  0.48721132984E+02  0.00000000000E+00 0. -1.
        -12    1    4    4    0    0  0.21732769309E+02 -0.13271720719E+02 -0.16574762833E+03  0.16769236157E+03  0.00000000000E+00 0.  1.
        -11    1    3    3    0    0  0.82906303429E+02 -0.55152215540E+02  0.61980553106E+02  0.11728943256E+03  0.00000000000E+00 0.  1.
         11    1    3    3    0    0  0.42666685614E+02  0.15141301065E+02 -0.18228345935E+02  0.48805508447E+02  0.00000000000E+00 0. -1.
         21    1    1    2  502  501 -0.11201942035E+03  0.56385407573E+02 -0.95576870596E+02  0.15767879666E+03  0.00000000000E+00 0. -1.
<scales pt_clust_5="13000.00000" pt_clust_6="13000.00000" pt_clust_7="13000.00000" pt_clust_8="13000.00000" pt_clust_9="129.36553"></scales>
<clustering>
<clus scale="   81.870">  5  6 -1 -1</clus>
<clus scale="   84.585">  2  5  1 -1</clus>
<clus scale="   91.125">  7  8 -1 -1</clus>
<clus scale="  129.366">  2  9  1 -1</clus>
<clus scale="   84.585">  2  5  1 -1</clus>
</clustering>
</event>
<event>
 9    1  0.2674825E-005  0.8564579E+02  0.7546771E-02  0.1315991E+00
          3   -1    0    0  502    0  0.00000000000E+00  0.00000000000E+00  0.38445443101E+03  0.38445443101E+03  0.00000000000E+00 0. -1.
         -4   -1    0    0    0  501 -0.00000000000E+00 -0.00000000000E+00 -0.14751784620E+03  0.14751784620E+03  0.00000000000E+00 0.  1.
         23    2    1    2    0    0 -0.79619075246E+01  0.21999858806E+02 -0.11970790788E+03  0.14767294690E+03  0.83246202798E+02 0.  0.
        -24    2    1    2    0    0 -0.10772285631E+02  0.70376457762E+01  0.11704751865E+03  0.14222319221E+03  0.79760542776E+02 0.  0.
         13    1    4    4    0    0 -0.22344475025E+02 -0.40854467971E+01  0.12301805537E+03  0.12509759545E+03  0.00000000000E+00 0. -1.
        -14    1    4    4    0    0  0.11572189394E+02  0.11123092573E+02 -0.59705367177E+01  0.17125596762E+02  0.00000000000E+00 0.  1.
        -11    1    3    3    0    0 -0.24318214410E+02  0.48352128637E+02 -0.63157932459E+02  0.83175887903E+02  0.00000000000E+00 0.  1.
         11    1    3    3    0    0  0.16356306886E+02 -0.26352269831E+02 -0.56549975417E+02  0.64497059001E+02  0.00000000000E+00 0. -1.
         21    1    1    2  502  501  0.18734193156E+02 -0.29037504583E+02  0.23959697403E+03  0.24207613809E+03  0.00000000000E+00 0. -1.
<scales pt_clust_5="13000.00000" pt_clust_6="13000.00000" pt_clust_7="13000.00000" pt_clust_8="13000.00000" pt_clust_9="34.55643"></scales>
<clustering>
<clus scale="   34.556">  1  9  2 -1</clus>
<clus scale="   79.761">  5  6 -1 -1</clus>
<clus scale="   82.262">  1  5  2 -1</clus>
<clus scale="   83.246">  7  8 -1 -1</clus>
<clus scale="   34.556">  1  5  2 -1</clus>
</clustering>
</event>
<event>
 9    1  0.2674825E-005  0.1296238E+03  0.7546771E-02  0.1231260E+00
         -2   -1    0    0    0  501 -0.00000000000E+00  0.00000000000E+00  0.14838481964E+03  0.14838481964E+03  0.00000000000E+00 0.  1.
          1   -1    0    0  502    0  0.00000000000E+00 -0.00000000000E+00 -0.17568313187E+03  0.17568313187E+03  0.00000000000E+00 0. -1.
        -24    2    1    2    0    0  0.30226536109E+02 -0.88157599115E+02  0.77186726449E+02  0.14532937905E+03  0.80482494430E+02 0.  0.
         23    2    1    2    0    0 -0.41408410849E+02  0.71312469037E+02 -0.95825557614E+02  0.15674358797E+03  0.92660078503E+02 0.  0.
         13    1    3    3    0    0  0.48094736055E+02 -0.86710160007E+02  0.45884415291E+02  0.10925719679E+03  0.00000000000E+00 0. -1.
        -14    1    3    3    0    0 -0.17868199946E+02 -0.14474391083E+01  0.31302311157E+02  0.36072182261E+02  0.00000000000E+00 0.  1.
        -11    1    4    4    0    0  0.15740338861E+02  0.41728719442E+02 -0.78196183945E+02  0.90020483654E+02  0.00000000000E+00 0.  1.
         11    1    4    4    0    0 -0.57148749710E+02  0.29583749596E+02 -0.17629373669E+02  0.66723104316E+02  0.00000000000E+00 0. -1.
         21    1    1    2  502  501  0.11181874740E+02  0.16845130078E+02 -0.86594810658E+01  0.21994984482E+02  0.00000000000E+00 0. -1.
<scales pt_clust_5="13000.00000" pt_clust_6="13000.00000" pt_clust_7="13000.00000" pt_clust_8="13000.00000" pt_clust_9="20.21862"></scales>
<clustering>
<clus scale="   20.219">  2  9  1 -1</clus>
<clus scale="   80.482">  5  6 -1 -1</clus>
<clus scale="   92.660">  7  8 -1 -1</clus>
<clus scale="  121.218">  1  5  2 -1</clus>
<clus scale="   20.219">  2  5  1 -1</clus>
</clustering>
</event>
<event>
 9    1  0.2674825E-005  0.1002133E+03  0.7546771E-02  0.1285006E+00
         -2   -1    0    0    0  501 -0.00000000000E+00  0.00000000000E+00  0.12072029079E+03  0.12072029079E+03  0.00000000000E+00 0.  1.
          1   -1    0    0  502    0  0.00000000000E+00 -0.00000000000E+00 -0.31920857364E+03  0.31920857364E+03  0.00000000000E+00 0. -1.
        -24    2    1    2    0    0 -0.26901814374E+02 -0.28483345078E+02  0.87240454069E+02  0.12552688350E+03  0.81308628638E+02 0.  0.
         23    2    1    2    0    0  0.32390003668E+02  0.48561577111E+02 -0.21838462567E+03  0.24391450018E+03  0.91624775910E+02 0.  0.
         11    1    3    3    0    0 -0.97005852912E+01  0.28277208019E+02  0.20540006450E+02  0.36271114035E+02  0.00000000000E+00 0. -1.
        -12    1    3    3    0    0 -0.17201229082E+02 -0.56760553097E+02  0.66700447618E+02  0.89255769462E+02  0.00000000000E+00 0.  1.
        -13    1    4    4    0    0 -0.20146217590E+02  0.52203742132E+02 -0.11486866264E+03  0.12777288614E+03  0.00000000000E+00 0. -1.
         13    1    4    4    0    0  0.52536221258E+02 -0.36421650210E+01 -0.10351596302E+03  0.11614161403E+03  0.00000000000E+00 0.  1.
         21    1    1    2  502  501 -0.54881892948E+01 -0.20078232033E+02 -0.67344111256E+02  0.70487480762E+02  0.00000000000E+00 0. -1.
<scales pt_clust_5="13000.00000" pt_clust_6="13000.00000" pt_clust_7="13000.00000" pt_clust_8="13000.00000" pt_clust_9="20.81479"></scales>
<clustering>
<clus scale="   20.815">  2  9  1 -1</clus>
<clus scale="   81.309">  5  6 -1 -1</clus>
<clus scale="   90.877">  1  5  2 -1</clus>
<clus scale="   91.625">  7  8 -1 -1</clus>
<clus scale="   20.815">  2  5  1 -1</clus>
</clustering>
</event>
<event>
 9    1  0.2674825E-005  0.9888698E+02  0.7546771E-02  0.1288201E+00
          1   -1    0    0  502    0  0.00000000000E+00  0.00000000000E+00  0.19875287277E+03  0.19875287277E+03  0.00000000000E+00 0. -1.
         -2   -1    0    0    0  501 -0.00000000000E+00 -0.00000000000E+00 -0.12202242366E+03  0.12202242366E+03  0.00000000000E+00 0.  1.
        -24    2    1    2    0    0 -0.26673268850E+02 -0.21854067724E+02 -0.69728158372E+02  0.11162303138E+03  0.80053866342E+02 0.  0.
         23    2    1    2    0    0  0.60610178604E+02  0.30823844671E+02  0.10271743087E+03  0.15306785301E+03  0.90858097438E+02 0.  0.
         11    1    3    3    0    0 -0.41194840124E+01  0.30074535832E+02 -0.27936418157E+02  0.41253985425E+02  0.00000000000E+00 0. -1.
        -12    1    3    3    0    0 -0.22553784838E+02 -0.51928603556E+02 -0.41791740215E+02  0.70369045950E+02  0.00000000000E+00 0.  1.
        -13    1    4    4    0    0  0.77308689227E+02 -0.27255427124E+00  0.61388962340E+02  0.98718348917E+02  0.00000000000E+00 0.  1.
         13    1    4    4    0    0 -0.16698510622E+02  0.31096398942E+02  0.41328468532E+02  0.54349504095E+02  0.00000000000E+00 0. -1.
         21    1    1    2  502  501 -0.33936909754E+02 -0.89697769470E+01  0.43741176613E+02  0.56084412038E+02  0.00000000000E+00 0. -1.
<scales pt_clust_5="13000.00000" pt_clust_6="13000.00000" pt_clust_7="13000.00000" pt_clust_8="13000.00000" pt_clust_9="35.10229"></scales>
<clustering>
<clus scale="   35.102">  1  9  2 -1</clus>
<clus scale="   80.054">  5  6 -1 -1</clus>
<clus scale="   89.062">  2  5  1 -1</clus>
<clus scale="   90.858">  7  8 -1 -1</clus>
<clus scale="   35.102">  1  5  2 -1</clus>
</clustering>
</event>
<event>
 9    1  0.2674825E-005  0.2511174E+03  0.7546771E-02  0.1113274E+00
         -2   -1    0    0    0  501 -0.00000000000E+00  0.00000000000E+00  0.44757158165E+03  0.44757158165E+03  0.00000000000E+00 0.  1.
          1   -1    0    0  502    0  0.00000000000E+00 -0.00000000000E+00 -0.11325002386E+04  0.11325002386E+04  0.00000000000E+00 0. -1.
        -24    2    1    2    0    0  0.20578505277E+03  0.92202528485E+02  0.33937025130E+03  0.41500151112E+03  0.78773679349E+02 0.  0.
         23    2    1    2    0    0 -0.30928125857E+03 -0.14947129293E+03 -0.42413420170E+03  0.55336053237E+03  0.91222220028E+02 0.  0.
         11    1    3    3    0    0  0.13366872920E+03  0.17132683993E+02  0.19106727059E+03  0.23381094909E+03  0.00000000000E+00 0. -1.
        -12    1    3    3    0    0  0.72116323569E+02  0.75069844492E+02  0.14830298072E+03  0.18119056202E+03  0.00000000000E+00 0.  1.
        -13    1    4    4    0    0 -0.27515715411E+03 -0.10562733858E+03 -0.31811258674E+03  0.43366370837E+03  0.00000000000E+00 0. -1.
         13    1    4    4    0    0 -0.34124104451E+02 -0.43843954349E+02 -0.10602161496E+03  0.11969682400E+03  0.00000000000E+00 0.  1.
         21    1    1    2  502  501  0.10349620580E+03  0.57268764448E+02 -0.60016470655E+03  0.61170977677E+03  0.00000000000E+00 0. -1.
<scales pt_clust_5="13000.00000" pt_clust_6="13000.00000" pt_clust_7="13000.00000" pt_clust_8="13000.00000" pt_clust_9="118.28430"></scales>
<clustering>
<clus scale="   78.774">  5  6 -1 -1</clus>
<clus scale="   91.222">  7  8 -1 -1</clus>
<clus scale="  118.284">  2  9  1 -1</clus>
<clus scale="  246.868">  1  5  2 -1</clus>
<clus scale="  118.284">  2  5  1 -1</clus>
</clustering>
</event>
<event>
 9    1  0.2674825E-005  0.9764819E+02  0.7546771E-02  0.1292045E+00
          3   -1    0    0  502    0  0.00000000000E+00  0.00000000000E+00  0.56181510251E+03  0.56181510251E+03  0.00000000000E+00 0. -1.
         -4   -1    0    0    0  501 -0.00000000000E+00 -0.00000000000E+00 -0.99823435125E+02  0.99823435125E+02  0.00000000000E+00 0.  1.
         23    2    1    2    0    0 -0.25525924908E+02 -0.18371184477E+02 -0.66770202668E+02  0.11848281805E+03  0.92686811077E+02 0.  0.
        -24    2    1    2    0    0  0.34824105071E+02 -0.14385162180E+02  0.34342699688E+03  0.35471886116E+03  0.80397245527E+02 0.  0.
         11    1    4    4    0    0  0.35997828886E+02 -0.44516613052E+02  0.19359437079E+03  0.20188202724E+03  0.00000000000E+00 0. -1.
        -12    1    4    4    0    0 -0.11737238151E+01  0.30131450872E+02  0.14983262610E+03  0.15283683392E+03  0.00000000000E+00 0.  1.
        -13    1    3    3    0    0 -0.18779296671E+02  0.10217915951E+02  0.18514180282E+02  0.28281489730E+02  0.00000000000E+00 0. -1.
         13    1    3    3    0    0 -0.67466282371E+01 -0.28589100428E+02 -0.85284382949E+02  0.90201328321E+02  0.00000000000E+00 0.  1.
         21    1    1    2  502  501 -0.92981801627E+01  0.32756346657E+02  0.18533487317E+03  0.18843685843E+03  0.00000000000E+00 0. -1.
<scales pt_clust_5="13000.00000" pt_clust_6="13000.00000" pt_clust_7="13000.00000" pt_clust_8="13000.00000" pt_clust_9="34.05047"></scales>
<clustering>
<clus scale="   34.050">  1  9  2 -1</clus>
<clus scale="   80.397">  5  6 -1 -1</clus>
<clus scale="   86.070">  1  5  2 -1</clus>
<clus scale="   92.687">  7  8 -1 -1</clus>
<clus scale="   34.050">  1  5  2 -1</clus>
</clustering>
</event>
<event>
 9    1  0.2674825E-005  0.4070939E+03  0.7546771E-02  0.1076454E+00
          3   -1    0    0  502    0  0.00000000000E+00  0.00000000000E+00  0.12533352385E+04  0.12533352385E+04  0.00000000000E+00 0. -1.
         -4   -1    0    0    0  501 -0.00000000000E+00 -0.00000000000E+00 -0.39026631109E+03  0.39026631109E+03  0.00000000000E+00 0.  1.
        -24    2    1    2    0    0  0.12415671546E+03 -0.39873800871E+02 -0.22647579456E+03  0.27279117793E+03  0.78223597758E+02 0.  0.
         23    2    1    2    0    0  0.29210615229E+03  0.17376907924E+03  0.27550415704E+03  0.44676234152E+03  0.90401062804E+02 0.  0.
         13    1    3    3    0    0  0.41553031263E+02 -0.52594843307E+02 -0.82298800901E+02  0.10614124825E+03  0.00000000000E+00 0. -1.
        -14    1    3    3    0    0  0.82603684197E+02  0.12721042436E+02 -0.14417699366E+03  0.16664992969E+03  0.00000000000E+00 0.  1.
        -13    1    4    4    0    0  0.37699937201E+02  0.51372655341E+02  0.84786316172E+02  0.10606203087E+03  0.00000000000E+00 0.  1.
         13    1    4    4    0    0  0.25440621508E+03  0.12239642390E+03  0.19071784086E+03  0.34070031066E+03  0.00000000000E+00 0. -1.
         21    1    1    2  502  501 -0.41626286775E+03 -0.13389527837E+03  0.81404056493E+03  0.92404803013E+03  0.00000000000E+00 0. -1.
<scales pt_clust_5="13000.00000" pt_clust_6="13000.00000" pt_clust_7="13000.00000" pt_clust_8="13000.00000" pt_clust_9="396.92956"></scales>
<clustering>
<clus scale="   78.224">  5  6 -1 -1</clus>
<clus scale="   90.401">  7  8 -1 -1</clus>
<clus scale="  152.065">  2  5  1 -1</clus>
<clus scale="  396.930">  1  9  2 -1</clus>
<clus scale="  396.930">  1  5  2 -1</clus>
</clustering>
</event>
<event>
 9    1  0.2674825E-005  0.9129556E+02  0.7546771E-02  0.1306883E+00
         -2   -1    0    0    0  501 -0.00000000000E+00  0.00000000000E+00  0.37854809572E+03  0.37854809572E+03  0.00000000000E+00 0.  1.
          1   -1    0    0  502    0  0.00000000000E+00 -0.00000000000E+00 -0.28117198108E+02  0.28117198108E+02  0.00000000000E+00 0. -1.
         23    2    1    2    0    0 -0.15123522717E+02 -0.51305094690E+01  0.20277763495E+03  0.22294703197E+03  0.91277416489E+02 0.  0.
        -24    2    1    2    0    0 -0.10109199605E+02 -0.13543167609E+01  0.92806730542E+02  0.12299853415E+03  0.80071968126E+02 0.  0.
         11    1    4    4    0    0  0.15820228887E+02 -0.26828780489E+02  0.10242245345E+02  0.32786684710E+02  0.00000000000E+00 0. -1.
        -12    1    4    4    0    0 -0.25929428492E+02  0.25474463728E+02  0.82564485197E+02  0.90211849444E+02  0.00000000000E+00 0.  1.
        -13    1    3    3    0    0 -0.40749635399E+02 -0.34391957447E+02  0.12787158668E+03  0.13854415253E+03  0.00000000000E+00 0. -1.
         13    1    3    3    0    0  0.25626112682E+02  0.29261447977E+02  0.74906048276E+02  0.84402879437E+02  0.00000000000E+00 0.  1.
         21    1    1    2  502  501  0.25232722322E+02  0.64848262299E+01  0.54846532118E+02  0.60719727703E+02  0.00000000000E+00 0.  1.
<scales pt_clust_5="13000.00000" pt_clust_6="13000.00000" pt_clust_7="13000.00000" pt_clust_8="13000.00000" pt_clust_9="26.05270"></scales>
<clustering>
<clus scale="   26.053">  1  9  2 -1</clus>
<clus scale="   80.072">  5  6 -1 -1</clus>
<clus scale="   80.093">  2  5  1 -1</clus>
<clus scale="   91.277">  7  8 -1 -1</clus>
<clus scale="   80.093">  2  5  1 -1</clus>
</clustering>
</event>
<event>
 9    1  0.2674825E-005  0.1205034E+03  0.7546771E-02  0.1247694E+00
          1   -1    0    0  502    0  0.00000000000E+00  0.00000000000E+00  0.28673687800E+02  0.28673687800E+02  0.00000000000E+00 0. -1.
         -2   -1    0    0    0  501 -0.00000000000E+00 -0.00000000000E+00 -0.11850394499E+04  0.11850394499E+04  0.00000000000E+00 0.  1.
        -24    2    1    2    0    0  0.60982868326E+02 -0.10794672497E+02 -0.63530751494E+03  0.64312587753E+03  0.78484524741E+02 0.  0.
         23    2    1    2    0    0 -0.12772567589E+03  0.31070900844E+02 -0.34451003301E+03  0.38075839062E+03  0.94923864343E+02 0.  0.
         13    1    3    3    0    0  0.63143347352E+02 -0.19818710614E+02 -0.28066942776E+03  0.28836641844E+03  0.00000000000E+00 0. -1.
        -14    1    3    3    0    0 -0.21604790251E+01  0.90240381179E+01 -0.35463808718E+03  0.35475945909E+03  0.00000000000E+00 0.  1.
        -13    1    4    4    0    0 -0.40343980043E+02 -0.80415751669E+01 -0.21939028385E+03  0.22321379954E+03  0.00000000000E+00 0.  1.
         13    1    4    4    0    0 -0.87381695844E+02  0.39112476011E+02 -0.12511974916E+03  0.15754459108E+03  0.00000000000E+00 0. -1.
         21    1    1    2  502  501  0.66742807561E+02 -0.20276228348E+02 -0.17654821419E+03  0.18982886959E+03  0.00000000000E+00 0.  1.
<scales pt_clust_5="13000.00000" pt_clust_6="13000.00000" pt_clust_7="13000.00000" pt_clust_8="13000.00000" pt_clust_9="69.75477"></scales>
<clustering>
<clus scale="   69.755">  1  9  2 -1</clus>
<clus scale="   78.485">  5  6 -1 -1</clus>
<clus scale="   94.924">  7  8 -1 -1</clus>
<clus scale="  108.029">  2  5  1 -1</clus>
<clus scale="   69.755">  1  5  2 -1</clus>
</clustering>
</event>
<event>
 9    1  0.2674825E-005  0.1055257E+03  0.7546771E-02  0.1273935E+00
          1   -1    0    0  502    0  0.00000000000E+00  0.00000000000E+00  0.60814611060E+02  0.60814611060E+02  0.00000000000E+00 0. -1.
         -2   -1    0    0    0  501 -0.00000000000E+00 -0.00000000000E+00 -0.26783412470E+03  0.26783412470E+03  0.00000000000E+00 0.  1.
        -24    2    1    2    0    0 -0.23095330016E+02 -0.21220097100E+02 -0.11621734267E+03  0.14406550783E+03  0.79149940109E+02 0.  0.
         23    2    1    2    0    0  0.42179700683E+02  0.54430730948E+02 -0.38906585648E+02  0.12008275367E+03  0.90356591905E+02 0.  0.
         13    1    3    3    0    0  0.22590894363E+02  0.14681576010E+02 -0.33775350486E+02  0.43204993724E+02  0.00000000000E+00 0. -1.
        -14    1    3    3    0    0 -0.45686224379E+02 -0.35901673111E+02 -0.82441992180E+02  0.10086051410E+03  0.00000000000E+00 0.  1.
        -13    1    4    4    0    0 -0.23999159162E+02  0.56807701759E+01 -0.27762362386E+02  0.37134613981E+02  0.00000000000E+00 0.  1.
         13    1    4    4    0    0  0.66178859844E+02  0.48749960772E+02 -0.11144223262E+02  0.82948139688E+02  0.00000000000E+00 0. -1.
         21    1    1    2  502  501 -0.19084370667E+02 -0.33210633847E+02 -0.51895585329E+02  0.64500474269E+02  0.00000000000E+00 0.  1.
<scales pt_clust_5="13000.00000" pt_clust_6="13000.00000" pt_clust_7="13000.00000" pt_clust_8="13000.00000" pt_clust_9="38.30352"></scales>
<clustering>
<clus scale="   38.304">  2  9  1 -1</clus>
<clus scale="   79.150">  5  6 -1 -1</clus>
<clus scale="   90.357">  7  8 -1 -1</clus>
<clus scale="   96.104">  2  5  1 -1</clus>
<clus scale="  105.526">  1  5  2 -1</clus>
</clustering>
</event>
<event>
 9    1  0.2674825E-005  0.9431802E+02  0.7546771E-02  0.1299133E+00
          1   -1    0    0  502    0  0.00000000000E+00  0.00000000000E+00  0.36710509653E+03  0.36710509653E+03  0.00000000000E+00 0. -1.
         -2   -1    0    0    0  501 -0.00000000000E+00 -0.00000000000E+00 -0.72816221303E+02  0.72816221303E+02  0.00000000000E+00 0.  1.
         23    2    1    2    0    0 -0.34880712185E+01 -0.14918981455E+02 -0.19296443832E+02  0.95014427986E+02  0.91764078661E+02 0.  0.
        -24    2    1    2    0    0 -0.22788182083E+01  0.53824194703E+02  0.16766584947E+03  0.19377990934E+03  0.80849114023E+02 0.  0.
         11    1    4    4    0    0 -0.28205603256E+02  0.63468277658E+02  0.11744102283E+03  0.13644109413E+03  0.00000000000E+00 0. -1.
        -12    1    4    4    0    0  0.25926785047E+02 -0.96440829556E+01  0.50224826640E+02  0.57338815213E+02  0.00000000000E+00 0.  1.
        -11    1    3    3    0    0  0.35138301079E+02  0.95182175280E+01  0.13425663459E+02  0.38801354448E+02  0.00000000000E+00 0. -1.
         11    1    3    3    0    0 -0.38626372298E+02 -0.24437198983E+02 -0.32722107291E+02  0.56213073538E+02  0.00000000000E+00 0.  1.
         21    1    1    2  502  501  0.57668894268E+01 -0.38905213248E+02  0.14591946959E+03  0.15112698050E+03  0.00000000000E+00 0.  1.
<scales pt_clust_5="13000.00000" pt_clust_6="13000.00000" pt_clust_7="13000.00000" pt_clust_8="13000.00000" pt_clust_9="39.33030"></scales>
<clustering>
<clus scale="   39.330">  1  9  2 -1</clus>
<clus scale="   80.849">  5  6 -1 -1</clus>
<clus scale="   83.737">  1  5  2 -1</clus>
<clus scale="   91.764">  7  8 -1 -1</clus>
<clus scale="   39.330">  1  5  2 -1</clus>
</clustering>
</event>
<event>
 9    1  0.2674825E-005  0.2526098E+03  0.7546771E-02  0.1112294E+00
         -2   -1    0    0    0  501 -0.00000000000E+00  0.00000000000E+00  0.16630334153E+03  0.16630334153E+03  0.00000000000E+00 0.  1.
          1   -1    0    0  502    0  0.00000000000E+00 -0.00000000000E+00 -0.63579257562E+03  0.63579257562E+03  0.00000000000E+00 0. -1.
         23    2    1    2    0    0 -0.68690683602E+02 -0.22123000577E+03  0.42234144922E+01  0.24914369837E+03  0.91616700102E+02 0.  0.
        -24    2    1    2    0    0  0.63719429095E+02  0.24124881031E+03 -0.41576412002E+03  0.49144207435E+03  0.79964709877E+02 0.  0.
         11    1    4    4    0    0  0.78110436237E+02  0.15176877089E+03 -0.28834819950E+03  0.33508160830E+03  0.00000000000E+00 0. -1.
        -12    1    4    4    0    0 -0.14391007141E+02  0.89480039426E+02 -0.12741592052E+03  0.15636046605E+03  0.00000000000E+00 0.  1.
        -13    1    3    3    0    0 -0.14875290562E+02 -0.87378118975E+02 -0.41412532074E+02  0.97832549582E+02  0.00000000000E+00 0. -1.
         13    1    3    3    0    0 -0.53815393040E+02 -0.13385188680E+03  0.45635946566E+02  0.15131114878E+03  0.00000000000E+00 0.  1.
         21    1    1    2  502  501  0.49712545072E+01 -0.20018804542E+02 -0.57948528562E+02  0.61510144441E+02  0.00000000000E+00 0.  1.
<scales pt_clust_5="13000.00000" pt_clust_6="13000.00000" pt_clust_7="13000.00000" pt_clust_8="13000.00000" pt_clust_9="20.62682"></scales>
<clustering>
<clus scale="   20.627">  2  9  1 -1</clus>
<clus scale="   79.965">  5  6 -1 -1</clus>
<clus scale="   91.617">  7  8 -1 -1</clus>
<clus scale="  248.621">  2  5  1 -1</clus>
<clus scale="   20.627">  2  5  1 -1</clus>
</clustering>
</event>
<event>
 9    1  0.2674825E-005  0.2730681E+03  0.7546771E-02  0.1099955E+00
          1   -1    0    0  502    0  0.00000000000E+00  0.00000000000E+00  0.63508447483E+03  0.63508447483E+03  0.00000000000E+00 0. -1.
         -2   -1    0    0    0  501 -0.00000000000E+00 -0.00000000000E+00 -0.43957525688E+03  0.43957525688E+03  0.00000000000E+00 0.  1.
        -24    2    1    2    0    0  0.20130592077E+03 -0.12877525269E+03 -0.26967536810E+03  0.36917758566E+03  0.80375034393E+02 0.  0.
         23    2    1    2    0    0 -0.14627157167E+03  0.21722075293E+03  0.51900731039E+03  0.58822912157E+03  0.89803580364E+02 0.  0.
         13    1    3    3    0    0  0.63579472921E+02 -0.19540242826E+01 -0.85345247150E+02  0.10644237314E+03  0.00000000000E+00 0. -1.
        -14    1    3    3    0    0  0.13772644785E+03 -0.12682122841E+03 -0.18433012095E+03  0.26273521252E+03  0.00000000000E+00 0.  1.
        -11    1    4    4    0    0 -0.94905533264E+02  0.11837443599E+03  0.38592671679E+03  0.41467939191E+03  0.00000000000E+00 0. -1.
         11    1    4    4    0    0 -0.51366038403E+02  0.98846316940E+02  0.13308059360E+03  0.17354972966E+03  0.00000000000E+00 0.  1.
         21    1    1    2  502  501 -0.55034349101E+02 -0.88445500234E+02 -0.53822724340E+02  0.11725302447E+03  0.00000000000E+00 0. -1.
<scales pt_clust_5="13000.00000" pt_clust_6="13000.00000" pt_clust_7="13000.00000" pt_clust_8="13000.00000" pt_clust_9="104.16999"></scales>
<clustering>
<clus scale="   80.375">  5  6 -1 -1</clus>
<clus scale="   89.804">  7  8 -1 -1</clus>
<clus scale="  104.170">  2  9  1 -1</clus>
<clus scale="  270.114">  2  5  1 -1</clus>
<clus scale="  273.068">  1  5  2 -1</clus>
</clustering>
</event>
<event>
 9    1  0.2674825E-005  0.1249573E+03  0.7546771E-02  0.1248691E+00
          1   -1    0    0  502    0  0.00000000000E+00  0.00000000000E+00  0.70548331960E+03  0.70548331960E+03  0.00000000000E+00 0. -1.
         -2   -1    0    0    0  501 -0.00000000000E+00 -0.00000000000E+00 -0.91168049897E+02  0.91168049897E+02  0.00000000000E+00 0.  1.
        -24    2    1    2    0    0 -0.49139581133E+02 -0.78513967229E+02 -0.22377926534E+02  0.12429490290E+03  0.79807955786E+02 0.  0.
         23    2    1    2    0    0 -0.35795418762E+01 -0.26331782732E+02  0.34791873792E+03  0.36064726720E+03  0.91174707229E+02 0.  0.
         11    1    3    3    0    0  0.19973098105E+01 -0.70469604675E+02 -0.13014490287E+02  0.71689130187E+02  0.00000000000E+00 0. -1.
        -12    1    3    3    0    0 -0.51136890944E+02 -0.80443625544E+01 -0.93634362471E+01  0.52605772712E+02  0.00000000000E+00 0.  1.
        -13    1    4    4    0    0  0.42445091702E+02 -0.15219344090E+02  0.21127150596E+03  0.21602977451E+03  0.00000000000E+00 0. -1.
         13    1    4    4    0    0 -0.46024633578E+02 -0.11112438642E+02  0.13664723196E+03  0.14461749269E+03  0.00000000000E+00 0.  1.
         21    1    1    2  502  501  0.52719123010E+02  0.10484574996E+03  0.28877445831E+03  0.31170919940E+03  0.00000000000E+00 0. -1.
<scales pt_clust_5="13000.00000" pt_clust_6="13000.00000" pt_clust_7="13000.00000" pt_clust_8="13000.00000" pt_clust_9="96.15097"></scales>
<clustering>
<clus scale="   79.808">  5  6 -1 -1</clus>
<clus scale="   91.175">  7  8 -1 -1</clus>
<clus scale="   94.968">  1  7  2 -1</clus>
<clus scale="   96.151">  1  9  2 -1</clus>
<clus scale="   94.968">  1  5  2 -1</clus>
</clustering>
</event>
<event>
 9    1  0.2674825E-005  0.9919796E+02  0.7546771E-02  0.1286928E+00
          1   -1    0    0  502    0  0.00000000000E+00  0.00000000000E+00  0.14678320984E+03  0.14678320984E+03  0.00000000000E+00 0. -1.
         -2   -1    0    0    0  501 -0.00000000000E+00 -0.00000000000E+00 -0.97046224958E+02  0.97046224958E+02  0.00000000000E+00 0.  1.
        -24    2    1    2    0    0  0.55480123719E+02 -0.21183268062E+02 -0.73667237217E+01  0.98580891954E+02  0.78339955746E+02 0.  0.
         23    2    1    2    0    0 -0.24457355966E+02  0.12807610199E+02  0.17476278497E+02  0.94229948387E+02  0.88383628139E+02 0.  0.
         13    1    3    3    0    0  0.45258241933E+02  0.24497100952E+02 -0.25933328784E+01  0.51528068015E+02  0.00000000000E+00 0. -1.
        -14    1    3    3    0    0  0.10221881786E+02 -0.45680369014E+02 -0.47733908432E+01  0.47052823939E+02  0.00000000000E+00 0.  1.
        -13    1    4    4    0    0 -0.31828371255E+02  0.39442930979E+02  0.34920456413E+02  0.61548584850E+02  0.00000000000E+00 0. -1.
         13    1    4    4    0    0  0.73710152889E+01 -0.26635320780E+02 -0.17444177916E+02  0.32681363537E+02  0.00000000000E+00 0.  1.
         21    1    1    2  502  501 -0.31022767753E+02  0.83756578637E+01  0.39627430110E+02  0.51018594461E+02  0.00000000000E+00 0. -1.
<scales pt_clust_5="13000.00000" pt_clust_6="13000.00000" pt_clust_7="13000.00000" pt_clust_8="13000.00000" pt_clust_9="32.13353"></scales>
<clustering>
<clus scale="   32.134">  1  9  2 -1</clus>
<clus scale="   78.340">  5  6 -1 -1</clus>
<clus scale="   88.384">  7  8 -1 -1</clus>
<clus scale="   90.364">  2  5  1 -1</clus>
<clus scale="   32.134">  1  5  2 -1</clus>
</clustering>
</event>
<event>
 9    1  0.2674825E-005  0.1192321E+03  0.7546771E-02  0.1248270E+00
         -2   -1    0    0    0  501 -0.00000000000E+00  0.00000000000E+00  0.96806828811E+02  0.96806828811E+02  0.00000000000E+00 0.  1.
          1   -1    0    0  502    0  0.00000000000E+00 -0.00000000000E+00 -0.28360602649E+03  0.28360602649E+03  0.00000000000E+00 0. -1.
        -24    2    1    2    0    0  0.34872362368E+01 -0.97805986523E+02  0.10117319631E+02  0.12531733304E+03  0.77613800242E+02 0.  0.
         23    2    1    2    0    0 -0.31243018027E+01  0.40528779754E+02 -0.88865605652E+02  0.13280157455E+03  0.89926742877E+02 0.  0.
         13    1    3    3    0    0  0.18175948426E+02 -0.86650792099E+02 -0.19281305910E+02  0.90611774236E+02  0.00000000000E+00 0. -1.
        -14    1    3    3    0    0 -0.14688712189E+02 -0.11155194423E+02  0.29398625540E+02  0.34705558806E+02  0.00000000000E+00 0.  1.
        -13    1    4    4    0    0  0.31081196288E+02 -0.38695787580E+01 -0.46844844917E+01  0.31669524742E+02  0.00000000000E+00 0.  1.
         13    1    4    4    0    0 -0.34205498090E+02  0.44398358512E+02 -0.84181121160E+02  0.10113204981E+03  0.00000000000E+00 0. -1.
         21    1    1    2  502  501 -0.36293443412E+00  0.57277206769E+02 -0.10805091166E+03  0.12229394771E+03  0.00000000000E+00 0. -1.
<scales pt_clust_5="13000.00000" pt_clust_6="13000.00000" pt_clust_7="13000.00000" pt_clust_8="13000.00000" pt_clust_9="57.27836"></scales>
<clustering>
<clus scale="   57.278">  2  9  1 -1</clus>
<clus scale="   77.614">  5  6 -1 -1</clus>
<clus scale="   89.927">  7  8 -1 -1</clus>
<clus scale="  110.242">  1  5  2 -1</clus>
<clus scale="   57.278">  2  5  1 -1</clus>
</clustering>
</event>
<event>
 9    1  0.2674825E-005  0.1152450E+03  0.7546771E-02  0.1257973E+00
         -4   -1    0    0    0  501 -0.00000000000E+00  0.00000000000E+00  0.32750251813E+03  0.32750251813E+03  0.00000000000E+00 0.  1.
          3   -1    0    0  502    0  0.00000000000E+00 -0.00000000000E+00 -0.20634261893E+03  0.20634261893E+03  0.00000000000E+00 0. -1.
        -24    2    1    2    0    0 -0.31904027627E+02  0.48001888394E+02  0.28333567797E+03  0.30045525481E+03  0.81683569105E+02 0.  0.
         23    2    1    2    0    0  0.64786415621E+02 -0.56076287597E+02 -0.14503788203E+03  0.19544050982E+03  0.99091755330E+02 0.  0.
         13    1    3    3    0    0  0.66030098737E+01  0.39020485260E+02  0.49869907839E+02  0.63664791818E+02  0.00000000000E+00 0. -1.
        -14    1    3    3    0    0 -0.38507037501E+02  0.89814031345E+01  0.23346577014E+03  0.23679046299E+03  0.00000000000E+00 0.  1.
        -11    1    4    4    0    0  0.78512089187E+02 -0.22524426336E+02 -0.55249488552E+02  0.98610364138E+02  0.00000000000E+00 0. -1.
         11    1    4    4    0    0 -0.13725673566E+02 -0.33551861262E+02 -0.89788393479E+02  0.96830145680E+02  0.00000000000E+00 0.  1.
         21    1    1    2  502  501 -0.32882387994E+02  0.80743992028E+01 -0.17137896752E+02  0.37949372428E+02  0.00000000000E+00 0.  1.
<scales pt_clust_5="13000.00000" pt_clust_6="13000.00000" pt_clust_7="13000.00000" pt_clust_8="13000.00000" pt_clust_9="33.85923"></scales>
<clustering>
<clus scale="   33.859">  2  9  1 -1</clus>
<clus scale="   81.684">  5  6 -1 -1</clus>
<clus scale="   99.092">  7  8 -1 -1</clus>
<clus scale="  100.670">  1  5  2 -1</clus>
<clus scale="   33.859">  2  5  1 -1</clus>
</clustering>
</event>
<event>
 9    1  0.2674825E-005  0.1036144E+03  0.7546771E-02  0.1281312E+00
         -2   -1    0    0    0  501 -0.00000000000E+00  0.00000000000E+00  0.20987371628E+02  0.20987371628E+02  0.00000000000E+00 0.  1.
          1   -1    0    0  502    0  0.00000000000E+00 -0.00000000000E+00 -0.86022015904E+03  0.86022015904E+03  0.00000000000E+00 0. -1.
         23    2    1    2    0    0  0.12769067652E+02  0.40141722072E+02 -0.18787532592E+03  0.21392022205E+03  0.93221866381E+02 0.  0.
        -24    2    1    2    0    0 -0.49431511760E+02 -0.12943101517E+02 -0.52615895826E+03  0.53402604276E+03  0.75693901703E+02 0.  0.
         13    1    4    4    0    0 -0.37313060368E+02  0.29217783071E+02 -0.26297601066E+03  0.26721213577E+03  0.00000000000E+00 0. -1.
        -14    1    4    4    0    0 -0.12118451392E+02 -0.42160884588E+02 -0.26318294760E+03  0.26681390699E+03  0.00000000000E+00 0.  1.
        -13    1    3    3    0    0  0.41731003979E+02  0.48964607177E+02 -0.84507922860E+02  0.10621016183E+03  0.00000000000E+00 0.  1.
         13    1    3    3    0    0 -0.28961936327E+02 -0.88228851046E+01 -0.10336740306E+03  0.10771006022E+03  0.00000000000E+00 0. -1.
         21    1    1    2  502  501  0.36662444108E+02 -0.27198620555E+02 -0.12519850324E+03  0.13326126587E+03  0.00000000000E+00 0.  1.
<scales pt_clust_5="13000.00000" pt_clust_6="13000.00000" pt_clust_7="13000.00000" pt_clust_8="13000.00000" pt_clust_9="45.64975"></scales>
<clustering>
<clus scale="   45.650">  1  9  2 -1</clus>
<clus scale="   75.694">  5  6 -1 -1</clus>
<clus scale="   88.177">  2  5  1 -1</clus>
<clus scale="   93.222">  7  8 -1 -1</clus>
<clus scale="   88.177">  2  5  1 -1</clus>
</clustering>
</event>
<event>
 9    1  0.2674825E-005  0.1081156E+03  0.7546771E-02  0.1270947E+00
         -2   -1    0    0    0  501 -0.00000000000E+00  0.00000000000E+00  0.56040663474E+03  0.56040663474E+03  0.00000000000E+00 0.  1.
          1   -1    0    0  502    0  0.00000000000E+00 -0.00000000000E+00 -0.64492373546E+02  0.64492373546E+02  0.00000000000E+00 0. -1.
        -24    2    1    2    0    0 -0.34857934437E+02 -0.45273201615E+02  0.45404009583E+03  0.46456241912E+03  0.80006838815E+02 0.  0.
         23    2    1    2    0    0  0.60850513094E+01 -0.46681852676E+01  0.16111205069E+02  0.97203784297E+02  0.95552001286E+02 0.  0.
         13    1    3    3    0    0 -0.31046545754E+02 -0.50079643015E+02  0.16075862802E+03  0.17121680738E+03  0.00000000000E+00 0. -1.
        -14    1    3    3    0    0 -0.38113886835E+01  0.48064413997E+01  0.29328146781E+03  0.29334561174E+03  0.00000000000E+00 0.  1.
        -11    1    4    4    0    0 -0.36064234630E+02  0.24995301023E+02  0.27840815630E+01  0.43967547155E+02  0.00000000000E+00 0.  1.
         11    1    4    4    0    0  0.42149285939E+02 -0.29663486291E+02  0.13327123507E+02  0.53236237142E+02  0.00000000000E+00 0. -1.
         21    1    1    2  502  501  0.28772883128E+02  0.49941386883E+02  0.25762960288E+02  0.63132804864E+02  0.00000000000E+00 0.  1.
<scales pt_clust_5="13000.00000" pt_clust_6="13000.00000" pt_clust_7="13000.00000" pt_clust_8="13000.00000" pt_clust_9="57.63698"></scales>
<clustering>
<clus scale="   57.637">  2  9  1 -1</clus>
<clus scale="   80.007">  5  6 -1 -1</clus>
<clus scale="   94.657">  1  5  2 -1</clus>
<clus scale="   95.552">  7  8 -1 -1</clus>
<clus scale="   57.637">  2  5  1 -1</clus>
</clustering>
</event>
<event>
 9    1  0.2674825E-005  0.8682244E+02  0.7546771E-02  0.1312316E+00
          1   -1    0    0  502    0  0.00000000000E+00  0.00000000000E+00  0.28820297402E+03  0.28820297402E+03  0.00000000000E+00 0. -1.
         -2   -1    0    0    0  501 -0.00000000000E+00 -0.00000000000E+00 -0.10765939143E+03  0.10765939143E+03  0.00000000000E+00 0.  1.
        -24    2    1    2    0    0 -0.14956288879E+02 -0.28437305950E+02 -0.77448619710E+02  0.11476659755E+03  0.78362696932E+02 0.  0.
         23    2    1    2    0    0 -0.97720311464E+01  0.28372577241E+02  0.21098210994E+03  0.22797851284E+03  0.80995406482E+02 0.  0.
         13    1    3    3    0    0 -0.26375085795E+02 -0.30412642574E+02 -0.40508589587E+01  0.40459651968E+02  0.00000000000E+00 0. -1.
        -14    1    3    3    0    0  0.11418796916E+02  0.19753366242E+01 -0.73397760751E+02  0.74306945578E+02  0.00000000000E+00 0.  1.
        -11    1    4    4    0    0 -0.34801287318E+02 -0.98450770032E+01  0.58290083332E+02  0.68598753305E+02  0.00000000000E+00 0.  1.
         11    1    4    4    0    0  0.25029256172E+02  0.38217654244E+02  0.15269202661E+03  0.15937975954E+03  0.00000000000E+00 0. -1.
         21    1    1    2  502  501  0.24728320026E+02  0.64728709409E-01  0.47010092359E+02  0.53117255056E+02  0.00000000000E+00 0. -1.
<scales pt_clust_5="13000.00000" pt_clust_6="13000.00000" pt_clust_7="13000.00000" pt_clust_8="13000.00000" pt_clust_9="24.72840"></scales>
<clustering>
<clus scale="   24.728">  1  9  2 -1</clus>
<clus scale="   78.363">  5  6 -1 -1</clus>
<clus scale="   80.995">  7  8 -1 -1</clus>
<clus scale="   84.372">  2  5  1 -1</clus>
<clus scale="   24.728">  1  5  2 -1</clus>
</clustering>
</event>
<event>
 9    1  0.2674825E-005  0.9783835E+02  0.7546771E-02  0.1291301E+00
          3   -1    0    0  502    0  0.00000000000E+00  0.00000000000E+00  0.59654870463E+02  0.59654870463E+02  0.00000000000E+00 0. -1.
         -4   -1    0    0    0  501 -0.00000000000E+00 -0.00000000000E+00 -0.44262225477E+03  0.44262225477E+03  0.00000000000E+00 0.  1.
         23    2    1    2    0    0 -0.55551702981E+01 -0.30952774788E+02 -0.36474214284E+03  0.37738895920E+03  0.91633299528E+02 0.  0.
        -24    2    1    2    0    0  0.25136886952E+01  0.55265526673E+02 -0.52539000717E+01  0.97164237515E+02  0.79703754722E+02 0.  0.
         13    1    4    4    0    0  0.16009975902E+02  0.15921569103E+02  0.33443765359E+02  0.40352213477E+02  0.00000000000E+00 0. -1.
        -14    1    4    4    0    0 -0.13496287207E+02  0.39343957570E+02 -0.38697665430E+02  0.56812024039E+02  0.00000000000E+00 0.  1.
        -11    1    3    3    0    0 -0.83154196753E+01  0.31982080871E+02 -0.10292053193E+03  0.10809549294E+03  0.00000000000E+00 0. -1.
         11    1    3    3    0    0  0.27602493771E+01 -0.62934855659E+02 -0.26182161091E+03  0.26929346627E+03  0.00000000000E+00 0.  1.
         21    1    1    2  502  501  0.30414816029E+01 -0.24312751885E+02 -0.12971341394E+02  0.27723928511E+02  0.00000000000E+00 0.  1.
<scales pt_clust_5="13000.00000" pt_clust_6="13000.00000" pt_clust_7="13000.00000" pt_clust_8="13000.00000" pt_clust_9="24.50226"></scales>
<clustering>
<clus scale="   24.502">  1  9  2 -1</clus>
<clus scale="   79.704">  5  6 -1 -1</clus>
<clus scale="   86.766">  1  5  2 -1</clus>
<clus scale="   91.633">  7  8 -1 -1</clus>
<clus scale="   24.502">  1  5  2 -1</clus>
</clustering>
</event>
<event>
 9    1  0.2674825E-005  0.3070110E+03  0.7546771E-02  0.1082276E+00
          1   -1    0    0  502    0  0.00000000000E+00  0.00000000000E+00  0.14151771851E+04  0.14151771851E+04  0.00000000000E+00 0. -1.
         -2   -1    0    0    0  501 -0.00000000000E+00 -0.00000000000E+00 -0.15241053932E+03  0.15241053932E+03  0.00000000000E+00 0.  1.
        -24    2    1    2    0    0  0.23569125498E+03 -0.11895502870E+03  0.15250676065E+03  0.31536668462E+03  0.80605007290E+02 0.  0.
         23    2    1    2    0    0 -0.35946731915E+03  0.75777852473E+02  0.49762946118E+03  0.62572218189E+03  0.94520536444E+02 0.  0.
         13    1    3    3    0    0  0.15813275149E+03 -0.10779724400E+03  0.13732831506E+03  0.23555313419E+03  0.00000000000E+00 0. -1.
        -14    1    3    3    0    0  0.77558503487E+02 -0.11157784695E+02  0.15178445591E+02  0.79813550435E+02  0.00000000000E+00 0.  1.
        -11    1    4    4    0    0 -0.31229368687E+02 -0.20384207548E+02  0.47955204986E+02  0.60749412106E+02  0.00000000000E+00 0.  1.
         11    1    4    4    0    0 -0.32823795046E+03  0.96162060021E+02  0.44967425620E+03  0.56497276978E+03  0.00000000000E+00 0. -1.
         21    1    1    2  502  501  0.12377606417E+03  0.43177176223E+02  0.61263042399E+03  0.62649885794E+03  0.00000000000E+00 0. -1.
<scales pt_clust_5="13000.00000" pt_clust_6="13000.00000" pt_clust_7="13000.00000" pt_clust_8="13000.00000" pt_clust_9="131.09074"></scales>
<clustering>
<clus scale="   80.605">  5  6 -1 -1</clus>
<clus scale="   94.521">  7  8 -1 -1</clus>
<clus scale="  131.091">  1  9  2 -1</clus>
<clus scale="  303.016">  2  5  1 -1</clus>
<clus scale="  131.091">  1  5  2 -1</clus>
</clustering>
</event>
<event>
 9    1  0.2674825E-005  0.9372500E+02  0.7546771E-02  0.1300682E+00
          3   -1    0    0  502    0  0.00000000000E+00  0.00000000000E+00  0.31144061495E+03  0.31144061495E+03  0.00000000000E+00 0. -1.
         -4   -1    0    0    0  501 -0.00000000000E+00 -0.00000000000E+00 -0.54037240506E+02  0.54037240506E+02  0.00000000000E+00 0.  1.
        -24    2    1    2    0    0 -0.13392851089E+02  0.21391664790E+02  0.62335996066E+00  0.83357725674E+02  0.79442747115E+02 0.  0.
         23    2    1    2    0    0  0.24674620049E+02 -0.19951638209E+01  0.21644188138E+03  0.23596097529E+03  0.90651399847E+02 0.  0.
         13    1    3    3    0    0  0.24533449171E+02 -0.16640258704E+02  0.34584923335E+00  0.29646381730E+02  0.00000000000E+00 0. -1.
        -14    1    3    3    0    0 -0.37926300260E+02  0.38031923494E+02  0.27751072731E+00  0.53711343944E+02  0.00000000000E+00 0.  1.
        -13    1    4    4    0    0  0.22896593754E+02  0.25791866986E+02  0.20136509735E+03  0.20429727565E+03  0.00000000000E+00 0.  1.
         13    1    4    4    0    0  0.17780262955E+01 -0.27787030806E+02  0.15076784032E+02  0.31663699646E+02  0.00000000000E+00 0. -1.
         21    1    1    2  502  501 -0.11281768960E+02 -0.19396500969E+02  0.40338133110E+02  0.46159154493E+02  0.00000000000E+00 0. -1.
<scales pt_clust_5="13000.00000" pt_clust_6="13000.00000" pt_clust_7="13000.00000" pt_clust_8="13000.00000" pt_clust_9="22.43886"></scales>
<clustering>
<clus scale="   22.439">  1  9  2 -1</clus>
<clus scale="   79.443">  5  6 -1 -1</clus>
<clus scale="   82.933">  2  5  1 -1</clus>
<clus scale="   90.651">  7  8 -1 -1</clus>
<clus scale="   22.439">  1  5  2 -1</clus>
</clustering>
</event>
<event>
 9    1  0.2674825E-005  0.9860335E+02  0.7546771E-02  0.1290066E+00
         -2   -1    0    0    0  501 -0.00000000000E+00  0.00000000000E+00  0.77375241603E+02  0.77375241603E+02  0.00000000000E+00 0.  1.
          1   -1    0    0  502    0  0.00000000000E+00 -0.00000000000E+00 -0.43014416383E+03  0.43014416383E+03  0.00000000000E+00 0. -1.
        -24    2    1    2    0    0  0.31629967616E+02 -0.20079797479E+02  0.37936844722E+02  0.95206164948E+02  0.78875576312E+02 0.  0.
         23    2    1    2    0    0 -0.30761639845E+02 -0.29339723305E+01 -0.22406948964E+03  0.24409303804E+03  0.91757225076E+02 0.  0.
         11    1    3    3    0    0  0.26531957318E+02 -0.49863741568E+02  0.30038708339E+02  0.63973912503E+02  0.00000000000E+00 0. -1.
        -12    1    3    3    0    0  0.50980102980E+01  0.29783944089E+02  0.78981363835E+01  0.31232252445E+02  0.00000000000E+00 0.  1.
        -11    1    4    4    0    0 -0.41494261649E+02  0.34736513329E+02 -0.16098965451E+03  0.16984130230E+03  0.00000000000E+00 0.  1.
         11    1    4    4    0    0  0.10732621804E+02 -0.37670485659E+02 -0.63079835127E+02  0.74251735739E+02  0.00000000000E+00 0. -1.
         21    1    1    2  502  501 -0.86832777053E+00  0.23013769810E+02 -0.16663627731E+03  0.16822020244E+03  0.00000000000E+00 0.  1.
<scales pt_clust_5="13000.00000" pt_clust_6="13000.00000" pt_clust_7="13000.00000" pt_clust_8="13000.00000" pt_clust_9="23.03015"></scales>
<clustering>
<clus scale="   23.030">  2  9  1 -1</clus>
<clus scale="   78.876">  5  6 -1 -1</clus>
<clus scale="   86.744">  1  5  2 -1</clus>
<clus scale="   91.757">  7  8 -1 -1</clus>
<clus scale="   23.030">  2  5  1 -1</clus>
</clustering>
</event>
<event>
 9    1  0.2674825E-005  0.9531658E+02  0.7546771E-02  0.1292747E+00
          1   -1    0    0  502    0  0.00000000000E+00  0.00000000000E+00  0.51863145714E+03  0.51863145714E+03  0.00000000000E+00 0. -1.
         -2   -1    0    0    0  501 -0.00000000000E+00 -0.00000000000E+00 -0.62753574803E+02  0.62753574803E+02  0.00000000000E+00 0.  1.
        -24    2    1    2    0    0 -0.35423769926E+02 -0.17080422085E+02 -0.12873375698E+02  0.90969547585E+02  0.81013273552E+02 0.  0.
         23    2    1    2    0    0  0.60946484269E+02  0.18170362575E+02  0.27379871329E+03  0.29379633061E+03  0.85474630502E+02 0.  0.
         13    1    3    3    0    0 -0.20776475760E+02 -0.32634964404E+02  0.25999548452E+02  0.46612008822E+02  0.00000000000E+00 0. -1.
        -14    1    3    3    0    0 -0.14647294165E+02  0.15554542320E+02 -0.38872924151E+02  0.44357538763E+02  0.00000000000E+00 0.  1.
        -11    1    4    4    0    0  0.38162211647E+02  0.27637318772E+02  0.26243672305E+03  0.26663309883E+03  0.00000000000E+00 0. -1.
         11    1    4    4    0    0  0.22784272621E+02 -0.94669561968E+01  0.11361990242E+02  0.27163231781E+02  0.00000000000E+00 0.  1.
         21    1    1    2  502  501 -0.25522714343E+02 -0.10899404901E+01  0.19495254474E+03  0.19661915374E+03  0.00000000000E+00 0. -1.
<scales pt_clust_5="13000.00000" pt_clust_6="13000.00000" pt_clust_7="13000.00000" pt_clust_8="13000.00000" pt_clust_9="25.54598"></scales>
<clustering>
<clus scale="   25.546">  1  9  2 -1</clus>
<clus scale="   81.013">  5  6 -1 -1</clus>
<clus scale="   85.475">  7  8 -1 -1</clus>
<clus scale="   91.337">  2  5  1 -1</clus>
<clus scale="   25.546">  1  5  2 -1</clus>
</clustering>
</event>
<event>
 9    1  0.2674825E-005  0.9424869E+02  0.7546771E-02  0.1299550E+00
         -4   -1    0    0    0  501 -0.00000000000E+00  0.00000000000E+00  0.53662593145E+03  0.53662593145E+03  0.00000000000E+00 0.  1.
          3   -1    0    0  502    0  0.00000000000E+00 -0.00000000000E+00 -0.28552677711E+02  0.28552677711E+02  0.00000000000E+00 0. -1.
         23    2    1    2    0    0 -0.20228708206E+02  0.32458823958E+02  0.30880033688E+03  0.32416854344E+03  0.90911058785E+02 0.  0.
        -24    2    1    2    0    0  0.22632406311E+02  0.13203626881E+02  0.16070768593E+03  0.18119272528E+03  0.79481329876E+02 0.  0.
         11    1    4    4    0    0 -0.83488196206E+01 -0.28729201538E+02  0.42256956955E+02  0.51775672097E+02  0.00000000000E+00 0. -1.
        -12    1    4    4    0    0  0.30981225932E+02  0.41932828419E+02  0.11845072897E+03  0.12941705318E+03  0.00000000000E+00 0.  1.
        -13    1    3    3    0    0  0.60157269805E+01 -0.25691131577E+02  0.40130765172E+02  0.48028132653E+02  0.00000000000E+00 0.  1.
         13    1    3    3    0    0 -0.26244435187E+02  0.58149955536E+02  0.26866957171E+03  0.27614041078E+03  0.00000000000E+00 0. -1.
         21    1    1    2  502  501 -0.24036981049E+01 -0.45662450840E+02  0.38565230933E+02  0.59817340447E+02  0.00000000000E+00 0. -1.
<scales pt_clust_5="13000.00000" pt_clust_6="13000.00000" pt_clust_7="13000.00000" pt_clust_8="13000.00000" pt_clust_9="45.72567"></scales>
<clustering>
<clus scale="   45.726">  2  9  1 -1</clus>
<clus scale="   79.481">  5  6 -1 -1</clus>
<clus scale="   83.278">  2  5  1 -1</clus>
<clus scale="   90.911">  7  8 -1 -1</clus>
<clus scale="   45.726">  2  5  1 -1</clus>
</clustering>
</event>
<event>
 9    1  0.2674825E-005  0.1031640E+03  0.7546771E-02  0.1280429E+00
         -2   -1    0    0    0  501 -0.00000000000E+00  0.00000000000E+00  0.70438099789E+02  0.70438099789E+02  0.00000000000E+00 0.  1.
          1   -1    0    0  502    0  0.00000000000E+00 -0.00000000000E+00 -0.73462238709E+03  0.73462238709E+03  0.00000000000E+00 0. -1.
        -24    2    1    2    0    0 -0.50076907842E+01  0.42945542580E+02  0.25536327513E+02  0.93768471141E+02  0.79189807190E+02 0.  0.
         23    2    1    2    0    0  0.55730688165E+02 -0.55127747978E+02 -0.48168428838E+03  0.49681511323E+03  0.93061941009E+02 0.  0.
         11    1    3    3    0    0  0.19527077569E+02 -0.66968391537E+01 -0.14680131197E+02  0.25331021791E+02  0.00000000000E+00 0. -1.
        -12    1    3    3    0    0 -0.24534768353E+02  0.49642381734E+02  0.40216458710E+02  0.68437449350E+02  0.00000000000E+00 0.  1.
        -11    1    4    4    0    0  0.68007350396E+02 -0.73031357299E+02 -0.40543830402E+03  0.41753897689E+03  0.00000000000E+00 0. -1.
         11    1    4    4    0    0 -0.12276662231E+02  0.17903609321E+02 -0.76245984355E+02  0.79276136337E+02  0.00000000000E+00 0.  1.
         21    1    1    2  502  501 -0.50722997380E+02  0.12182205398E+02 -0.20803632644E+03  0.21447690251E+03  0.00000000000E+00 0. -1.
<scales pt_clust_5="13000.00000" pt_clust_6="13000.00000" pt_clust_7="13000.00000" pt_clust_8="13000.00000" pt_clust_9="52.16540"></scales>
<clustering>
<clus scale="   52.165">  2  9  1 -1</clus>
<clus scale="   79.190">  5  6 -1 -1</clus>
<clus scale="   90.848">  1  5  2 -1</clus>
<clus scale="   93.062">  7  8 -1 -1</clus>
<clus scale="   52.165">  2  5  1 -1</clus>
</clustering>
</event>
<event>
 9    1  0.2674825E-005  0.9193778E+02  0.7546771E-02  0.1310578E+00
          1   -1    0    0  502    0  0.00000000000E+00  0.00000000000E+00  0.12385522057E+03  0.12385522057E+03  0.00000000000E+00 0. -1.
         -2   -1    0    0    0  501 -0.00000000000E+00 -0.00000000000E+00 -0.14798870780E+03  0.14798870780E+03  0.00000000000E+00 0.  1.
         23    2    1    2    0    0  0.58757476875E+01 -0.40999727778E+01 -0.10450750759E+03  0.13930172363E+03  0.91824925122E+02 0.  0.
        -24    2    1    2    0    0  0.21457429078E+02  0.62763734779E+01  0.48972454904E+02  0.90854105893E+02  0.73187110147E+02 0.  0.
         13    1    4    4    0    0  0.31581334287E+02 -0.26152539877E+02  0.17635223998E+02  0.44635603982E+02  0.00000000000E+00 0. -1.
        -14    1    4    4    0    0 -0.10123905209E+02  0.32428913355E+02  0.31337230906E+02  0.46218501911E+02  0.00000000000E+00 0.  1.
        -11    1    3    3    0    0 -0.16567956279E+02  0.37552329178E+02 -0.68455296371E+02  0.79817305161E+02  0.00000000000E+00 0.  1.
         11    1    3    3    0    0  0.22443703966E+02 -0.41652301956E+02 -0.36052211223E+02  0.59484418464E+02  0.00000000000E+00 0. -1.
         21    1    1    2  502  501 -0.27333176766E+02 -0.21764007002E+01  0.31401565459E+02  0.41688098846E+02  0.00000000000E+00 0. -1.
<scales pt_clust_5="13000.00000" pt_clust_6="13000.00000" pt_clust_7="13000.00000" pt_clust_8="13000.00000" pt_clust_9="27.41969"></scales>
<clustering>
<clus scale="   27.420">  1  9  2 -1</clus>
<clus scale="   73.187">  5  6 -1 -1</clus>
<clus scale="   73.329">  1  5  2 -1</clus>
<clus scale="   91.825">  7  8 -1 -1</clus>
<clus scale="   27.420">  1  5  2 -1</clus>
</clustering>
</event>
<event>
 9    1  0.2674825E-005  0.1482299E+03  0.7546771E-02  0.1204963E+00
         -2   -1    0    0    0  501 -0.00000000000E+00  0.00000000000E+00  0.15768403402E+03  0.15768403402E+03  0.00000000000E+00 0.  1.
          1   -1    0    0  502    0  0.00000000000E+00 -0.00000000000E+00 -0.34005711267E+03  0.34005711267E+03  0.00000000000E+00 0. -1.
         23    2    1    2    0    0  0.11659137835E+03  0.25636691150E+02  0.73144356393E+02  0.16780405055E+03  0.92505746151E+02 0.  0.
        -24    2    1    2    0    0 -0.98559203397E+02 -0.44465703694E+02 -0.89338162815E+02  0.16172520129E+03  0.80514706842E+02 0.  0.
         13    1    4    4    0    0 -0.51946762965E+02 -0.25060041296E+02 -0.94772743684E+02  0.11094297994E+03  0.00000000000E+00 0. -1.
        -14    1    4    4    0    0 -0.46612440432E+02 -0.19405662398E+02  0.54345808691E+01  0.50782221351E+02  0.00000000000E+00 0.  1.
        -13    1    3    3    0    0  0.70126926786E+02  0.16183965453E+02  0.91974059691E+02  0.11678584783E+03  0.00000000000E+00 0.  1.
         13    1    3    3    0    0  0.46464451566E+02  0.94527256977E+01 -0.18829703298E+02  0.51018202720E+02  0.00000000000E+00 0. -1.
         21    1    1    2  502  501 -0.18032174956E+02  0.18829012544E+02 -0.16617927223E+03  0.16821189484E+03  0.00000000000E+00 0. -1.
<scales pt_clust_5="13000.00000" pt_clust_6="13000.00000" pt_clust_7="13000.00000" pt_clust_8="13000.00000" pt_clust_9="26.07089"></scales>
<clustering>
<clus scale="   26.071">  2  9  1 -1</clus>
<clus scale="   80.515">  5  6 -1 -1</clus>
<clus scale="   92.506">  7  8 -1 -1</clus>
<clus scale="  141.058">  2  5  1 -1</clus>
<clus scale="   26.071">  2  5  1 -1</clus>
</clustering>
</event>
<event>
 9    1  0.2674825E-005  0.1027837E+03  0.7546771E-02  0.1275269E+00
          1   -1    0    0  502    0  0.00000000000E+00  0.00000000000E+00  0.21845155995E+03  0.21845155995E+03  0.00000000000E+00 0. -1.
         -2   -1    0    0    0  501 -0.00000000000E+00 -0.00000000000E+00 -0.11415467891E+04  0.11415467891E+04  0.00000000000E+00 0.  1.
        -24    2    1    2    0    0 -0.35812955776E+02 -0.28836845621E+02 -0.99494892809E+03  0.10004428322E+04  0.94065718708E+02 0.  0.
         23    2    1    2    0    0 -0.20823154967E+02  0.35122561390E+01 -0.12176903977E+03  0.15623618960E+03  0.95582990993E+02 0.  0.
         11    1    3    3    0    0  0.19766770709E+02 -0.15912471665E+02 -0.85013370014E+02  0.88719812105E+02  0.00000000000E+00 0. -1.
        -12    1    3    3    0    0 -0.55579726485E+02 -0.12924373956E+02 -0.90993555808E+03  0.91172302005E+03  0.00000000000E+00 0.  1.
        -11    1    4    4    0    0 -0.49795968296E+02 -0.24369106149E+02 -0.86552188038E+02  0.10278508183E+03  0.00000000000E+00 0.  1.
         11    1    4    4    0    0  0.28972813329E+02  0.27881362288E+02 -0.35216851731E+02  0.53451107763E+02  0.00000000000E+00 0. -1.
         21    1    1    2  502  501  0.56636110743E+02  0.25324589482E+02  0.19362273875E+03  0.20331932725E+03  0.00000000000E+00 0. -1.
<scales pt_clust_5="13000.00000" pt_clust_6="13000.00000" pt_clust_7="13000.00000" pt_clust_8="13000.00000" pt_clust_9="62.04018"></scales>
<clustering>
<clus scale="   62.040">  1  9  2 -1</clus>
<clus scale="   94.066">  5  6 -1 -1</clus>
<clus scale="   95.583">  7  8 -1 -1</clus>
<clus scale="  101.374">  2  5  1 -1</clus>
<clus scale="   62.040">  1  5  2 -1</clus>
</clustering>
</event>
<event>
 9    1  0.2674825E-005  0.2647990E+03  0.7546771E-02  0.1104743E+00
          1   -1    0    0  502    0  0.00000000000E+00  0.00000000000E+00  0.29255404381E+03  0.29255404381E+03  0.00000000000E+00 0. -1.
         -2   -1    0    0    0  501 -0.00000000000E+00 -0.00000000000E+00 -0.56574531271E+03  0.56574531271E+03  0.00000000000E+00 0.  1.
        -24    2    1    2    0    0  0.20429360402E+03  0.14092258631E+03 -0.41435312631E+03  0.48919322831E+03  0.77630209070E+02 0.  0.
         23    2    1    2    0    0 -0.24956238968E+03 -0.13778105984E+03  0.13797931978E+03  0.32361700106E+03  0.66518147082E+02 0.  0.
         11    1    3    3    0    0  0.94952246072E+02  0.21392565235E+02 -0.13827583005E+03  0.16909694278E+03  0.00000000000E+00 0. -1.
        -12    1    3    3    0    0  0.10934135795E+03  0.11953002108E+03 -0.27607729626E+03  0.32009628552E+03  0.00000000000E+00 0.  1.
        -11    1    4    4    0    0 -0.19577243481E+03 -0.11394635268E+03  0.77929039045E+02  0.23954864359E+03  0.00000000000E+00 0.  1.
         11    1    4    4    0    0 -0.53789954872E+02 -0.23834707164E+02  0.60050280733E+02  0.84068357465E+02  0.00000000000E+00 0. -1.
         21    1    1    2  502  501  0.45268785664E+02 -0.31415264737E+01  0.31825376355E+01  0.45489127161E+02  0.00000000000E+00 0. -1.
<scales pt_clust_5="13000.00000" pt_clust_6="13000.00000" pt_clust_7="13000.00000" pt_clust_8="13000.00000" pt_clust_9="45.37766"></scales>
<clustering>
<clus scale="   45.378">  1  9  2 -1</clus>
<clus scale="   66.518">  7  8 -1 -1</clus>
<clus scale="   77.630">  5  6 -1 -1</clus>
<clus scale="  261.757">  1  7  2 -1</clus>
<clus scale="   45.378">  1  5  2 -1</clus>
</clustering>
</event>
<event>
 9    1  0.2674825E-005  0.1093708E+03  0.7546771E-02  0.1266117E+00
          1   -1    0    0  502    0  0.00000000000E+00  0.00000000000E+00  0.30256007304E+03  0.30256007304E+03  0.00000000000E+00 0. -1.
         -2   -1    0    0    0  501 -0.00000000000E+00 -0.00000000000E+00 -0.25374232719E+03  0.25374232719E+03  0.00000000000E+00 0.  1.
         23    2    1    2    0    0 -0.60739823998E+02 -0.11168891235E+02 -0.22556176079E+03  0.25054004475E+03  0.89878449809E+02 0.  0.
        -24    2    1    2    0    0  0.68661817410E+02  0.33450318343E+02  0.24169022654E+03  0.26541624034E+03  0.78728940461E+02 0.  0.
         11    1    4    4    0    0  0.62537853917E+02  0.42111792141E+02  0.24327549846E+03  0.25469070332E+03  0.00000000000E+00 0. -1.
        -12    1    4    4    0    0  0.61239634928E+01 -0.86614737975E+01 -0.15852719223E+01  0.10725537016E+02  0.00000000000E+00 0.  1.
        -11    1    3    3    0    0 -0.66924581537E+02  0.13070927268E+02 -0.91223617295E+02  0.11389248046E+03  0.00000000000E+00 0.  1.
         11    1    3    3    0    0  0.61847575396E+01 -0.24239818503E+02 -0.13433814350E+03  0.13664756428E+03  0.00000000000E+00 0. -1.
         21    1    1    2  502  501 -0.79219934120E+01 -0.22281427108E+02  0.32689280107E+02  0.40346115148E+02  0.00000000000E+00 0. -1.
<scales pt_clust_5="13000.00000" pt_clust_6="13000.00000" pt_clust_7="13000.00000" pt_clust_8="13000.00000" pt_clust_9="23.64783"></scales>
<clustering>
<clus scale="   23.648">  1  9  2 -1</clus>
<clus scale="   78.729">  5  6 -1 -1</clus>
<clus scale="   89.878">  7  8 -1 -1</clus>
<clus scale="  100.410">  1  5  2 -1</clus>
<clus scale="   23.648">  1  5  2 -1</clus>
</clustering>
</event>
<event>
 9    1  0.2674825E-005  0.9217091E+02  0.7546771E-02  0.1302591E+00
          1   -1    0    0  502    0  0.00000000000E+00  0.00000000000E+00  0.30745187496E+03  0.30745187496E+03  0.00000000000E+00 0. -1.
         -2   -1    0    0    0  501 -0.00000000000E+00 -0.00000000000E+00 -0.64696522916E+02  0.64696522916E+02  0.00000000000E+00 0.  1.
         23    2    1    2    0    0 -0.18637940090E+02  0.16643365207E+02 -0.73470680748E+01  0.93607894337E+02  0.89911534614E+02 0.  0.
        -24    2    1    2    0    0 -0.28833796438E+01 -0.11664305227E+02  0.11465752692E+03  0.14130611523E+03  0.81711075302E+02 0.  0.
         13    1    4    4    0    0 -0.20620598145E+02 -0.38725176410E+02  0.91632177056E+02  0.10159381983E+03  0.00000000000E+00 0. -1.
        -14    1    4    4    0    0  0.17737218501E+02  0.27060871183E+02  0.23025349863E+02  0.39712295396E+02  0.00000000000E+00 0.  1.
        -11    1    3    3    0    0  0.17147930310E+02 -0.29892443827E+02 -0.13389464817E+00  0.34461973821E+02  0.00000000000E+00 0. -1.
         11    1    3    3    0    0 -0.35785870401E+02  0.46535809034E+02 -0.72131734266E+01  0.59145920516E+02  0.00000000000E+00 0.  1.
         21    1    1    2  502  501  0.21521319734E+02 -0.49790599805E+01  0.13544489320E+03  0.13723438831E+03  0.00000000000E+00 0. -1.
<scales pt_clust_5="13000.00000" pt_clust_6="13000.00000" pt_clust_7="13000.00000" pt_clust_8="13000.00000" pt_clust_9="22.08978"></scales>
<clustering>
<clus scale="   22.090">  1  9  2 -1</clus>
<clus scale="   81.711">  5  6 -1 -1</clus>
<clus scale="   84.191">  1  5  2 -1</clus>
<clus scale="   89.912">  7  8 -1 -1</clus>
<clus scale="   22.090">  1  5  2 -1</clus>
</clustering>
</event>
<event>
 9    1  0.2674825E-005  0.1059799E+03  0.7546771E-02  0.1272998E+00
         -2   -1    0    0    0  501 -0.00000000000E+00  0.00000000000E+00  0.29779390464E+03  0.29779390464E+03  0.00000000000E+00 0.  1.
          1   -1    0    0  502    0  0.00000000000E+00 -0.00000000000E+00 -0.56804661990E+02  0.56804661990E+02  0.00000000000E+00 0. -1.
        -24    2    1    2    0    0 -0.14518108651E+01  0.60996481658E+02  0.17637075040E+03  0.20352207887E+03  0.81190618077E+02 0.  0.
         23    2    1    2    0    0 -0.15229655369E+02 -0.29505426179E+02  0.32792543504E+02  0.10329731965E+03  0.92154613349E+02 0.  0.
         11    1    3    3    0    0 -0.20925991086E+02  0.57075737133E+02  0.59809500142E+02  0.85280203913E+02  0.00000000000E+00 0. -1.
        -12    1    3    3    0    0  0.19474180221E+02  0.39207445248E+01  0.11656125026E+03  0.11824187496E+03  0.00000000000E+00 0.  1.
        -13    1    4    4    0    0  0.29023908661E+02 -0.40490954850E+02  0.28756031035E+02  0.57522291501E+02  0.00000000000E+00 0.  1.
         13    1    4    4    0    0 -0.44253564030E+02  0.10985528671E+02  0.40365124686E+01  0.45775028153E+02  0.00000000000E+00 0. -1.
         21    1    1    2  502  501  0.16681466234E+02 -0.31491055480E+02  0.31825948752E+02  0.47779168106E+02  0.00000000000E+00 0.  1.
<scales pt_clust_5="13000.00000" pt_clust_6="13000.00000" pt_clust_7="13000.00000" pt_clust_8="13000.00000" pt_clust_9="35.63647"></scales>
<clustering>
<clus scale="   35.636">  2  9  1 -1</clus>
<clus scale="   81.191">  5  6 -1 -1</clus>
<clus scale="   92.155">  7  8 -1 -1</clus>
<clus scale="   96.598">  1  5  2 -1</clus>
<clus scale="   35.636">  2  5  1 -1</clus>
</clustering>
</event>
<event>
 9    1  0.2674825E-005  0.1037575E+03  0.7546771E-02  0.1276992E+00
         -2   -1    0    0    0  501 -0.00000000000E+00  0.00000000000E+00  0.26303229864E+03  0.26303229864E+03  0.00000000000E+00 0.  1.
          1   -1    0    0  502    0  0.00000000000E+00 -0.00000000000E+00 -0.17479009465E+03  0.17479009465E+03  0.00000000000E+00 0. -1.
        -24    2    1    2    0    0  0.48972770466E+02  0.22049027442E+02  0.21658207466E+03  0.23741836697E+03  0.81087570273E+02 0.  0.
         23    2    1    2    0    0 -0.16673295559E+02 -0.26550180389E+02 -0.36227990649E+02  0.10268957039E+03  0.90828242836E+02 0.  0.
         13    1    3    3    0    0  0.31777021906E+02 -0.24402590111E+02  0.52615885316E+02  0.66133931630E+02  0.00000000000E+00 0. -1.
        -14    1    3    3    0    0  0.17195748560E+02  0.46451617552E+02  0.16396618935E+03  0.17128443534E+03  0.00000000000E+00 0.  1.
        -11    1    4    4    0    0  0.76542900288E+01 -0.54767298813E+02 -0.78448513215E+01  0.55853261922E+02  0.00000000000E+00 0. -1.
         11    1    4    4    0    0 -0.24327585588E+02  0.28217118424E+02 -0.28383139327E+02  0.46836308467E+02  0.00000000000E+00 0.  1.
         21    1    1    2  502  501 -0.32299474907E+02  0.45011529468E+01 -0.92111880022E+02  0.97714455933E+02  0.00000000000E+00 0. -1.
<scales pt_clust_5="13000.00000" pt_clust_6="13000.00000" pt_clust_7="13000.00000" pt_clust_8="13000.00000" pt_clust_9="32.61160"></scales>
<clustering>
<clus scale="   32.612">  2  9  1 -1</clus>
<clus scale="   81.088">  5  6 -1 -1</clus>
<clus scale="   90.828">  7  8 -1 -1</clus>
<clus scale="   95.347">  1  5  2 -1</clus>
<clus scale="   32.612">  2  5  1 -1</clus>
</clustering>
</event>
<event>
 9    1  0.2674825E-005  0.3532279E+03  0.7546771E-02  0.1114709E+00
         -2   -1    0    0    0  501 -0.00000000000E+00  0.00000000000E+00  0.20354288441E+03  0.20354288441E+03  0.00000000000E+00 0.  1.
          1   -1    0    0  502    0  0.00000000000E+00 -0.00000000000E+00 -0.95019144355E+03  0.95019144355E+03  0.00000000000E+00 0. -1.
        -24    2    1    2    0    0  0.29157742834E+02 -0.51192860131E+01  0.46448622189E+02  0.97337692833E+02  0.80254413501E+02 0.  0.
         23    2    1    2    0    0 -0.96286392761E+02  0.33350222351E+03 -0.46497179296E+03  0.58734665936E+03  0.91008392466E+02 0.  0.
         13    1    3    3    0    0  0.31804164434E+02  0.33801340915E+02  0.22682146831E+02  0.51657674240E+02  0.00000000000E+00 0. -1.
        -14    1    3    3    0    0 -0.26464216007E+01 -0.38920626928E+02  0.23766475358E+02  0.45680018593E+02  0.00000000000E+00 0.  1.
        -13    1    4    4    0    0 -0.47139826535E+02  0.25468025146E+03 -0.38904131682E+03  0.46737280615E+03  0.00000000000E+00 0. -1.
         13    1    4    4    0    0 -0.49146566226E+02  0.78821972044E+02 -0.75930476141E+02  0.11997385322E+03  0.00000000000E+00 0.  1.
         21    1    1    2  502  501  0.67128649927E+02 -0.32838293749E+03 -0.32812538836E+03  0.46904997577E+03  0.00000000000E+00 0.  1.
<scales pt_clust_5="13000.00000" pt_clust_6="13000.00000" pt_clust_7="13000.00000" pt_clust_8="13000.00000" pt_clust_9="341.30250"></scales>
<clustering>
<clus scale="   80.254">  5  6 -1 -1</clus>
<clus scale="   85.540">  1  5  2 -1</clus>
<clus scale="   91.008">  7  8 -1 -1</clus>
<clus scale="  341.303">  1  9  2 -1</clus>
<clus scale="  353.228">  2  5  1 -1</clus>
</clustering>
</event>
<event>
 9    1  0.2674825E-005  0.1709055E+03  0.7546771E-02  0.1192698E+00
          1   -1    0    0  502    0  0.00000000000E+00  0.00000000000E+00  0.10929896216E+04  0.10929896216E+04  0.00000000000E+00 0. -1.
         -2   -1    0    0    0  501 -0.00000000000E+00 -0.00000000000E+00 -0.76853204509E+02  0.76853204509E+02  0.00000000000E+00 0.  1.
        -24    2    1    2    0    0 -0.84074497900E+02 -0.34476931596E+02  0.17296736624E+03  0.21062555340E+03  0.78665328782E+02 0.  0.
         23    2    1    2    0    0 -0.93239285452E+02 -0.91962602613E+02  0.64645139740E+03  0.66574671411E+03  0.90380271743E+02 0.  0.
         13    1    3    3    0    0 -0.89624979733E+02 -0.15724757497E+02  0.10053418224E+03  0.13559877134E+03  0.00000000000E+00 0. -1.
        -14    1    3    3    0    0  0.55504818324E+01 -0.18752174098E+02  0.72433184001E+02  0.75026782062E+02  0.00000000000E+00 0.  1.
        -11    1    4    4    0    0 -0.69493097854E+02 -0.59277788151E+01  0.27063874715E+03  0.27948123492E+03  0.00000000000E+00 0.  1.
         11    1    4    4    0    0 -0.23746187598E+02 -0.86034823798E+02  0.37581265025E+03  0.38626547920E+03  0.00000000000E+00 0. -1.
         21    1    1    2  502  501  0.17731378335E+03  0.12643953421E+03  0.19671765343E+03  0.29347055857E+03  0.00000000000E+00 0.  1.
<scales pt_clust_5="13000.00000" pt_clust_6="13000.00000" pt_clust_7="13000.00000" pt_clust_8="13000.00000" pt_clust_9="145.05206"></scales>
<clustering>
<clus scale="   78.665">  5  6 -1 -1</clus>
<clus scale="   90.380">  7  8 -1 -1</clus>
<clus scale="  120.189">  2  5  1 -1</clus>
<clus scale="  145.052">  2  9  1 -1</clus>
<clus scale="  170.906">  1  5  2 -1</clus>
</clustering>
</event>
<event>
 9    1  0.2674825E-005  0.1202702E+03  0.7546771E-02  0.1245185E+00
         -2   -1    0    0    0  501 -0.00000000000E+00  0.00000000000E+00  0.35970310442E+02  0.35970310442E+02  0.00000000000E+00 0.  1.
          1   -1    0    0  502    0  0.00000000000E+00 -0.00000000000E+00 -0.10419386281E+04  0.10419386281E+04  0.00000000000E+00 0. -1.
         23    2    1    2    0    0  0.47245905365E+02 -0.59557295124E+02 -0.98117367549E+02  0.15313654842E+03  0.89691346690E+02 0.  0.
        -24    2    1    2    0    0 -0.52700270980E+02  0.93919560575E+02 -0.80362367591E+03  0.81489136320E+03  0.81478333972E+02 0.  0.
         13    1    4    4    0    0 -0.47780769350E+02  0.10263847825E+03 -0.57450840949E+03  0.58555748796E+03  0.00000000000E+00 0. -1.
        -14    1    4    4    0    0 -0.49195016294E+01 -0.87189176701E+01 -0.22911526643E+03  0.22933387524E+03  0.00000000000E+00 0.  1.
        -11    1    3    3    0    0  0.11319098999E+00  0.22259869370E+02 -0.26610543472E+02  0.34693452126E+02  0.00000000000E+00 0. -1.
         11    1    3    3    0    0  0.47132714375E+02 -0.81817164494E+02 -0.71506824077E+02  0.11844309629E+03  0.00000000000E+00 0.  1.
         21    1    1    2  502  501  0.54543656148E+01 -0.34362265451E+02 -0.10422727417E+03  0.10988102690E+03  0.00000000000E+00 0.  1.
<scales pt_clust_5="13000.00000" pt_clust_6="13000.00000" pt_clust_7="13000.00000" pt_clust_8="13000.00000" pt_clust_9="34.79246"></scales>
<clustering>
<clus scale="   34.792">  2  9  1 -1</clus>
<clus scale="   81.478">  5  6 -1 -1</clus>
<clus scale="   89.691">  7  8 -1 -1</clus>
<clus scale="  114.276">  2  5  1 -1</clus>
<clus scale="   34.792">  2  5  1 -1</clus>
</clustering>
</event>
<event>
 9    1  0.2674825E-005  0.1779489E+03  0.7546771E-02  0.1172540E+00
         -2   -1    0    0    0  501 -0.00000000000E+00  0.00000000000E+00  0.29737878223E+03  0.29737878223E+03  0.00000000000E+00 0.  1.
          1   -1    0    0  502    0  0.00000000000E+00 -0.00000000000E+00 -0.25830103931E+03  0.25830103931E+03  0.00000000000E+00 0. -1.
        -24    2    1    2    0    0  0.14000454578E+03 -0.50600196900E+02  0.23110581155E+03  0.28640746768E+03  0.80359745170E+02 0.  0.
         23    2    1    2    0    0 -0.12153147622E+03  0.42230997863E+02 -0.18696773414E+03  0.24837008661E+03  0.10088314737E+03 0.  0.
         11    1    3    3    0    0  0.40889948759E+02  0.83583791603E+01  0.11679943149E+03  0.12403208298E+03  0.00000000000E+00 0. -1.
        -12    1    3    3    0    0  0.99114597017E+02 -0.58958576060E+02  0.11430638006E+03  0.16237538470E+03  0.00000000000E+00 0.  1.
        -11    1    4    4    0    0 -0.67886831923E+02 -0.25914308096E+02 -0.11319235929E+03  0.13450904622E+03  0.00000000000E+00 0. -1.
         11    1    4    4    0    0 -0.53644644295E+02  0.68145305959E+02 -0.73775374847E+02  0.11386104039E+03  0.00000000000E+00 0.  1.
         21    1    1    2  502  501 -0.18473069558E+02  0.83691990374E+01 -0.50603344949E+01  0.20902267260E+02  0.00000000000E+00 0. -1.
<scales pt_clust_5="13000.00000" pt_clust_6="13000.00000" pt_clust_7="13000.00000" pt_clust_8="13000.00000" pt_clust_9="20.28048"></scales>
<clustering>
<clus scale="   20.280">  2  9  1 -1</clus>
<clus scale="   80.360">  5  6 -1 -1</clus>
<clus scale="  100.883">  7  8 -1 -1</clus>
<clus scale="  167.171">  1  5  2 -1</clus>
<clus scale="   20.280">  2  5  1 -1</clus>
</clustering>
</event>
<event>
 9    1  0.2674825E-005  0.1198235E+03  0.7546771E-02  0.1258687E+00
         -2   -1    0    0    0  501 -0.00000000000E+00  0.00000000000E+00  0.13814280340E+03  0.13814280340E+03  0.00000000000E+00 0.  1.
          1   -1    0    0  502    0  0.00000000000E+00 -0.00000000000E+00 -0.45925625258E+03  0.45925625258E+03  0.00000000000E+00 0. -1.
         23    2    1    2    0    0 -0.29675508259E+02 -0.65628700469E+02  0.75641499536E+02  0.13844552474E+03  0.90872244133E+02 0.  0.
        -24    2    1    2    0    0 -0.34568262944E+02 -0.10837533999E+02 -0.32284942767E+03  0.33471032943E+03  0.80540888610E+02 0.  0.
         13    1    4    4    0    0 -0.25406440124E+02  0.23668522141E+02 -0.59022649705E+02  0.68478896883E+02  0.00000000000E+00 0. -1.
        -14    1    4    4    0    0 -0.91618228200E+01 -0.34506056140E+02 -0.26382677796E+03  0.26623143255E+03  0.00000000000E+00 0.  1.
        -11    1    3    3    0    0  0.32204022071E+02 -0.14624797808E+02  0.28518940635E+02  0.45434719361E+02  0.00000000000E+00 0. -1.
         11    1    3    3    0    0 -0.61879530330E+02 -0.51003902661E+02  0.47122558902E+02  0.93010805383E+02  0.00000000000E+00 0.  1.
         21    1    1    2  502  501  0.64243771203E+02  0.76466234468E+02 -0.73905521052E+02  0.12424320180E+03  0.00000000000E+00 0. -1.
<scales pt_clust_5="13000.00000" pt_clust_6="13000.00000" pt_clust_7="13000.00000" pt_clust_8="13000.00000" pt_clust_9="78.10196"></scales>
<clustering>
<clus scale="   80.541">  5  6 -1 -1</clus>
<clus scale="   88.313">  2  5  1 -1</clus>
<clus scale="   78.102">  2  9  1 -1</clus>
<clus scale="   90.872">  7  8 -1 -1</clus>
<clus scale="   88.313">  2  5  1 -1</clus>
</clustering>
</event>
<event>
 9    1  0.2674825E-005  0.1132054E+03  0.7546771E-02  0.1258877E+00
          3   -1    0    0  502    0  0.00000000000E+00  0.00000000000E+00  0.41658960419E+02  0.41658960419E+02  0.00000000000E+00 0. -1.
         -4   -1    0    0    0  501 -0.00000000000E+00 -0.00000000000E+00 -0.45644274715E+03  0.45644274715E+03  0.00000000000E+00 0.  1.
        -24    2    1    2    0    0  0.65570796652E+02  0.16949634405E+02 -0.29211287585E+03  0.31025465025E+03  0.79631628666E+02 0.  0.
         23    2    1    2    0    0 -0.69478006753E+02  0.77756385223E+01 -0.11297528141E+03  0.16100286534E+03  0.90944238201E+02 0.  0.
         11    1    3    3    0    0  0.21267186466E+02  0.40530479179E+02 -0.78907168164E+02  0.91221456633E+02  0.00000000000E+00 0. -1.
        -12    1    3    3    0    0  0.44303610187E+02 -0.23580844774E+02 -0.21320570769E+03  0.21903319362E+03  0.00000000000E+00 0.  1.
        -11    1    4    4    0    0 -0.30494409018E+02 -0.28893331324E+02 -0.96108647395E+02  0.10488853932E+03  0.00000000000E+00 0. -1.
         11    1    4    4    0    0 -0.38983597734E+02  0.36668969847E+02 -0.16866634012E+02  0.56114326021E+02  0.00000000000E+00 0.  1.
         21    1    1    2  502  501  0.39072101007E+01 -0.24725272928E+02 -0.96956294731E+01  0.26844191979E+02  0.00000000000E+00 0.  1.
<scales pt_clust_5="13000.00000" pt_clust_6="13000.00000" pt_clust_7="13000.00000" pt_clust_8="13000.00000" pt_clust_9="25.03209"></scales>
<clustering>
<clus scale="   25.032">  1  9  2 -1</clus>
<clus scale="   79.632">  5  6 -1 -1</clus>
<clus scale="   90.944">  7  8 -1 -1</clus>
<clus scale="  104.335">  2  5  1 -1</clus>
<clus scale="   25.032">  1  5  2 -1</clus>
</clustering>
</event>
<event>
 9    1  0.2674825E-005  0.1093742E+03  0.7546771E-02  0.1264255E+00
         -2   -1    0    0    0  501 -0.00000000000E+00  0.00000000000E+00  0.85033031472E+02  0.85033031472E+02  0.00000000000E+00 0.  1.
          1   -1    0    0  502    0  0.00000000000E+00 -0.00000000000E+00 -0.18848598791E+03  0.18848598791E+03  0.00000000000E+00 0. -1.
        -24    2    1    2    0    0  0.24455903425E+02 -0.52633062184E+02 -0.14996750744E+02  0.10123807506E+03  0.81583790429E+02 0.  0.
         23    2    1    2    0    0 -0.50551789440E+02  0.57825666521E+02 -0.54201284554E+02  0.12890632008E+03  0.88202998724E+02 0.  0.
         13    1    3    3    0    0 -0.14979742027E+01 -0.53662084196E+02 -0.38617225260E+02  0.66129821516E+02  0.00000000000E+00 0. -1.
        -14    1    3    3    0    0  0.25953877628E+02  0.10290220116E+01  0.23620474516E+02  0.35108253539E+02  0.00000000000E+00 0.  1.
        -13    1    4    4    0    0 -0.33606922370E+01  0.68144306975E+02 -0.26294626233E+02  0.73118726699E+02  0.00000000000E+00 0. -1.
         13    1    4    4    0    0 -0.47191097203E+02 -0.10318640454E+02 -0.27906658321E+02  0.55787593376E+02  0.00000000000E+00 0.  1.
         21    1    1    2  502  501  0.26095886015E+02 -0.51926043367E+01 -0.34254921144E+02  0.43374624255E+02  0.00000000000E+00 0.  1.
<scales pt_clust_5="13000.00000" pt_clust_6="13000.00000" pt_clust_7="13000.00000" pt_clust_8="13000.00000" pt_clust_9="26.60749"></scales>
<clustering>
<clus scale="   26.607">  2  9  1 -1</clus>
<clus scale="   81.584">  5  6 -1 -1</clus>
<clus scale="   88.203">  7  8 -1 -1</clus>
<clus scale="  104.110">  1  5  2 -1</clus>
<clus scale="   26.607">  2  5  1 -1</clus>
</clustering>
</event>
<event>
 9    1  0.2674825E-005  0.1302871E+03  0.7546771E-02  0.1235727E+00
          1   -1    0    0  502    0  0.00000000000E+00  0.00000000000E+00  0.91074141917E+03  0.91074141917E+03  0.00000000000E+00 0. -1.
         -2   -1    0    0    0  501 -0.00000000000E+00 -0.00000000000E+00 -0.41563805483E+02  0.41563805483E+02  0.00000000000E+00 0.  1.
         23    2    1    2    0    0 -0.66329568930E+02  0.31647752710E+02  0.10225209460E+03  0.16979464244E+03  0.11390143891E+03 0.  0.
        -24    2    1    2    0    0  0.80890578152E+01 -0.36937977043E+02  0.50786818424E+03  0.51693451713E+03  0.88664284987E+02 0.  0.
         11    1    4    4    0    0  0.38959195275E+02 -0.44081190051E+02  0.23582451741E+03  0.24305179124E+03  0.00000000000E+00 0. -1.
        -12    1    4    4    0    0 -0.30870137459E+02  0.71432130088E+01  0.27204366683E+03  0.27388272589E+03  0.00000000000E+00 0.  1.
        -11    1    3    3    0    0 -0.84681066596E+02  0.53123179494E+02  0.10009557730E+03  0.14146405845E+03  0.00000000000E+00 0. -1.
         11    1    3    3    0    0  0.18351497665E+02 -0.21475426784E+02  0.21565173022E+01  0.28330583986E+02  0.00000000000E+00 0.  1.
         21    1    1    2  502  501  0.58240511115E+02  0.52902243327E+01  0.25905733485E+03  0.26557606509E+03  0.00000000000E+00 0. -1.
<scales pt_clust_5="13000.00000" pt_clust_6="13000.00000" pt_clust_7="13000.00000" pt_clust_8="13000.00000" pt_clust_9="58.48028"></scales>
<clustering>
<clus scale="   58.480">  1  9  2 -1</clus>
<clus scale="   88.664">  5  6 -1 -1</clus>
<clus scale="  108.915">  1  5  2 -1</clus>
<clus scale="  113.901">  7  8 -1 -1</clus>
<clus scale="   58.480">  1  5  2 -1</clus>
</clustering>
</event>
<event>
 9    1  0.2674825E-005  0.9557442E+02  0.7546771E-02  0.1293651E+00
          1   -1    0    0  502    0  0.00000000000E+00  0.00000000000E+00  0.23772157958E+03  0.23772157958E+03  0.00000000000E+00 0. -1.
         -2   -1    0    0    0  501 -0.00000000000E+00 -0.00000000000E+00 -0.97292076810E+02  0.97292076810E+02  0.00000000000E+00 0.  1.
         23    2    1    2    0    0 -0.11572560493E+02 -0.38965677587E+02 -0.51501666867E+02  0.10972173215E+03  0.87944235909E+02 0.  0.
        -24    2    1    2    0    0 -0.62890689172E+01  0.19330681930E+02  0.17490762743E+03  0.19375826209E+03  0.80847747904E+02 0.  0.
         11    1    4    4    0    0  0.16655775579E+02  0.32045278460E+02  0.15906465917E+03  0.16311309122E+03  0.00000000000E+00 0. -1.
        -12    1    4    4    0    0 -0.22944844496E+02 -0.12714596530E+02  0.15842968264E+02  0.30645170864E+02  0.00000000000E+00 0.  1.
        -13    1    3    3    0    0  0.36507898621E+02 -0.17826324787E+02 -0.77421411975E+01  0.41358738707E+02  0.00000000000E+00 0. -1.
         13    1    3    3    0    0 -0.48080459115E+02 -0.21139352800E+02 -0.43759525670E+02  0.68362993442E+02  0.00000000000E+00 0.  1.
         21    1    1    2  502  501  0.17861629411E+02  0.19634995657E+02  0.17023542205E+02  0.31533662154E+02  0.00000000000E+00 0.  1.
<scales pt_clust_5="13000.00000" pt_clust_6="13000.00000" pt_clust_7="13000.00000" pt_clust_8="13000.00000" pt_clust_9="26.54375"></scales>
<clustering>
<clus scale="   26.544">  1  9  2 -1</clus>
<clus scale="   80.848">  5  6 -1 -1</clus>
<clus scale="   87.944">  7  8 -1 -1</clus>
<clus scale="   89.088">  1  5  2 -1</clus>
<clus scale="   26.544">  1  5  2 -1</clus>
</clustering>
</event>
<event>
 9    1  0.2674825E-005  0.1239325E+03  0.7546771E-02  0.1242083E+00
          1   -1    0    0  502    0  0.00000000000E+00  0.00000000000E+00  0.27848842404E+03  0.27848842404E+03  0.00000000000E+00 0. -1.
         -2   -1    0    0    0  501 -0.00000000000E+00 -0.00000000000E+00 -0.13897191944E+03  0.13897191944E+03  0.00000000000E+00 0.  1.
         23    2    1    2    0    0  0.91275980672E+01 -0.82909695733E+02 -0.83893740906E+02  0.15295133517E+03  0.96946482519E+02 0.  0.
        -24    2    1    2    0    0 -0.14955042604E+02  0.52941255694E+02  0.10848586564E+03  0.14559862359E+03  0.80020911612E+02 0.  0.
         11    1    4    4    0    0  0.13469814170E+02  0.36935868800E+02  0.10579806715E+03  0.11286684770E+03  0.00000000000E+00 0. -1.
        -12    1    4    4    0    0 -0.28424856774E+02  0.16005386895E+02  0.26877984893E+01  0.32731775891E+02  0.00000000000E+00 0.  1.
        -13    1    3    3    0    0 -0.16071152297E+02 -0.91843946250E+02 -0.85033322120E+02  0.12619135576E+03  0.00000000000E+00 0.  1.
         13    1    3    3    0    0  0.25198750364E+02  0.89342505164E+01  0.11395812144E+01  0.26759979401E+02  0.00000000000E+00 0. -1.
         21    1    1    2  502  501  0.58274445370E+01  0.29968440039E+02  0.11492437987E+03  0.11891038473E+03  0.00000000000E+00 0. -1.
<scales pt_clust_5="13000.00000" pt_clust_6="13000.00000" pt_clust_7="13000.00000" pt_clust_8="13000.00000" pt_clust_9="30.52976"></scales>
<clustering>
<clus scale="   30.530">  1  9  2 -1</clus>
<clus scale="   80.021">  5  6 -1 -1</clus>
<clus scale="   96.946">  7  8 -1 -1</clus>
<clus scale="  111.194">  1  5  2 -1</clus>
<clus scale="   30.530">  1  5  2 -1</clus>
</clustering>
</event>
<event>
 9    1  0.2674825E-005  0.1486386E+03  0.7546771E-02  0.1223778E+00
          1   -1    0    0  502    0  0.00000000000E+00  0.00000000000E+00  0.41252266868E+03  0.41252266868E+03  0.00000000000E+00 0. -1.
         -2   -1    0    0    0  501 -0.00000000000E+00 -0.00000000000E+00 -0.13800771417E+03  0.13800771417E+03  0.00000000000E+00 0.  1.
        -24    2    1    2    0    0  0.35772283327E+02 -0.24585344051E+02 -0.18809650634E+02  0.95752694184E+02  0.83250706243E+02 0.  0.
         23    2    1    2    0    0 -0.28754366941E+01  0.13437761286E+03  0.27376835887E+02  0.16518355754E+03  0.92035349551E+02 0.  0.
         13    1    3    3    0    0  0.40491969292E+02 -0.39363014157E+02  0.15106364248E+02  0.58457238230E+02  0.00000000000E+00 0. -1.
        -14    1    3    3    0    0 -0.47196859647E+01  0.14777670106E+02 -0.33916014882E+02  0.37295455954E+02  0.00000000000E+00 0.  1.
        -11    1    4    4    0    0  0.29821886862E+02  0.73850487585E+01 -0.20394578136E+01  0.30790311291E+02  0.00000000000E+00 0.  1.
         11    1    4    4    0    0 -0.32697323556E+02  0.12699256410E+03  0.29416293701E+02  0.13439324625E+03  0.00000000000E+00 0. -1.
         21    1    1    2  502  501 -0.32896846633E+02 -0.10979226880E+03  0.26594776926E+03  0.28959413112E+03  0.00000000000E+00 0. -1.
<scales pt_clust_5="13000.00000" pt_clust_6="13000.00000" pt_clust_7="13000.00000" pt_clust_8="13000.00000" pt_clust_9="116.71729"></scales>
<clustering>
<clus scale="   83.251">  5  6 -1 -1</clus>
<clus scale="   92.035">  7  8 -1 -1</clus>
<clus scale="   93.887">  2  5  1 -1</clus>
<clus scale="  116.717">  1  9  2 -1</clus>
<clus scale="  116.717">  1  5  2 -1</clus>
</clustering>
</event>
<event>
 9    1  0.2674825E-005  0.1936216E+03  0.7546771E-02  0.1174650E+00
         -4   -1    0    0    0  501 -0.00000000000E+00  0.00000000000E+00  0.38658887925E+03  0.38658887925E+03  0.00000000000E+00 0.  1.
          3   -1    0    0  502    0  0.00000000000E+00 -0.00000000000E+00 -0.26996087622E+03  0.26996087622E+03  0.00000000000E+00 0. -1.
        -24    2    1    2    0    0  0.18415317511E+03  0.58436601419E+00  0.26729260298E+03  0.33425524349E+03  0.79802874666E+02 0.  0.
         23    2    1    2    0    0 -0.46538812508E+02 -0.63214328542E+02 -0.26159724461E+02  0.12643310940E+03  0.95598575122E+02 0.  0.
         13    1    3    3    0    0  0.69834753346E+02 -0.11928310110E+01  0.17121831649E+03  0.18491627165E+03  0.00000000000E+00 0. -1.
        -14    1    3    3    0    0  0.11431842177E+03  0.17771970252E+01  0.96074286492E+02  0.14933897184E+03  0.00000000000E+00 0.  1.
        -13    1    4    4    0    0 -0.57894704299E+02 -0.28950064877E+02  0.20079692994E+02  0.67772391967E+02  0.00000000000E+00 0.  1.
         13    1    4    4    0    0  0.11355891791E+02 -0.34264263665E+02 -0.46239417454E+02  0.58660717430E+02  0.00000000000E+00 0. -1.
         21    1    1    2  502  501 -0.13761436261E+03  0.62629962527E+02 -0.12450487549E+03  0.19586140258E+03  0.00000000000E+00 0. -1.
<scales pt_clust_5="13000.00000" pt_clust_6="13000.00000" pt_clust_7="13000.00000" pt_clust_8="13000.00000" pt_clust_9="176.41094"></scales>
<clustering>
<clus scale="   79.803">  5  6 -1 -1</clus>
<clus scale="   95.599">  7  8 -1 -1</clus>
<clus scale="  123.697">  2  7  1 -1</clus>
<clus scale="  176.411">  2  9  1 -1</clus>
<clus scale="  123.697">  2  5  1 -1</clus>
</clustering>
</event>
<event>
 9    1  0.2674825E-005  0.1295548E+03  0.7546771E-02  0.1230372E+00
          3   -1    0    0  502    0  0.00000000000E+00  0.00000000000E+00  0.27985321618E+02  0.27985321618E+02  0.00000000000E+00 0. -1.
         -4   -1    0    0    0  501 -0.00000000000E+00 -0.00000000000E+00 -0.72829187816E+03  0.72829187816E+03  0.00000000000E+00 0.  1.
         23    2    1    2    0    0  0.12336928184E+01  0.10085032680E+03 -0.45815338402E+03  0.47758870981E+03  0.89521740609E+02 0.  0.
        -24    2    1    2    0    0  0.10113358797E+02 -0.82542108323E+02 -0.21220364752E+03  0.24179783407E+03  0.80748528581E+02 0.  0.
         11    1    4    4    0    0  0.82716816863E+00 -0.79451823238E+02 -0.93540713786E+02  0.12273199077E+03  0.00000000000E+00 0. -1.
        -12    1    4    4    0    0  0.92861906284E+01 -0.30902850847E+01 -0.11866293373E+03  0.11906584330E+03  0.00000000000E+00 0.  1.
        -11    1    3    3    0    0  0.36141495129E+02  0.66183997586E+02 -0.35979929295E+03  0.36761673032E+03  0.00000000000E+00 0.  1.
         11    1    3    3    0    0 -0.34907802311E+02  0.34666329216E+02 -0.98354091070E+02  0.10997197949E+03  0.00000000000E+00 0. -1.
         21    1    1    2  502  501 -0.11347051615E+02 -0.18308218479E+02 -0.29949525007E+02  0.36890655895E+02  0.00000000000E+00 0. -1.
<scales pt_clust_5="13000.00000" pt_clust_6="13000.00000" pt_clust_7="13000.00000" pt_clust_8="13000.00000" pt_clust_9="21.53942"></scales>
<clustering>
<clus scale="   21.539">  1  9  2 -1</clus>
<clus scale="   80.749">  5  6 -1 -1</clus>
<clus scale="   89.522">  7  8 -1 -1</clus>
<clus scale="  123.655">  1  5  2 -1</clus>
<clus scale="   21.539">  1  5  2 -1</clus>
</clustering>
</event>
<event>
 9    1  0.2674825E-005  0.1301381E+03  0.7546771E-02  0.1229423E+00
         -2   -1    0    0    0  501 -0.00000000000E+00  0.00000000000E+00  0.13093347522E+03  0.13093347522E+03  0.00000000000E+00 0.  1.
          1   -1    0    0  502    0  0.00000000000E+00 -0.00000000000E+00 -0.17374128948E+03  0.17374128948E+03  0.00000000000E+00 0. -1.
        -24    2    1    2    0    0 -0.78926288014E+02  0.65425692888E+02  0.44915443654E+02  0.13735207420E+03  0.79613535154E+02 0.  0.
         23    2    1    2    0    0  0.58036574923E+02 -0.54593322833E+02 -0.74367063525E+02  0.14026519094E+03  0.88290365988E+02 0.  0.
         11    1    3    3    0    0  0.78291904602E+01  0.37868319399E+02  0.10886617088E+02  0.40172431703E+02  0.00000000000E+00 0. -1.
        -12    1    3    3    0    0 -0.86755478474E+02  0.27557373490E+02  0.34028826566E+02  0.97179642500E+02  0.00000000000E+00 0.  1.
        -13    1    4    4    0    0  0.27149875225E+02 -0.19692728974E+01  0.15738041523E+02  0.31443277683E+02  0.00000000000E+00 0.  1.
         13    1    4    4    0    0  0.30886699698E+02 -0.52624049936E+02 -0.90105105048E+02  0.10882191326E+03  0.00000000000E+00 0. -1.
         21    1    1    2  502  501  0.20889713091E+02 -0.10832370055E+02 -0.13356194390E+02  0.27057499564E+02  0.00000000000E+00 0. -1.
<scales pt_clust_5="13000.00000" pt_clust_6="13000.00000" pt_clust_7="13000.00000" pt_clust_8="13000.00000" pt_clust_9="23.53126"></scales>
<clustering>
<clus scale="   23.531">  2  9  1 -1</clus>
<clus scale="   79.614">  5  6 -1 -1</clus>
<clus scale="   88.290">  7  8 -1 -1</clus>
<clus scale="  124.415">  1  5  2 -1</clus>
<clus scale="   23.531">  2  5  1 -1</clus>
</clustering>
</event>
<event>
 9    1  0.2674825E-005  0.1574385E+03  0.7546771E-02  0.1193454E+00
          1   -1    0    0  502    0  0.00000000000E+00  0.00000000000E+00  0.79676164058E+02  0.79676164058E+02  0.00000000000E+00 0. -1.
         -2   -1    0    0    0  501 -0.00000000000E+00 -0.00000000000E+00 -0.73817026819E+03  0.73817026819E+03  0.00000000000E+00 0.  1.
         23    2    1    2    0    0  0.39520424586E+02 -0.11755469699E+03 -0.55646961850E+03  0.57742846412E+03  0.91565408989E+02 0.  0.
        -24    2    1    2    0    0 -0.12061350980E+02  0.15003394664E+03 -0.10012510279E+03  0.19784438433E+03  0.80384717889E+02 0.  0.
         11    1    4    4    0    0  0.63816818875E+01  0.13575842994E+03 -0.10760795047E+03  0.17335093934E+03  0.00000000000E+00 0. -1.
        -12    1    4    4    0    0 -0.18443032867E+02  0.14275516697E+02  0.74828476785E+01  0.24493444994E+02  0.00000000000E+00 0.  1.
        -11    1    3    3    0    0  0.88559781723E+01 -0.10562408408E+03 -0.50736903459E+03  0.51832249879E+03  0.00000000000E+00 0.  1.
         11    1    3    3    0    0  0.30664446413E+02 -0.11930612902E+02 -0.49100583911E+02  0.59105965337E+02  0.00000000000E+00 0. -1.
         21    1    1    2  502  501 -0.27459073606E+02 -0.32479249655E+02 -0.18993828349E+01  0.42573583788E+02  0.00000000000E+00 0. -1.
<scales pt_clust_5="13000.00000" pt_clust_6="13000.00000" pt_clust_7="13000.00000" pt_clust_8="13000.00000" pt_clust_9="42.53119"></scales>
<clustering>
<clus scale="   42.531">  1  9  2 -1</clus>
<clus scale="   80.385">  5  6 -1 -1</clus>
<clus scale="   91.565">  7  8 -1 -1</clus>
<clus scale="  151.210">  1  5  2 -1</clus>
<clus scale="   42.531">  1  5  2 -1</clus>
</clustering>
</event>
<event>
 9    1  0.2674825E-005  0.1543642E+03  0.7546771E-02  0.1196629E+00
         -2   -1    0    0    0  501 -0.00000000000E+00  0.00000000000E+00  0.24725643937E+03  0.24725643937E+03  0.00000000000E+00 0.  1.
          1   -1    0    0  502    0  0.00000000000E+00 -0.00000000000E+00 -0.49062650386E+03  0.49062650386E+03  0.00000000000E+00 0. -1.
         23    2    1    2    0    0 -0.11705074062E+03 -0.44591994976E+02  0.20469456384E+03  0.25698221960E+03  0.91927552061E+02 0.  0.
        -24    2    1    2    0    0  0.88654156116E+02  0.66262551922E+02 -0.34883660247E+03  0.37543897623E+03  0.83768517142E+02 0.  0.
         13    1    4    4    0    0  0.25805505615E+01  0.37114579449E+02 -0.17892591206E+03  0.18275292954E+03  0.00000000000E+00 0. -1.
        -14    1    4    4    0    0  0.86073605555E+02  0.29147972473E+02 -0.16991069041E+03  0.19268604669E+03  0.00000000000E+00 0.  1.
        -11    1    3    3    0    0 -0.80349700345E+02 -0.22772527117E+01  0.55666850032E+02  0.97775551228E+02  0.00000000000E+00 0. -1.
         11    1    3    3    0    0 -0.36701040274E+02 -0.42314742265E+02  0.14902771381E+03  0.15920666837E+03  0.00000000000E+00 0.  1.
         21    1    1    2  502  501  0.28396584503E+02 -0.21670556946E+02 -0.99228025860E+02  0.10546174741E+03  0.00000000000E+00 0. -1.
<scales pt_clust_5="13000.00000" pt_clust_6="13000.00000" pt_clust_7="13000.00000" pt_clust_8="13000.00000" pt_clust_9="35.72085"></scales>
<clustering>
<clus scale="   35.721">  2  9  1 -1</clus>
<clus scale="   83.769">  5  6 -1 -1</clus>
<clus scale="   91.928">  7  8 -1 -1</clus>
<clus scale="  149.649">  2  5  1 -1</clus>
<clus scale="   35.721">  2  5  1 -1</clus>
</clustering>
</event>
<event>
 9    1  0.2674825E-005  0.2831605E+03  0.7546771E-02  0.1143117E+00
          1   -1    0    0  502    0  0.00000000000E+00  0.00000000000E+00  0.13172346385E+04  0.13172346385E+04  0.00000000000E+00 0. -1.
         -2   -1    0    0    0  501 -0.00000000000E+00 -0.00000000000E+00 -0.77041608616E+02  0.77041608616E+02  0.00000000000E+00 0.  1.
        -24    2    1    2    0    0 -0.28819495481E+01  0.17717263329E+02  0.12567259973E+03  0.15034768856E+03  0.80551958878E+02 0.  0.
         23    2    1    2    0    0  0.49017971861E+02 -0.27331571889E+03  0.57040980742E+03  0.64100611511E+03  0.91745558180E+02 0.  0.
         13    1    3    3    0    0  0.23732730000E+02  0.19786093547E+02  0.11884137852E+03  0.12279252917E+03  0.00000000000E+00 0. -1.
        -14    1    3    3    0    0 -0.26614679548E+02 -0.20688302180E+01  0.68312212130E+01  0.27555159393E+02  0.00000000000E+00 0.  1.
        -11    1    4    4    0    0  0.47140150065E+02 -0.58041532282E+02  0.18511600081E+03  0.19964705601E+03  0.00000000000E+00 0. -1.
         11    1    4    4    0    0  0.18778217962E+01 -0.21527418661E+03  0.38529380661E+03  0.44135905910E+03  0.00000000000E+00 0.  1.
         21    1    1    2  502  501 -0.46136022313E+02  0.25559845556E+03  0.54411062269E+03  0.60292244340E+03  0.00000000000E+00 0. -1.
<scales pt_clust_5="13000.00000" pt_clust_6="13000.00000" pt_clust_7="13000.00000" pt_clust_8="13000.00000" pt_clust_9="267.88547"></scales>
<clustering>
<clus scale="   80.552">  5  6 -1 -1</clus>
<clus scale="   82.528">  2  5  1 -1</clus>
<clus scale="   91.746">  7  8 -1 -1</clus>
<clus scale="  267.885">  1  9  2 -1</clus>
<clus scale="  267.885">  1  5  2 -1</clus>
</clustering>
</event>
<event>
 9    1  0.2674825E-005  0.2720395E+03  0.7546771E-02  0.1132499E+00
          3   -1    0    0  502    0  0.00000000000E+00  0.00000000000E+00  0.42052907788E+03  0.42052907788E+03  0.00000000000E+00 0. -1.
         -4   -1    0    0    0  501 -0.00000000000E+00 -0.00000000000E+00 -0.39096685987E+03  0.39096685987E+03  0.00000000000E+00 0.  1.
        -24    2    1    2    0    0  0.20892757308E+02 -0.85980690696E+02 -0.19485324050E+03  0.22902821094E+03  0.81590131718E+02 0.  0.
         23    2    1    2    0    0  0.72278941734E+02  0.29001248561E+03  0.14607550482E+03  0.34488176935E+03  0.90960950384E+02 0.  0.
         13    1    3    3    0    0 -0.23505042774E+02 -0.12704782513E+02 -0.88568302571E+02  0.92510771021E+02  0.00000000000E+00 0. -1.
        -14    1    3    3    0    0  0.44397800083E+02 -0.73275908183E+02 -0.10628493793E+03  0.13651743992E+03  0.00000000000E+00 0.  1.
        -13    1    4    4    0    0  0.15758820144E+02  0.22770989079E+03  0.10930481264E+03  0.25307642490E+03  0.00000000000E+00 0.  1.
         13    1    4    4    0    0  0.56520121590E+02  0.62302594822E+02  0.36770692177E+02  0.91805344448E+02  0.00000000000E+00 0. -1.
         21    1    1    2  502  501 -0.93171699042E+02 -0.20403179491E+03  0.78339953694E+02  0.23758595746E+03  0.00000000000E+00 0.  1.
<scales pt_clust_5="13000.00000" pt_clust_6="13000.00000" pt_clust_7="13000.00000" pt_clust_8="13000.00000" pt_clust_9="256.38178"></scales>
<clustering>
<clus scale="   81.590">  5  6 -1 -1</clus>
<clus scale="   90.961">  7  8 -1 -1</clus>
<clus scale="  120.358">  2  5  1 -1</clus>
<clus scale="  256.382">  1  9  2 -1</clus>
<clus scale="  256.382">  1  5  2 -1</clus>
</clustering>
</event>
<event>
 9    1  0.2674825E-005  0.1967728E+03  0.7546771E-02  0.1154118E+00
         -2   -1    0    0    0  501 -0.00000000000E+00  0.00000000000E+00  0.39302537869E+03  0.39302537869E+03  0.00000000000E+00 0.  1.
          1   -1    0    0  502    0  0.00000000000E+00 -0.00000000000E+00 -0.19734333357E+03  0.19734333357E+03  0.00000000000E+00 0. -1.
        -24    2    1    2    0    0 -0.19208860950E+02  0.17580617639E+03  0.19441893311E+03  0.27492303115E+03  0.80666966647E+02 0.  0.
         23    2    1    2    0    0  0.11570555704E+03 -0.13577600120E+03 -0.32760820612E+02  0.20557459631E+03  0.96771611797E+02 0.  0.
         11    1    3    3    0    0 -0.24211701993E+02  0.13277552844E+03  0.90945325791E+02  0.16274704222E+03  0.00000000000E+00 0. -1.
        -12    1    3    3    0    0  0.50028410431E+01  0.43030647945E+02  0.10347360732E+03  0.11217598893E+03  0.00000000000E+00 0.  1.
        -11    1    4    4    0    0 -0.77825198906E+01 -0.49695439543E+02 -0.21249827237E+02  0.54605489511E+02  0.00000000000E+00 0.  1.
         11    1    4    4    0    0  0.12348807693E+03 -0.86080561658E+02 -0.11510993375E+02  0.15096910680E+03  0.00000000000E+00 0. -1.
         21    1    1    2  502  501 -0.96496696094E+02 -0.40030175188E+02  0.34023932624E+02  0.10987108479E+03  0.00000000000E+00 0.  1.
<scales pt_clust_5="13000.00000" pt_clust_6="13000.00000" pt_clust_7="13000.00000" pt_clust_8="13000.00000" pt_clust_9="104.47022"></scales>
<clustering>
<clus scale="   80.667">  5  6 -1 -1</clus>
<clus scale="   96.772">  7  8 -1 -1</clus>
<clus scale="  104.470">  2  9  1 -1</clus>
<clus scale="  189.372">  1  5  2 -1</clus>
<clus scale="  104.470">  2  5  1 -1</clus>
</clustering>
</event>
<event>
 9    1  0.2674825E-005  0.2281807E+03  0.7546771E-02  0.1129621E+00
         -2   -1    0    0    0  501 -0.00000000000E+00  0.00000000000E+00  0.15641494702E+03  0.15641494702E+03  0.00000000000E+00 0.  1.
          1   -1    0    0  502    0  0.00000000000E+00 -0.00000000000E+00 -0.53235534057E+03  0.53235534057E+03  0.00000000000E+00 0. -1.
        -24    2    1    2    0    0  0.15272624997E+03 -0.13858376364E+03 -0.46191376192E+00  0.22036849253E+03  0.77661394277E+02 0.  0.
         23    2    1    2    0    0 -0.11241163438E+03  0.17093035532E+03 -0.29922575317E+03  0.37628204398E+03  0.10098793663E+03 0.  0.
         13    1    3    3    0    0  0.79111627996E+02 -0.52920162063E+02  0.35878853377E+02  0.10171767475E+03  0.00000000000E+00 0. -1.
        -14    1    3    3    0    0  0.73614621971E+02 -0.85663601577E+02 -0.36340767139E+02  0.11865081778E+03  0.00000000000E+00 0.  1.
        -13    1    4    4    0    0 -0.58378541481E+02  0.14337119440E+03 -0.15155077861E+03  0.21663562031E+03  0.00000000000E+00 0. -1.
         13    1    4    4    0    0 -0.54033092896E+02  0.27559160922E+02 -0.14767497456E+03  0.15964642367E+03  0.00000000000E+00 0.  1.
         21    1    1    2  502  501 -0.40314615590E+02 -0.32346591682E+02 -0.76252726609E+02  0.92119751079E+02  0.00000000000E+00 0.  1.
<scales pt_clust_5="13000.00000" pt_clust_6="13000.00000" pt_clust_7="13000.00000" pt_clust_8="13000.00000" pt_clust_9="51.68723"></scales>
<clustering>
<clus scale="   51.687">  2  9  1 -1</clus>
<clus scale="   77.661">  5  6 -1 -1</clus>
<clus scale="  100.988">  7  8 -1 -1</clus>
<clus scale="  218.859">  1  5  2 -1</clus>
<clus scale="   51.687">  2  5  1 -1</clus>
</clustering>
</event>
<event>
 9    1  0.2674825E-005  0.9579928E+02  0.7546771E-02  0.1295880E+00
          3   -1    0    0  502    0  0.00000000000E+00  0.00000000000E+00  0.29530615061E+02  0.29530615061E+02  0.00000000000E+00 0. -1.
         -4   -1    0    0    0  501 -0.00000000000E+00 -0.00000000000E+00 -0.96603518504E+03  0.96603518504E+03  0.00000000000E+00 0.  1.
        -24    2    1    2    0    0 -0.10278396620E+02  0.18141990813E+02 -0.82904883436E+03  0.83335291338E+03  0.81977626304E+02 0.  0.
         23    2    1    2    0    0  0.13365545100E+01 -0.37242470098E+02 -0.89556708462E+02  0.13455136069E+03  0.93246322588E+02 0.  0.
         11    1    3    3    0    0 -0.71780832697E+01 -0.23116803031E+02 -0.91598167638E+02  0.94742470817E+02  0.00000000000E+00 0. -1.
        -12    1    3    3    0    0 -0.31003133507E+01  0.41258793844E+02 -0.73745066672E+03  0.73861044256E+03  0.00000000000E+00 0.  1.
        -11    1    4    4    0    0  0.36003141180E+02 -0.31018769305E+02 -0.87129665748E+02  0.99247009412E+02  0.00000000000E+00 0. -1.
         11    1    4    4    0    0 -0.34666586670E+02 -0.62237007936E+01 -0.24270427148E+01  0.35304351279E+02  0.00000000000E+00 0.  1.
         21    1    1    2  502  501  0.89418421104E+01  0.19100479286E+02 -0.17899027158E+02  0.27661526033E+02  0.00000000000E+00 0.  1.
<scales pt_clust_5="13000.00000" pt_clust_6="13000.00000" pt_clust_7="13000.00000" pt_clust_8="13000.00000" pt_clust_9="21.08992"></scales>
<clustering>
<clus scale="   21.090">  1  9  2 -1</clus>
<clus scale="   81.978">  5  6 -1 -1</clus>
<clus scale="   84.870">  2  5  1 -1</clus>
<clus scale="   93.246">  7  8 -1 -1</clus>
<clus scale="   21.090">  1  5  2 -1</clus>
</clustering>
</event>
<event>
 9    1  0.2674825E-005  0.8064470E+02  0.7546771E-02  0.1331323E+00
         -2   -1    0    0    0  501 -0.00000000000E+00  0.00000000000E+00  0.89348663837E+02  0.89348663837E+02  0.00000000000E+00 0.  1.
          1   -1    0    0  502    0  0.00000000000E+00 -0.00000000000E+00 -0.13627614709E+03  0.13627614709E+03  0.00000000000E+00 0. -1.
        -24    2    1    2    0    0  0.13025527797E+02  0.46709410163E+01  0.40108993075E+02  0.89722679693E+02  0.79056599102E+02 0.  0.
         23    2    1    2    0    0  0.35931426667E+01 -0.18395519138E+02 -0.85657233772E+02  0.11430475726E+03  0.73328780411E+02 0.  0.
         13    1    3    3    0    0  0.41998103023E+02 -0.15035249008E+02  0.27913154260E+02  0.52621702282E+02  0.00000000000E+00 0. -1.
        -14    1    3    3    0    0 -0.28972575226E+02  0.19706190024E+02  0.12195838815E+02  0.37100977412E+02  0.00000000000E+00 0.  1.
        -11    1    4    4    0    0 -0.12035990263E+02  0.25802721017E+02 -0.37662092258E+02  0.47213119647E+02  0.00000000000E+00 0.  1.
         11    1    4    4    0    0  0.15629132930E+02 -0.44198240155E+02 -0.47995141513E+02  0.67091637614E+02  0.00000000000E+00 0. -1.
         21    1    1    2  502  501 -0.16618670464E+02  0.13724578121E+02 -0.13792425588E+01  0.21597373975E+02  0.00000000000E+00 0.  1.
<scales pt_clust_5="13000.00000" pt_clust_6="13000.00000" pt_clust_7="13000.00000" pt_clust_8="13000.00000" pt_clust_9="21.55329"></scales>
<clustering>
<clus scale="   21.553">  1  9  2 -1</clus>
<clus scale="   73.329">  7  8 -1 -1</clus>
<clus scale="   75.038">  2  7  1 -1</clus>
<clus scale="   79.057">  5  6 -1 -1</clus>
<clus scale="   75.038">  2  5  1 -1</clus>
</clustering>
</event>
<event>
 9    1  0.2674825E-005  0.9228337E+02  0.7546771E-02  0.1302998E+00
          3   -1    0    0  502    0  0.00000000000E+00  0.00000000000E+00  0.76277790080E+03  0.76277790080E+03  0.00000000000E+00 0. -1.
         -4   -1    0    0    0  501 -0.00000000000E+00 -0.00000000000E+00 -0.19868357236E+02  0.19868357236E+02  0.00000000000E+00 0.  1.
         23    2    1    2    0    0  0.74614290420E+00 -0.49720865781E+01  0.15480777257E+03  0.17964673775E+03  0.91006733609E+02 0.  0.
        -24    2    1    2    0    0  0.27964063268E+02  0.33435774220E+02  0.40147372786E+03  0.41204276095E+03  0.81842182623E+02 0.  0.
         13    1    4    4    0    0 -0.26597978990E+02  0.88648014311E+00  0.78764547021E+02  0.83138993263E+02  0.00000000000E+00 0. -1.
        -14    1    4    4    0    0  0.54562042258E+02  0.32549294077E+02  0.32270918084E+03  0.32890376769E+03  0.00000000000E+00 0.  1.
        -11    1    3    3    0    0  0.13534247215E+02  0.30798636766E+02  0.19020863242E+02  0.38646152626E+02  0.00000000000E+00 0.  1.
         11    1    3    3    0    0 -0.12788104311E+02 -0.35770723344E+02  0.13578690933E+03  0.14100058513E+03  0.00000000000E+00 0. -1.
         21    1    1    2  502  501 -0.28710206172E+02 -0.28463687642E+02  0.18662804312E+03  0.19095675933E+03  0.00000000000E+00 0.  1.
<scales pt_clust_5="13000.00000" pt_clust_6="13000.00000" pt_clust_7="13000.00000" pt_clust_8="13000.00000" pt_clust_9="40.42842"></scales>
<clustering>
<clus scale="   40.428">  1  9  2 -1</clus>
<clus scale="   81.842">  5  6 -1 -1</clus>
<clus scale="   83.259">  1  5  2 -1</clus>
<clus scale="   91.007">  7  8 -1 -1</clus>
<clus scale="   40.428">  1  5  2 -1</clus>
</clustering>
</event>
<event>
 9    1  0.2674825E-005  0.1913581E+03  0.7546771E-02  0.1157350E+00
          3   -1    0    0  502    0  0.00000000000E+00  0.00000000000E+00  0.50860906735E+03  0.50860906735E+03  0.00000000000E+00 0. -1.
         -4   -1    0    0    0  501 -0.00000000000E+00 -0.00000000000E+00 -0.25280863295E+03  0.25280863295E+03  0.00000000000E+00 0.  1.
        -24    2    1    2    0    0  0.17023291914E+03 -0.30689821051E+02 -0.13713779791E+03  0.23531469629E+03  0.81517598117E+02 0.  0.
         23    2    1    2    0    0 -0.14017760046E+03  0.14523408322E+03  0.18145318627E+03  0.28371976434E+03  0.82637444723E+02 0.  0.
         13    1    3    3    0    0  0.35595525896E+02 -0.26244109956E+02 -0.16507039043E+01  0.44255164609E+02  0.00000000000E+00 0. -1.
        -14    1    3    3    0    0  0.13463739324E+03 -0.44457110947E+01 -0.13548709401E+03  0.19105953168E+03  0.00000000000E+00 0.  1.
        -11    1    4    4    0    0 -0.59819201020E+02  0.28344777648E+02  0.20753483064E+02  0.69371970491E+02  0.00000000000E+00 0.  1.
         11    1    4    4    0    0 -0.80358399443E+02  0.11688930557E+03  0.16069970320E+03  0.21434779385E+03  0.00000000000E+00 0. -1.
         21    1    1    2  502  501 -0.30055318673E+02 -0.11454426217E+03  0.21148504604E+03  0.24238323967E+03  0.00000000000E+00 0.  1.
<scales pt_clust_5="13000.00000" pt_clust_6="13000.00000" pt_clust_7="13000.00000" pt_clust_8="13000.00000" pt_clust_9="118.42175"></scales>
<clustering>
<clus scale="   81.518">  5  6 -1 -1</clus>
<clus scale="   82.637">  7  8 -1 -1</clus>
<clus scale="  118.422">  1  9  2 -1</clus>
<clus scale="  190.877">  2  5  1 -1</clus>
<clus scale="  118.422">  1  5  2 -1</clus>
</clustering>
</event>
<event>
 9    1  0.2674825E-005  0.1214949E+03  0.7546771E-02  0.1244474E+00
          1   -1    0    0  502    0  0.00000000000E+00  0.00000000000E+00  0.30467980269E+03  0.30467980269E+03  0.00000000000E+00 0. -1.
         -2   -1    0    0    0  501 -0.00000000000E+00 -0.00000000000E+00 -0.13262558063E+03  0.13262558063E+03  0.00000000000E+00 0.  1.
         23    2    1    2    0    0 -0.79611559214E+02 -0.87488189874E+01 -0.84385094414E+02  0.15028947690E+03  0.95139584360E+02 0.  0.
        -24    2    1    2    0    0  0.48984878490E+02  0.84367758960E+01  0.17622563811E+03  0.20115366129E+03  0.83286387928E+02 0.  0.
         13    1    4    4    0    0  0.27958356799E+02 -0.64263486846E+01  0.17281449458E+03  0.17517938580E+03  0.00000000000E+00 0. -1.
        -14    1    4    4    0    0  0.21026521692E+02  0.14863124581E+02  0.34111435249E+01  0.25974275483E+02  0.00000000000E+00 0.  1.
        -13    1    3    3    0    0 -0.93273617928E+02 -0.29903854936E+02 -0.75184152814E+02  0.12347819717E+03  0.00000000000E+00 0.  1.
         13    1    3    3    0    0  0.13662058715E+02  0.21155035949E+02 -0.92009416004E+01  0.26811279728E+02  0.00000000000E+00 0. -1.
         21    1    1    2  502  501  0.30626680724E+02  0.31204309145E+00  0.80213678362E+02  0.85862245134E+02  0.00000000000E+00 0.  1.
<scales pt_clust_5="13000.00000" pt_clust_6="13000.00000" pt_clust_7="13000.00000" pt_clust_8="13000.00000" pt_clust_9="30.62827"></scales>
<clustering>
<clus scale="   30.628">  1  9  2 -1</clus>
<clus scale="   83.286">  5  6 -1 -1</clus>
<clus scale="   95.140">  7  8 -1 -1</clus>
<clus scale="  112.455">  1  5  2 -1</clus>
<clus scale="   30.628">  1  5  2 -1</clus>
</clustering>
</event>
<event>
 9    1  0.2674825E-005  0.1212404E+03  0.7546771E-02  0.1245270E+00
         -2   -1    0    0    0  501 -0.00000000000E+00  0.00000000000E+00  0.32748177792E+02  0.32748177792E+02  0.00000000000E+00 0.  1.
          1   -1    0    0  502    0  0.00000000000E+00 -0.00000000000E+00 -0.79592110650E+03  0.79592110650E+03  0.00000000000E+00 0. -1.
         23    2    1    2    0    0 -0.71160393430E+02 -0.52443908337E+02 -0.16310074691E+03  0.20711630877E+03  0.92093140902E+02 0.  0.
        -24    2    1    2    0    0  0.71028655646E+02 -0.25487092707E+01 -0.36120245259E+03  0.37643473288E+03  0.78640514472E+02 0.  0.
         11    1    4    4    0    0  0.62765062621E+02 -0.14838856737E+02 -0.35425156172E+03  0.36007473354E+03  0.00000000000E+00 0. -1.
        -12    1    4    4    0    0  0.82635930250E+01  0.12290147466E+02 -0.69508908780E+01  0.16359999340E+02  0.00000000000E+00 0.  1.
        -13    1    3    3    0    0 -0.18952445374E+02  0.25931655999E+02 -0.55514275027E+02  0.64136422572E+02  0.00000000000E+00 0. -1.
         13    1    3    3    0    0 -0.52207948056E+02 -0.78375564336E+02 -0.10758647189E+03  0.14297988620E+03  0.00000000000E+00 0.  1.
         21    1    1    2  502  501  0.13173778446E+00  0.54992617607E+02 -0.23886972920E+03  0.24511824264E+03  0.00000000000E+00 0.  1.
<scales pt_clust_5="13000.00000" pt_clust_6="13000.00000" pt_clust_7="13000.00000" pt_clust_8="13000.00000" pt_clust_9="54.99278"></scales>
<clustering>
<clus scale="   54.993">  2  9  1 -1</clus>
<clus scale="   78.641">  5  6 -1 -1</clus>
<clus scale="   92.093">  7  8 -1 -1</clus>
<clus scale="  111.366">  2  5  1 -1</clus>
<clus scale="   54.993">  2  5  1 -1</clus>
</clustering>
</event>
<event>
 9    1  0.2674825E-005  0.9515671E+02  0.7546771E-02  0.1296191E+00
         -2   -1    0    0    0  501 -0.00000000000E+00  0.00000000000E+00  0.23207168514E+03  0.23207168514E+03  0.00000000000E+00 0.  1.
          1   -1    0    0  502    0  0.00000000000E+00 -0.00000000000E+00 -0.96389259025E+02  0.96389259025E+02  0.00000000000E+00 0. -1.
        -24    2    1    2    0    0 -0.20396679801E+02  0.24012766428E+02  0.17445275562E+03  0.19479121965E+03  0.80729287212E+02 0.  0.
         23    2    1    2    0    0  0.32675462156E+02  0.23932489042E+01 -0.17632092436E+02  0.97685405589E+02  0.90322390990E+02 0.  0.
         13    1    3    3    0    0 -0.93219518394E+01  0.28648344845E+02  0.12866095664E+02  0.32759164612E+02  0.00000000000E+00 0. -1.
        -14    1    3    3    0    0 -0.11074727962E+02 -0.46355784169E+01  0.16158665995E+03  0.16203205504E+03  0.00000000000E+00 0.  1.
        -11    1    4    4    0    0  0.10636410410E+02  0.43782949090E+02  0.55135514875E+01  0.45392500564E+02  0.00000000000E+00 0.  1.
         11    1    4    4    0    0  0.22039051746E+02 -0.41389700186E+02 -0.23145643923E+02  0.52292905025E+02  0.00000000000E+00 0. -1.
         21    1    1    2  502  501 -0.12278782355E+02 -0.26406015332E+02 -0.21138237068E+02  0.35984318920E+02  0.00000000000E+00 0. -1.
<scales pt_clust_5="13000.00000" pt_clust_6="13000.00000" pt_clust_7="13000.00000" pt_clust_8="13000.00000" pt_clust_9="29.12123"></scales>
<clustering>
<clus scale="   29.121">  2  9  1 -1</clus>
<clus scale="   80.729">  5  6 -1 -1</clus>
<clus scale="   86.104">  1  5  2 -1</clus>
<clus scale="   90.322">  7  8 -1 -1</clus>
<clus scale="   29.121">  2  5  1 -1</clus>
</clustering>
</event>
<event>
 9    1  0.2674825E-005  0.1801489E+03  0.7546771E-02  0.1169364E+00
         -2   -1    0    0    0  501 -0.00000000000E+00  0.00000000000E+00  0.32746776514E+03  0.32746776514E+03  0.00000000000E+00 0.  1.
          1   -1    0    0  502    0  0.00000000000E+00 -0.00000000000E+00 -0.17787037658E+03  0.17787037658E+03  0.00000000000E+00 0. -1.
         23    2    1    2    0    0  0.12852971312E+03 -0.90634798136E+02  0.24198493060E+03  0.30364361037E+03  0.94383164238E+02 0.  0.
        -24    2    1    2    0    0 -0.11112112331E+03  0.80259846820E+02 -0.84074440532E+02  0.17979005075E+03  0.80413952399E+02 0.  0.
         13    1    4    4    0    0 -0.10681788895E+03  0.95366483646E+02 -0.76575883325E+02  0.16238440045E+03  0.00000000000E+00 0. -1.
        -14    1    4    4    0    0 -0.43032343590E+01 -0.15106636825E+02 -0.74985572077E+01  0.17405650299E+02  0.00000000000E+00 0.  1.
        -11    1    3    3    0    0  0.63083552104E+02 -0.29216719047E+02  0.18424057687E+03  0.19692064743E+03  0.00000000000E+00 0.  1.
         11    1    3    3    0    0  0.65446161017E+02 -0.61418079089E+02  0.57744353728E+02  0.10672296294E+03  0.00000000000E+00 0. -1.
         21    1    1    2  502  501 -0.17408589814E+02  0.10374951315E+02 -0.83131015003E+01  0.21904480607E+02  0.00000000000E+00 0. -1.
<scales pt_clust_5="13000.00000" pt_clust_6="13000.00000" pt_clust_7="13000.00000" pt_clust_8="13000.00000" pt_clust_9="20.26570"></scales>
<clustering>
<clus scale="   20.266">  2  9  1 -1</clus>
<clus scale="   80.414">  5  6 -1 -1</clus>
<clus scale="   94.383">  7  8 -1 -1</clus>
<clus scale="  173.239">  2  5  1 -1</clus>
<clus scale="   20.266">  2  5  1 -1</clus>
</clustering>
</event>
<event>
 9    1  0.2674825E-005  0.1966656E+03  0.7546771E-02  0.1153596E+00
         -2   -1    0    0    0  501 -0.00000000000E+00  0.00000000000E+00  0.13714681200E+04  0.13714681200E+04  0.00000000000E+00 0.  1.
          1   -1    0    0  502    0  0.00000000000E+00 -0.00000000000E+00 -0.72037745632E+02  0.72037745632E+02  0.00000000000E+00 0. -1.
         23    2    1    2    0    0 -0.22637022349E+02  0.18919855709E+03  0.95281019985E+03  0.97588626668E+03  0.90543910745E+02 0.  0.
        -24    2    1    2    0    0  0.76692087550E+02 -0.13432650580E+03  0.34957009621E+03  0.39053786232E+03  0.79970515123E+02 0.  0.
         13    1    4    4    0    0  0.43436266314E+02 -0.13336382025E+03  0.29457808957E+03  0.32626502822E+03  0.00000000000E+00 0. -1.
        -14    1    4    4    0    0  0.33255821237E+02 -0.96268555307E+00  0.54992006639E+02  0.64272834104E+02  0.00000000000E+00 0.  1.
        -11    1    3    3    0    0 -0.25182091397E+02  0.13872461027E+03  0.84666299376E+03  0.85832213081E+03  0.00000000000E+00 0. -1.
         11    1    3    3    0    0  0.25450690476E+01  0.50473946822E+02  0.10614720608E+03  0.11756413587E+03  0.00000000000E+00 0.  1.
         21    1    1    2  502  501 -0.54055065201E+02 -0.54872051288E+02 -0.29499216744E+01  0.77081736646E+02  0.00000000000E+00 0.  1.
<scales pt_clust_5="13000.00000" pt_clust_6="13000.00000" pt_clust_7="13000.00000" pt_clust_8="13000.00000" pt_clust_9="77.02527"></scales>
<clustering>
<clus scale="   77.025">  2  9  1 -1</clus>
<clus scale="   79.971">  5  6 -1 -1</clus>
<clus scale="   90.544">  7  8 -1 -1</clus>
<clus scale="  192.027">  2  5  1 -1</clus>
<clus scale="   77.025">  2  5  1 -1</clus>
</clustering>
</event>
<event>
 9    1  0.2674825E-005  0.5062497E+03  0.7546771E-02  0.1012160E+00
         -4   -1    0    0    0  501 -0.00000000000E+00  0.00000000000E+00  0.92388389041E+03  0.92388389041E+03  0.00000000000E+00 0.  1.
          3   -1    0    0  502    0  0.00000000000E+00 -0.00000000000E+00 -0.25070086605E+03  0.25070086605E+03  0.00000000000E+00 0. -1.
        -24    2    1    2    0    0 -0.11408826114E+02  0.12736021799E+03  0.55640744346E+02  0.16105341638E+03  0.80569994762E+02 0.  0.
         23    2    1    2    0    0  0.84461667210E+02  0.32303288726E+03  0.29630213627E+03  0.45551171964E+03  0.90619817329E+02 0.  0.
         13    1    3    3    0    0 -0.22809142291E+02  0.12223444315E+03  0.23470342786E+02  0.12654000575E+03  0.00000000000E+00 0. -1.
        -14    1    3    3    0    0  0.11400316177E+02  0.51257748375E+01  0.32170401560E+02  0.34513410628E+02  0.00000000000E+00 0.  1.
        -13    1    4    4    0    0  0.43211472246E+02  0.25862469274E+03  0.26521056861E+03  0.37294853362E+03  0.00000000000E+00 0.  1.
         13    1    4    4    0    0  0.41250194964E+02  0.64408194520E+02  0.31091567658E+02  0.82563186017E+02  0.00000000000E+00 0. -1.
         21    1    1    2  502  501 -0.73052841096E+02 -0.45039310524E+03  0.32124014375E+03  0.55801962044E+03  0.00000000000E+00 0. -1.
<scales pt_clust_5="13000.00000" pt_clust_6="13000.00000" pt_clust_7="13000.00000" pt_clust_8="13000.00000" pt_clust_9="456.27915"></scales>
<clustering>
<clus scale="   80.570">  5  6 -1 -1</clus>
<clus scale="   90.620">  7  8 -1 -1</clus>
<clus scale="  117.658">  5  7 -1 -1</clus>
<clus scale="  456.279">  1  9  2 -1</clus>
<clus scale="  506.250">  2  5  1 -1</clus>
</clustering>
</event>
<event>
 9    1  0.2674825E-005  0.1033510E+03  0.7546771E-02  0.1277086E+00
         -2   -1    0    0    0  501 -0.00000000000E+00  0.00000000000E+00  0.62185154538E+03  0.62185154538E+03  0.00000000000E+00 0.  1.
          1   -1    0    0  502    0  0.00000000000E+00 -0.00000000000E+00 -0.29740149166E+02  0.29740149166E+02  0.00000000000E+00 0. -1.
         23    2    1    2    0    0  0.23134372009E+02 -0.52074156279E+02  0.36313651095E+03  0.37846937153E+03  0.90133360538E+02 0.  0.
        -24    2    1    2    0    0 -0.43253479542E+02  0.22461351287E+02  0.21406293658E+03  0.23434007295E+03  0.81957020299E+02 0.  0.
         11    1    4    4    0    0 -0.25472082604E+02  0.38355079583E+02  0.47774693139E+02  0.66350285806E+02  0.00000000000E+00 0. -1.
        -12    1    4    4    0    0 -0.17781396938E+02 -0.15893728295E+02  0.16628824344E+03  0.16798978714E+03  0.00000000000E+00 0.  1.
        -13    1    3    3    0    0  0.54563017597E+02 -0.39111304699E+02  0.17803277802E+03  0.19026951173E+03  0.00000000000E+00 0. -1.
         13    1    3    3    0    0 -0.31428645587E+02 -0.12962851579E+02  0.18510373293E+03  0.18819985980E+03  0.00000000000E+00 0.  1.
         21    1    1    2  502  501  0.20119107532E+02  0.29612804991E+02  0.14911948691E+02  0.38782250078E+02  0.00000000000E+00 0. -1.
<scales pt_clust_5="13000.00000" pt_clust_6="13000.00000" pt_clust_7="13000.00000" pt_clust_8="13000.00000" pt_clust_9="35.80079"></scales>
<clustering>
<clus scale="   35.801">  2  9  1 -1</clus>
<clus scale="   81.957">  5  6 -1 -1</clus>
<clus scale="   90.133">  7  8 -1 -1</clus>
<clus scale="   96.303">  2  5  1 -1</clus>
<clus scale="   35.801">  2  5  1 -1</clus>
</clustering>
</event>
<event>
 9    1  0.2674825E-005  0.1219921E+03  0.7546771E-02  0.1242480E+00
         -2   -1    0    0    0  501 -0.00000000000E+00  0.00000000000E+00  0.30274423203E+02  0.30274423203E+02  0.00000000000E+00 0.  1.
          1   -1    0    0  502    0  0.00000000000E+00 -0.00000000000E+00 -0.56726359026E+03  0.56726359026E+03  0.00000000000E+00 0. -1.
        -24    2    1    2    0    0 -0.68776363478E+02 -0.15941496852E+02 -0.18501925716E+03  0.21425199883E+03  0.81776977123E+02 0.  0.
         23    2    1    2    0    0  0.91029048898E+02  0.12468726850E+02 -0.30691029632E+03  0.33291130952E+03  0.90522114002E+02 0.  0.
         13    1    3    3    0    0 -0.26685567502E+02 -0.40288416174E+02 -0.13954790044E+03  0.14767834137E+03  0.00000000000E+00 0. -1.
        -14    1    3    3    0    0 -0.42090795976E+02  0.24346919322E+02 -0.45471356716E+02  0.66573657463E+02  0.00000000000E+00 0.  1.
        -13    1    4    4    0    0  0.85131717126E+00  0.35696038711E+02 -0.77959177634E+02  0.85747100814E+02  0.00000000000E+00 0.  1.
         13    1    4    4    0    0  0.90177731727E+02 -0.23227311860E+02 -0.22895111869E+03  0.24716420870E+03  0.00000000000E+00 0. -1.
         21    1    1    2  502  501 -0.22252685421E+02  0.34727700019E+01 -0.45059613573E+02  0.50374705114E+02  0.00000000000E+00 0. -1.
<scales pt_clust_5="13000.00000" pt_clust_6="13000.00000" pt_clust_7="13000.00000" pt_clust_8="13000.00000" pt_clust_9="22.52204"></scales>
<clustering>
<clus scale="   22.522">  1  9  2 -1</clus>
<clus scale="   81.777">  5  6 -1 -1</clus>
<clus scale="   90.522">  7  8 -1 -1</clus>
<clus scale="  115.652">  1  5  2 -1</clus>
<clus scale="  121.992">  2  5  1 -1</clus>
</clustering>
</event>
<event>
 9    1  0.2674825E-005  0.1012727E+03  0.7546771E-02  0.1282729E+00
          1   -1    0    0  502    0  0.00000000000E+00  0.00000000000E+00  0.46316313079E+03  0.46316313079E+03  0.00000000000E+00 0. -1.
         -2   -1    0    0    0  501 -0.00000000000E+00 -0.00000000000E+00 -0.66775941720E+02  0.66775941720E+02  0.00000000000E+00 0.  1.
         23    2    1    2    0    0  0.86698172151E+02  0.10317396343E+02  0.35659641622E+02  0.11680056659E+03  0.68903850352E+02 0.  0.
        -24    2    1    2    0    0 -0.26940078705E+02 -0.56006966567E+02  0.29865732566E+03  0.31561271963E+03  0.80948393896E+02 0.  0.
         13    1    4    4    0    0 -0.43646113041E+02 -0.49739971633E+01  0.89884114027E+02  0.10004437908E+03  0.00000000000E+00 0. -1.
        -14    1    4    4    0    0  0.16706034336E+02 -0.51032969404E+02  0.20877321163E+03  0.21556834054E+03  0.00000000000E+00 0.  1.
        -13    1    3    3    0    0  0.17287302066E+02  0.24678934606E+02 -0.10847126645E+02  0.32024377940E+02  0.00000000000E+00 0.  1.
         13    1    3    3    0    0  0.69410870085E+02 -0.14361538263E+02  0.46506768267E+02  0.84776188649E+02  0.00000000000E+00 0. -1.
         21    1    1    2  502  501 -0.59758093446E+02  0.45689570224E+02  0.62070221788E+02  0.97525786295E+02  0.00000000000E+00 0. -1.
<scales pt_clust_5="13000.00000" pt_clust_6="13000.00000" pt_clust_7="13000.00000" pt_clust_8="13000.00000" pt_clust_9="75.22344"></scales>
<clustering>
<clus scale="   68.904">  7  8 -1 -1</clus>
<clus scale="   75.223">  2  9  1 -1</clus>
<clus scale="   80.948">  5  6 -1 -1</clus>
<clus scale="   91.931">  2  7  1 -1</clus>
<clus scale="  101.273">  1  5  2 -1</clus>
</clustering>
</event>
<event>
 9    1  0.2674825E-005  0.1454597E+03  0.7546771E-02  0.1208305E+00
         -2   -1    0    0    0  501 -0.00000000000E+00  0.00000000000E+00  0.35477415775E+03  0.35477415775E+03  0.00000000000E+00 0.  1.
          1   -1    0    0  502    0  0.00000000000E+00 -0.00000000000E+00 -0.13890497151E+03  0.13890497151E+03  0.00000000000E+00 0. -1.
        -24    2    1    2    0    0  0.12100922841E+03  0.58476613204E+02  0.25383570107E+03  0.29855955421E+03  0.81501512994E+02 0.  0.
         23    2    1    2    0    0 -0.49478434748E+02 -0.33654495667E+02  0.11194983144E+01  0.10991095821E+03  0.92186901860E+02 0.  0.
         13    1    3    3    0    0  0.90017732939E+02  0.10781842480E+02  0.10225496001E+03  0.13665839607E+03  0.00000000000E+00 0. -1.
        -14    1    3    3    0    0  0.30991495470E+02  0.47694770724E+02  0.15158074105E+03  0.16190115813E+03  0.00000000000E+00 0.  1.
        -13    1    4    4    0    0  0.23900148599E+02  0.37148783387E+01 -0.11189390332E+02  0.26649950847E+02  0.00000000000E+00 0.  1.
         13    1    4    4    0    0 -0.73378583346E+02 -0.37369374005E+02  0.12308888647E+02  0.83261007364E+02  0.00000000000E+00 0. -1.
         21    1    1    2  502  501 -0.71530793661E+02 -0.24822117537E+02 -0.39086013135E+02  0.85208616839E+02  0.00000000000E+00 0. -1.
<scales pt_clust_5="13000.00000" pt_clust_6="13000.00000" pt_clust_7="13000.00000" pt_clust_8="13000.00000" pt_clust_9="75.71520"></scales>
<clustering>
<clus scale="   75.715">  2  9  1 -1</clus>
<clus scale="   81.502">  5  6 -1 -1</clus>
<clus scale="   92.187">  7  8 -1 -1</clus>
<clus scale="  138.934">  1  5  2 -1</clus>
<clus scale="   75.715">  2  5  1 -1</clus>
</clustering>
</event>
<event>
 9    1  0.2674825E-005  0.9489333E+02  0.7546771E-02  0.1300972E+00
          1   -1    0    0  502    0  0.00000000000E+00  0.00000000000E+00  0.63894001959E+02  0.63894001959E+02  0.00000000000E+00 0. -1.
         -2   -1    0    0    0  501 -0.00000000000E+00 -0.00000000000E+00 -0.61832092771E+03  0.61832092771E+03  0.00000000000E+00 0.  1.
        -24    2    1    2    0    0  0.13409655743E+02 -0.89400448308E+01 -0.51683756886E+03  0.52293097939E+03  0.77948658397E+02 0.  0.
         23    2    1    2    0    0 -0.24026054668E+02 -0.30781967810E+02  0.30458265638E+01  0.10147595474E+03  0.93612560512E+02 0.  0.
         11    1    3    3    0    0 -0.24320355773E+02 -0.15803479721E+02 -0.94372574242E+02  0.98728984828E+02  0.00000000000E+00 0. -1.
        -12    1    3    3    0    0  0.37730011516E+02  0.68634348899E+01 -0.42246499462E+03  0.42420199456E+03  0.00000000000E+00 0.  1.
        -13    1    4    4    0    0  0.15280486010E+02 -0.27809022815E+02 -0.34615326479E+02  0.46958021997E+02  0.00000000000E+00 0.  1.
         13    1    4    4    0    0 -0.39306540678E+02 -0.29729449950E+01  0.37661153043E+02  0.54517932743E+02  0.00000000000E+00 0. -1.
         21    1    1    2  502  501  0.10616398926E+02  0.39722012641E+02 -0.40635183450E+02  0.57807995540E+02  0.00000000000E+00 0. -1.
<scales pt_clust_5="13000.00000" pt_clust_6="13000.00000" pt_clust_7="13000.00000" pt_clust_8="13000.00000" pt_clust_9="41.11625"></scales>
<clustering>
<clus scale="   41.116">  1  9  2 -1</clus>
<clus scale="   77.949">  5  6 -1 -1</clus>
<clus scale="   79.482">  2  5  1 -1</clus>
<clus scale="   93.613">  7  8 -1 -1</clus>
<clus scale="   41.116">  1  5  2 -1</clus>
</clustering>
</event>
<event>
 9    1  0.2674825E-005  0.1064902E+03  0.7546771E-02  0.1272152E+00
         -2   -1    0    0    0  501 -0.00000000000E+00  0.00000000000E+00  0.11302829653E+03  0.11302829653E+03  0.00000000000E+00 0.  1.
          1   -1    0    0  502    0  0.00000000000E+00 -0.00000000000E+00 -0.40644084218E+03  0.40644084218E+03  0.00000000000E+00 0. -1.
        -24    2    1    2    0    0 -0.64214806814E+02  0.10641875936E+02  0.72692133979E+02  0.12375311592E+03  0.76117648547E+02 0.  0.
         23    2    1    2    0    0  0.26492118265E+02  0.36794736787E+01 -0.15109734155E+03  0.17695529113E+03  0.88132840519E+02 0.  0.
         11    1    3    3    0    0 -0.43126097729E+02  0.41273424342E+02  0.28964301114E+02  0.66349729474E+02  0.00000000000E+00 0. -1.
        -12    1    3    3    0    0 -0.21088709085E+02 -0.30631548406E+02  0.43727832865E+02  0.57403386448E+02  0.00000000000E+00 0.  1.
        -11    1    4    4    0    0 -0.88054259961E+01  0.21150351280E+02 -0.13052699987E+03  0.13252233994E+03  0.00000000000E+00 0. -1.
         11    1    4    4    0    0  0.35297544261E+02 -0.17470877601E+02 -0.20570341680E+02  0.44432951194E+02  0.00000000000E+00 0.  1.
         21    1    1    2  502  501  0.37722688549E+02 -0.14321349615E+02 -0.21500733808E+03  0.21876073165E+03  0.00000000000E+00 0.  1.
<scales pt_clust_5="13000.00000" pt_clust_6="13000.00000" pt_clust_7="13000.00000" pt_clust_8="13000.00000" pt_clust_9="40.34975"></scales>
<clustering>
<clus scale="   40.350">  2  9  1 -1</clus>
<clus scale="   76.118">  5  6 -1 -1</clus>
<clus scale="   88.133">  7  8 -1 -1</clus>
<clus scale="   96.781">  1  5  2 -1</clus>
<clus scale="   40.350">  2  5  1 -1</clus>
</clustering>
</event>
<event>
 9    1  0.2674825E-005  0.1286440E+03  0.7546771E-02  0.1232280E+00
         -2   -1    0    0    0  501 -0.00000000000E+00  0.00000000000E+00  0.35055599485E+02  0.35055599485E+02  0.00000000000E+00 0.  1.
          1   -1    0    0  502    0  0.00000000000E+00 -0.00000000000E+00 -0.68698834544E+03  0.68698834544E+03  0.00000000000E+00 0. -1.
        -24    2    1    2    0    0 -0.81679015391E+02  0.29123178303E+02 -0.14883201551E+03  0.18954733339E+03  0.79105004180E+02 0.  0.
         23    2    1    2    0    0  0.10354812753E+03 -0.14618206971E+02 -0.33321749553E+03  0.36059848541E+03  0.89785642847E+02 0.  0.
         11    1    3    3    0    0 -0.53775821188E+02  0.10768322771E+02 -0.14607933956E+03  0.15603515362E+03  0.00000000000E+00 0. -1.
        -12    1    3    3    0    0 -0.27903194202E+02  0.18354855532E+02 -0.27526759529E+01  0.33512179774E+02  0.00000000000E+00 0.  1.
        -11    1    4    4    0    0  0.76359653610E+02 -0.50744557824E+02 -0.20267709372E+03  0.22244956994E+03  0.00000000000E+00 0. -1.
         11    1    4    4    0    0  0.27188473922E+02  0.36126350853E+02 -0.13054040181E+03  0.13814891547E+03  0.00000000000E+00 0.  1.
         21    1    1    2  502  501 -0.21869112142E+02 -0.14504971332E+02 -0.16988323491E+03  0.17189812612E+03  0.00000000000E+00 0.  1.
<scales pt_clust_5="13000.00000" pt_clust_6="13000.00000" pt_clust_7="13000.00000" pt_clust_8="13000.00000" pt_clust_9="26.24218"></scales>
<clustering>
<clus scale="   26.242">  2  9  1 -1</clus>
<clus scale="   79.105">  5  6 -1 -1</clus>
<clus scale="   89.786">  7  8 -1 -1</clus>
<clus scale="  121.431">  1  5  2 -1</clus>
<clus scale="   26.242">  2  5  1 -1</clus>
</clustering>
</event>
<event>
 9    1  0.2674825E-005  0.1087034E+03  0.7546771E-02  0.1267616E+00
         -2   -1    0    0    0  501 -0.00000000000E+00  0.00000000000E+00  0.10812447588E+04  0.10812447588E+04  0.00000000000E+00 0.  1.
          1   -1    0    0  502    0  0.00000000000E+00 -0.00000000000E+00 -0.10106082911E+03  0.10106082911E+03  0.00000000000E+00 0. -1.
        -24    2    1    2    0    0 -0.54997944479E+02 -0.22014556936E+02  0.10302488983E+04  0.10350438816E+04  0.79960175408E+02 0.  0.
         23    2    1    2    0    0  0.54751667098E+02 -0.74330161014E+01 -0.49835428572E+02  0.11781220891E+03  0.91340855311E+02 0.  0.
         11    1    3    3    0    0 -0.28747571209E+02  0.23724065750E+02  0.22467916632E+03  0.22774982311E+03  0.00000000000E+00 0. -1.
        -12    1    3    3    0    0 -0.26250373270E+02 -0.45738622686E+02  0.80556973202E+03  0.80729405848E+03  0.00000000000E+00 0.  1.
        -11    1    4    4    0    0  0.76323703363E+02  0.10162066210E+02 -0.46052811990E+02  0.89718653450E+02  0.00000000000E+00 0. -1.
         11    1    4    4    0    0 -0.21572036265E+02 -0.17595082311E+02 -0.37826165820E+01  0.28093555460E+02  0.00000000000E+00 0.  1.
         21    1    1    2  502  501  0.24627738107E+00  0.29447573037E+02 -0.22954005861E+00  0.29449497431E+02  0.00000000000E+00 0. -1.
<scales pt_clust_5="13000.00000" pt_clust_6="13000.00000" pt_clust_7="13000.00000" pt_clust_8="13000.00000" pt_clust_9="29.44860"></scales>
<clustering>
<clus scale="   29.449">  2  9  1 -1</clus>
<clus scale="   79.960">  5  6 -1 -1</clus>
<clus scale="   91.341">  7  8 -1 -1</clus>
<clus scale="   99.332">  1  5  2 -1</clus>
<clus scale="   29.449">  2  5  1 -1</clus>
</clustering>
</event>
<event>
 9    1  0.2674825E-005  0.2785141E+03  0.7546771E-02  0.1097257E+00
         -2   -1    0    0    0  501 -0.00000000000E+00  0.00000000000E+00  0.59438742101E+03  0.59438742101E+03  0.00000000000E+00 0.  1.
          1   -1    0    0  502    0  0.00000000000E+00 -0.00000000000E+00 -0.14572371710E+03  0.14572371710E+03  0.00000000000E+00 0. -1.
        -24    2    1    2    0    0 -0.89249625739E+02  0.25513194520E+03  0.29257762941E+03  0.40656980681E+03  0.81483332152E+02 0.  0.
         23    2    1    2    0    0  0.66131591526E+02 -0.23830102561E+03  0.13831824623E+03  0.29987504132E+03  0.98144469861E+02 0.  0.
         11    1    3    3    0    0 -0.25326677036E+02  0.18754884237E+03  0.19330743854E+03  0.27052499818E+03  0.00000000000E+00 0. -1.
        -12    1    3    3    0    0 -0.63922948704E+02  0.67583102826E+02  0.99270190869E+02  0.13604480862E+03  0.00000000000E+00 0.  1.
        -11    1    4    4    0    0  0.49112000407E+02 -0.10503713592E+03  0.11539466488E+03  0.16358703246E+03  0.00000000000E+00 0.  1.
         11    1    4    4    0    0  0.17019591119E+02 -0.13326388969E+03  0.22923581342E+02  0.13628800886E+03  0.00000000000E+00 0. -1.
         21    1    1    2  502  501  0.23118034213E+02 -0.16830919586E+02  0.17767828271E+02  0.33666289986E+02  0.00000000000E+00 0. -1.
<scales pt_clust_5="13000.00000" pt_clust_6="13000.00000" pt_clust_7="13000.00000" pt_clust_8="13000.00000" pt_clust_9="28.59586"></scales>
<clustering>
<clus scale="   28.596">  2  9  1 -1</clus>
<clus scale="   81.483">  5  6 -1 -1</clus>
<clus scale="   98.144">  7  8 -1 -1</clus>
<clus scale="  273.088">  1  5  2 -1</clus>
<clus scale="   28.596">  2  5  1 -1</clus>
</clustering>
</event>
<event>
 9    1  0.2674825E-005  0.1304585E+03  0.7546771E-02  0.1229027E+00
         -2   -1    0    0    0  501 -0.00000000000E+00  0.00000000000E+00  0.49258025324E+03  0.49258025324E+03  0.00000000000E+00 0.  1.
          1   -1    0    0  502    0  0.00000000000E+00 -0.00000000000E+00 -0.54409648092E+02  0.54409648092E+02  0.00000000000E+00 0. -1.
        -24    2    1    2    0    0 -0.91518731919E+02  0.34832637988E+02  0.35960821563E+03  0.38188391346E+03  0.83236191936E+02 0.  0.
         23    2    1    2    0    0  0.75007420282E+02 -0.18157484747E+02  0.74630875134E+02  0.14131227120E+03  0.91888971698E+02 0.  0.
         11    1    3    3    0    0 -0.17825829622E+02  0.25983771115E+02  0.28266891596E+02  0.42331238153E+02  0.00000000000E+00 0. -1.
        -12    1    3    3    0    0 -0.73692902297E+02  0.88488668727E+01  0.33134132403E+03  0.33955267530E+03  0.00000000000E+00 0.  1.
        -11    1    4    4    0    0  0.44713862116E+02  0.27905613730E+02  0.67622098463E+02  0.85736812068E+02  0.00000000000E+00 0.  1.
         11    1    4    4    0    0  0.30293558166E+02 -0.46063098478E+02  0.70087766713E+01  0.55575459136E+02  0.00000000000E+00 0. -1.
         21    1    1    2  502  501  0.16511311637E+02 -0.16675153240E+02  0.39315143813E+01  0.23793716668E+02  0.00000000000E+00 0. -1.
<scales pt_clust_5="13000.00000" pt_clust_6="13000.00000" pt_clust_7="13000.00000" pt_clust_8="13000.00000" pt_clust_9="23.46666"></scales>
<clustering>
<clus scale="   23.467">  2  9  1 -1</clus>
<clus scale="   83.236">  5  6 -1 -1</clus>
<clus scale="   91.889">  7  8 -1 -1</clus>
<clus scale="  124.515">  1  5  2 -1</clus>
<clus scale="   23.467">  2  5  1 -1</clus>
</clustering>
</event>
<event>
 9    1  0.2674825E-005  0.1115063E+03  0.7546771E-02  0.1264738E+00
          3   -1    0    0  502    0  0.00000000000E+00  0.00000000000E+00  0.12394202024E+03  0.12394202024E+03  0.00000000000E+00 0. -1.
         -4   -1    0    0    0  501 -0.00000000000E+00 -0.00000000000E+00 -0.14197714263E+03  0.14197714263E+03  0.00000000000E+00 0.  1.
        -24    2    1    2    0    0 -0.37061427286E+02  0.28866251399E+02 -0.63953934594E+02  0.11188177335E+03  0.78870879263E+02 0.  0.
         23    2    1    2    0    0  0.33750403800E+02 -0.51785885328E+02  0.57986638778E+02  0.12792407999E+03  0.95818851428E+02 0.  0.
         11    1    3    3    0    0  0.20150534007E+02  0.27929174576E+01 -0.39480482817E+02  0.44413431888E+02  0.00000000000E+00 0. -1.
        -12    1    3    3    0    0 -0.57211961292E+02  0.26073333941E+02 -0.24473451777E+02  0.67468341462E+02  0.00000000000E+00 0.  1.
        -11    1    4    4    0    0 -0.23992405228E+02  0.77113553547E+01  0.32617878896E+02  0.41219249553E+02  0.00000000000E+00 0. -1.
         11    1    4    4    0    0  0.57742809029E+02 -0.59497240683E+02  0.25368759882E+02  0.86704830439E+02  0.00000000000E+00 0.  1.
         21    1    1    2  502  501  0.33110234853E+01  0.22919633930E+02 -0.12067826580E+02  0.26113309525E+02  0.00000000000E+00 0.  1.
<scales pt_clust_5="13000.00000" pt_clust_6="13000.00000" pt_clust_7="13000.00000" pt_clust_8="13000.00000" pt_clust_9="23.15756"></scales>
<clustering>
<clus scale="   23.158">  2  9  1 -1</clus>
<clus scale="   78.871">  5  6 -1 -1</clus>
<clus scale="   95.819">  7  8 -1 -1</clus>
<clus scale="   97.329">  2  5  1 -1</clus>
<clus scale="  111.506">  1  5  2 -1</clus>
</clustering>
</event>
<event>
 9    1  0.2674825E-005  0.2166993E+03  0.7546771E-02  0.1138172E+00
         -2   -1    0    0    0  501 -0.00000000000E+00  0.00000000000E+00  0.14129982419E+03  0.14129982419E+03  0.00000000000E+00 0.  1.
          1   -1    0    0  502    0  0.00000000000E+00 -0.00000000000E+00 -0.64915370254E+03  0.64915370254E+03  0.00000000000E+00 0. -1.
        -24    2    1    2    0    0  0.13412995971E+03  0.64616717215E+02 -0.14440878710E+02  0.16792944104E+03  0.76325565550E+02 0.  0.
         23    2    1    2    0    0 -0.11605759413E+03 -0.18673433466E+03 -0.40273030506E+03  0.46934878094E+03  0.98780072180E+02 0.  0.
         13    1    3    3    0    0  0.11966663503E+03  0.22676417399E+02 -0.18386680137E+01  0.12181011512E+03  0.00000000000E+00 0. -1.
        -14    1    3    3    0    0  0.14463324679E+02  0.41940299815E+02 -0.12602210696E+02  0.46119325925E+02  0.00000000000E+00 0.  1.
        -13    1    4    4    0    0 -0.50274649558E+02 -0.10979894133E+03 -0.30752685531E+03  0.33038782460E+03  0.00000000000E+00 0. -1.
         13    1    4    4    0    0 -0.65782944568E+02 -0.76935393329E+02 -0.95203449749E+02  0.13896095634E+03  0.00000000000E+00 0.  1.
         21    1    1    2  502  501 -0.18072365581E+02  0.12211761744E+03 -0.90682694578E+02  0.15317530474E+03  0.00000000000E+00 0.  1.
<scales pt_clust_5="13000.00000" pt_clust_6="13000.00000" pt_clust_7="13000.00000" pt_clust_8="13000.00000" pt_clust_9="123.44765"></scales>
<clustering>
<clus scale="   76.326">  5  6 -1 -1</clus>
<clus scale="   98.780">  7  8 -1 -1</clus>
<clus scale="  123.448">  1  9  2 -1</clus>
<clus scale="  207.429">  1  5  2 -1</clus>
<clus scale="  216.699">  2  5  1 -1</clus>
</clustering>
</event>
<event>
 9    1  0.2959659E-005  0.2239601E+03  0.7546771E-02  0.1131957E+00
          1   -1    0    0  502    0  0.00000000000E+00  0.00000000000E+00  0.78403948425E+03  0.78403948425E+03  0.00000000000E+00 0. -1.
         -2   -1    0    0    0  501 -0.00000000000E+00 -0.00000000000E+00 -0.14255094559E+03  0.14255094559E+03  0.00000000000E+00 0.  1.
         23    2    1    2    0    0  0.17471979426E+03 -0.10997196402E+03 -0.17402229138E+02  0.22788639660E+03  0.94913290950E+02 0.  0.
        -24    2    1    2    0    0 -0.15104660667E+03  0.99635223834E+02  0.62709286453E+03  0.65773606208E+03  0.81418741039E+02 0.  0.
         11    1    4    4    0    0 -0.15615462983E+03  0.79524414552E+02  0.58690327826E+03  0.61250621137E+03  0.00000000000E+00 0. -1.
        -12    1    4    4    0    0  0.51080231622E+01  0.20110809282E+02  0.40189586271E+02  0.45229850710E+02  0.00000000000E+00 0.  1.
        -13    1    3    3    0    0  0.12921310023E+03 -0.46913455181E+02 -0.46109185379E+02  0.14499294647E+03  0.00000000000E+00 0.  1.
         13    1    3    3    0    0  0.45506694029E+02 -0.63058508836E+02  0.28706956241E+02  0.82893450132E+02  0.00000000000E+00 0. -1.
         21    1    1    2  502  501 -0.23673187595E+02  0.10336740183E+02  0.31797903265E+02  0.40967971155E+02  0.00000000000E+00 0.  1.
<scales pt_clust_5="13000.00000" pt_clust_6="13000.00000" pt_clust_7="13000.00000" pt_clust_8="13000.00000" pt_clust_9="25.83153"></scales>
<clustering>
<clus scale="   25.832">  1  9  2 -1</clus>
<clus scale="   81.419">  5  6 -1 -1</clus>
<clus scale="   94.913">  7  8 -1 -1</clus>
<clus scale="  218.583">  1  5  2 -1</clus>
<clus scale="   25.832">  1  5  2 -1</clus>
</clustering>
</event>
<event>
 9    1  0.2674825E-005  0.1088920E+03  0.7546771E-02  0.1267340E+00
          1   -1    0    0  502    0  0.00000000000E+00  0.00000000000E+00  0.62432345473E+02  0.62432345473E+02  0.00000000000E+00 0. -1.
         -2   -1    0    0    0  501 -0.00000000000E+00 -0.00000000000E+00 -0.24657230774E+03  0.24657230774E+03  0.00000000000E+00 0.  1.
        -24    2    1    2    0    0  0.38513937973E+02  0.19381543081E+02 -0.11589278693E+03  0.14721468125E+03  0.79887775562E+02 0.  0.
         23    2    1    2    0    0 -0.53917360734E+02 -0.43480475521E+02 -0.39807595363E+02  0.12145594555E+03  0.91483706308E+02 0.  0.
         11    1    3    3    0    0  0.41748887688E+02 -0.12975815038E+02 -0.24295129136E+02  0.50015944446E+02  0.00000000000E+00 0. -1.
        -12    1    3    3    0    0 -0.32349497151E+01  0.32357358119E+02 -0.91597657792E+02  0.97198736808E+02  0.00000000000E+00 0.  1.
        -13    1    4    4    0    0 -0.57863014104E+02 -0.65970127788E+02 -0.17389513322E+02  0.89457148038E+02  0.00000000000E+00 0. -1.
         13    1    4    4    0    0  0.39456533695E+01  0.22489652267E+02 -0.22418082040E+02  0.31998797508E+02  0.00000000000E+00 0.  1.
         21    1    1    2  502  501  0.15403422761E+02  0.24098932440E+02 -0.28439579980E+02  0.40334026417E+02  0.00000000000E+00 0.  1.
<scales pt_clust_5="13000.00000" pt_clust_6="13000.00000" pt_clust_7="13000.00000" pt_clust_8="13000.00000" pt_clust_9="28.60112"></scales>
<clustering>
<clus scale="   28.601">  2  9  1 -1</clus>
<clus scale="   79.888">  5  6 -1 -1</clus>
<clus scale="   91.484">  7  8 -1 -1</clus>
<clus scale="   99.349">  2  5  1 -1</clus>
<clus scale="  108.892">  1  5  2 -1</clus>
</clustering>
</event>
<event>
 9    1  0.2674825E-005  0.1404738E+03  0.7546771E-02  0.1228453E+00
          1   -1    0    0  502    0  0.00000000000E+00  0.00000000000E+00  0.66434200794E+03  0.66434200794E+03  0.00000000000E+00 0. -1.
         -2   -1    0    0    0  501 -0.00000000000E+00 -0.00000000000E+00 -0.12822858755E+03  0.12822858755E+03  0.00000000000E+00 0.  1.
         23    2    1    2    0    0 -0.27932454430E+02  0.28853919380E+02 -0.35309987000E+02  0.10692635820E+03  0.92594169482E+02 0.  0.
        -24    2    1    2    0    0  0.13180655792E+03  0.43532421395E+01  0.69800506129E+02  0.17230411611E+03  0.86166573249E+02 0.  0.
         11    1    4    4    0    0  0.44006202772E+02 -0.19533401537E+02  0.65393329469E+02  0.81205832285E+02  0.00000000000E+00 0. -1.
        -12    1    4    4    0    0  0.87800355145E+02  0.23886643677E+02  0.44071766598E+01  0.91098283825E+02  0.00000000000E+00 0.  1.
        -13    1    3    3    0    0  0.16016460005E+02  0.26759844586E+02 -0.51363709064E+02  0.60090322700E+02  0.00000000000E+00 0.  1.
         13    1    3    3    0    0 -0.43948914435E+02  0.20940747947E+01  0.16053722064E+02  0.46836035500E+02  0.00000000000E+00 0. -1.
         21    1    1    2  502  501 -0.10387410349E+03 -0.33207161520E+02  0.50162290126E+03  0.51334012118E+03  0.00000000000E+00 0. -1.
<scales pt_clust_5="13000.00000" pt_clust_6="13000.00000" pt_clust_7="13000.00000" pt_clust_8="13000.00000" pt_clust_9="110.94242"></scales>
<clustering>
<clus scale="   86.167">  5  6 -1 -1</clus>
<clus scale="   92.594">  7  8 -1 -1</clus>
<clus scale="  100.928">  2  7  1 -1</clus>
<clus scale="  110.942">  1  9  2 -1</clus>
<clus scale="  110.942">  1  5  2 -1</clus>
</clustering>
</event>
<event>
 9    1  0.2674825E-005  0.9304979E+02  0.7546771E-02  0.1303644E+00
         -2   -1    0    0    0  501 -0.00000000000E+00  0.00000000000E+00  0.28917396791E+02  0.28917396791E+02  0.00000000000E+00 0.  1.
          1   -1    0    0  502    0  0.00000000000E+00 -0.00000000000E+00 -0.88677239490E+03  0.88677239490E+03  0.00000000000E+00 0. -1.
         23    2    1    2    0    0  0.75049943116E+01  0.85991015797E+00 -0.64214529581E+02  0.11309864773E+03  0.92794040344E+02 0.  0.
        -24    2    1    2    0    0  0.10557781044E+02 -0.28583670595E+02 -0.52648986786E+03  0.53339917866E+03  0.79966304599E+02 0.  0.
         11    1    4    4    0    0  0.81654627126E+01  0.27860805303E+02 -0.17041917874E+03  0.17287450864E+03  0.00000000000E+00 0. -1.
        -12    1    4    4    0    0  0.23923183314E+01 -0.56444475898E+02 -0.35607068912E+03  0.36052467002E+03  0.00000000000E+00 0.  1.
        -13    1    3    3    0    0  0.46268519021E+01 -0.28460956256E+02  0.12118250987E+02  0.31277560591E+02  0.00000000000E+00 0.  1.
         13    1    3    3    0    0  0.28781424095E+01  0.29320866414E+02 -0.76332780567E+02  0.81821087136E+02  0.00000000000E+00 0. -1.
         21    1    1    2  502  501 -0.18062775356E+02  0.27723760437E+02 -0.26715060067E+03  0.26919196531E+03  0.00000000000E+00 0. -1.
<scales pt_clust_5="13000.00000" pt_clust_6="13000.00000" pt_clust_7="13000.00000" pt_clust_8="13000.00000" pt_clust_9="33.08883"></scales>
<clustering>
<clus scale="   33.089">  2  9  1 -1</clus>
<clus scale="   79.966">  5  6 -1 -1</clus>
<clus scale="   80.263">  2  5  1 -1</clus>
<clus scale="   92.794">  7  8 -1 -1</clus>
<clus scale="   33.089">  2  5  1 -1</clus>
</clustering>
</event>
<event>
 9    1  0.2674825E-005  0.9254136E+02  0.7546771E-02  0.1303500E+00
          1   -1    0    0  502    0  0.00000000000E+00  0.00000000000E+00  0.49545136641E+03  0.49545136641E+03  0.00000000000E+00 0. -1.
         -2   -1    0    0    0  501 -0.00000000000E+00 -0.00000000000E+00 -0.45179113220E+02  0.45179113220E+02  0.00000000000E+00 0.  1.
         23    2    1    2    0    0 -0.17849320133E+02 -0.88310057558E+01  0.26855159804E+02  0.97381139427E+02  0.91462023902E+02 0.  0.
        -24    2    1    2    0    0 -0.78849277650E+01 -0.26127673275E+02  0.31939840530E+03  0.33053621663E+03  0.80585493728E+02 0.  0.
         13    1    4    4    0    0  0.26674629241E+02 -0.31319175684E+02  0.96329182625E+02  0.10474606454E+03  0.00000000000E+00 0. -1.
        -14    1    4    4    0    0 -0.34559557006E+02  0.51915024087E+01  0.22306922267E+03  0.22579015209E+03  0.00000000000E+00 0.  1.
        -13    1    3    3    0    0 -0.15531784503E+01 -0.49595842688E+02  0.16297750180E+02  0.52228121124E+02  0.00000000000E+00 0.  1.
         13    1    3    3    0    0 -0.16296141683E+02  0.40764836933E+02  0.10557409625E+02  0.45153018303E+02  0.00000000000E+00 0. -1.
         21    1    1    2  502  501  0.25734247898E+02  0.34958679031E+02  0.10401868809E+03  0.11271312357E+03  0.00000000000E+00 0. -1.
<scales pt_clust_5="13000.00000" pt_clust_6="13000.00000" pt_clust_7="13000.00000" pt_clust_8="13000.00000" pt_clust_9="43.40922"></scales>
<clustering>
<clus scale="   43.409">  1  9  2 -1</clus>
<clus scale="   80.585">  5  6 -1 -1</clus>
<clus scale="   81.808">  1  5  2 -1</clus>
<clus scale="   91.462">  7  8 -1 -1</clus>
<clus scale="   43.409">  1  5  2 -1</clus>
</clustering>
</event>
<event>
 9    1  0.2674825E-005  0.1310211E+03  0.7546771E-02  0.1227322E+00
         -4   -1    0    0    0  501 -0.00000000000E+00  0.00000000000E+00  0.51852694311E+02  0.51852694311E+02  0.00000000000E+00 0.  1.
          3   -1    0    0  502    0  0.00000000000E+00 -0.00000000000E+00 -0.60269124935E+03  0.60269124935E+03  0.00000000000E+00 0. -1.
        -24    2    1    2    0    0 -0.36820522924E+02 -0.89215651131E+02 -0.69361811276E+02  0.14488309397E+03  0.82854491363E+02 0.  0.
         23    2    1    2    0    0  0.66262734869E+02  0.76690957466E+02 -0.37014919370E+03  0.39382676491E+03  0.88412907257E+02 0.  0.
         11    1    3    3    0    0 -0.17500710191E+01 -0.20999894945E+02 -0.64692722730E+02  0.68038273864E+02  0.00000000000E+00 0. -1.
        -12    1    3    3    0    0 -0.35070451905E+02 -0.68215756186E+02 -0.46690885459E+01  0.76844820103E+02  0.00000000000E+00 0.  1.
        -13    1    4    4    0    0  0.45938587398E+02  0.95156595693E+02 -0.31440541058E+03  0.33168643885E+03  0.00000000000E+00 0. -1.
         13    1    4    4    0    0  0.20324147471E+02 -0.18465638227E+02 -0.55743783122E+02  0.62140326055E+02  0.00000000000E+00 0.  1.
         21    1    1    2  502  501 -0.29442211945E+02  0.12524693665E+02 -0.11132755006E+03  0.11583408479E+03  0.00000000000E+00 0. -1.
<scales pt_clust_5="13000.00000" pt_clust_6="13000.00000" pt_clust_7="13000.00000" pt_clust_8="13000.00000" pt_clust_9="31.99550"></scales>
<clustering>
<clus scale="   31.995">  2  9  1 -1</clus>
<clus scale="   82.854">  5  6 -1 -1</clus>
<clus scale="   88.413">  7  8 -1 -1</clus>
<clus scale="  127.336">  1  5  2 -1</clus>
<clus scale="   31.995">  2  5  1 -1</clus>
</clustering>
</event>
<event>
 9    1  0.2674825E-005  0.1346913E+03  0.7546771E-02  0.1229607E+00
          1   -1    0    0  502    0  0.00000000000E+00  0.00000000000E+00  0.16010416485E+03  0.16010416485E+03  0.00000000000E+00 0. -1.
         -2   -1    0    0    0  501 -0.00000000000E+00 -0.00000000000E+00 -0.16853266408E+03  0.16853266408E+03  0.00000000000E+00 0.  1.
        -24    2    1    2    0    0 -0.72517020742E+02  0.71351354079E+02 -0.96935662895E+02  0.14938853211E+03  0.50701841760E+02 0.  0.
         23    2    1    2    0    0  0.80122345449E+02 -0.47831520397E+02  0.66238538455E+02  0.14597796156E+03  0.90634302002E+02 0.  0.
         11    1    3    3    0    0 -0.65029523388E+02  0.68340515588E+02 -0.10271532388E+03  0.13946219108E+03  0.00000000000E+00 0. -1.
        -12    1    3    3    0    0 -0.74874973542E+01  0.30108384906E+01  0.57796609810E+01  0.99263410228E+01  0.00000000000E+00 0.  1.
        -11    1    4    4    0    0  0.32824418336E+02 -0.60153977819E+02  0.68706700449E+02  0.97038931224E+02  0.00000000000E+00 0. -1.
         11    1    4    4    0    0  0.47297927113E+02  0.12322457422E+02 -0.24681619939E+01  0.48939030331E+02  0.00000000000E+00 0.  1.
         21    1    1    2  502  501 -0.76053247075E+01 -0.23519833682E+02  0.22268625206E+02  0.33270335269E+02  0.00000000000E+00 0. -1.
<scales pt_clust_5="13000.00000" pt_clust_6="13000.00000" pt_clust_7="13000.00000" pt_clust_8="13000.00000" pt_clust_9="24.71889"></scales>
<clustering>
<clus scale="   24.719">  1  9  2 -1</clus>
<clus scale="   50.702">  5  6 -1 -1</clus>
<clus scale="   90.634">  7  8 -1 -1</clus>
<clus scale="  111.794">  2  5  1 -1</clus>
<clus scale="   24.719">  1  5  2 -1</clus>
</clustering>
</event>
<event>
 9    1  0.2674825E-005  0.3223834E+03  0.7546771E-02  0.1074897E+00
         -2   -1    0    0    0  501 -0.00000000000E+00  0.00000000000E+00  0.54533916563E+03  0.54533916563E+03  0.00000000000E+00 0.  1.
          1   -1    0    0  502    0  0.00000000000E+00 -0.00000000000E+00 -0.23603421381E+03  0.23603421381E+03  0.00000000000E+00 0. -1.
         23    2    1    2    0    0 -0.24556388085E+03 -0.17673185677E+03  0.27599245518E+03  0.41966098589E+03  0.91693723821E+02 0.  0.
        -24    2    1    2    0    0  0.25344397410E+03  0.19938233644E+03  0.44273919775E+02  0.33534398639E+03  0.80673695498E+02 0.  0.
         11    1    4    4    0    0  0.66622471429E+02  0.96066295222E+02  0.33382215758E+02  0.12157984663E+03  0.00000000000E+00 0. -1.
        -12    1    4    4    0    0  0.18682150267E+03  0.10331604122E+03  0.10891704016E+02  0.21376413976E+03  0.00000000000E+00 0.  1.
        -11    1    3    3    0    0 -0.19421443355E+03 -0.96343785119E+02  0.22086668728E+03  0.30948903806E+03  0.00000000000E+00 0. -1.
         11    1    3    3    0    0 -0.51349447298E+02 -0.80388071656E+02  0.55125767899E+02  0.11017194783E+03  0.00000000000E+00 0.  1.
         21    1    1    2  502  501 -0.78800932480E+01 -0.22650479666E+02 -0.10961423139E+02  0.26368407156E+02  0.00000000000E+00 0. -1.
<scales pt_clust_5="13000.00000" pt_clust_6="13000.00000" pt_clust_7="13000.00000" pt_clust_8="13000.00000" pt_clust_9="23.98208"></scales>
<clustering>
<clus scale="   23.982">  2  9  1 -1</clus>
<clus scale="   80.674">  5  6 -1 -1</clus>
<clus scale="   91.694">  7  8 -1 -1</clus>
<clus scale="  319.424">  2  5  1 -1</clus>
<clus scale="   23.982">  2  5  1 -1</clus>
</clustering>
</event>
<event>
 9    1  0.2674825E-005  0.1239538E+03  0.7546771E-02  0.1238456E+00
          1   -1    0    0  502    0  0.00000000000E+00  0.00000000000E+00  0.33243179951E+03  0.33243179951E+03  0.00000000000E+00 0. -1.
         -2   -1    0    0    0  501 -0.00000000000E+00 -0.00000000000E+00 -0.85947848986E+02  0.85947848986E+02  0.00000000000E+00 0.  1.
         23    2    1    2    0    0  0.84123029182E+02 -0.92760178614E+01 -0.38872588475E+01  0.12167599117E+03  0.87333885172E+02 0.  0.
        -24    2    1    2    0    0 -0.95763537438E+02  0.32230732749E+02  0.17999035321E+03  0.22176444675E+03  0.81076922469E+02 0.  0.
         11    1    4    4    0    0 -0.97287190343E+02  0.38173482661E+02  0.18588964827E+03  0.21325330834E+03  0.00000000000E+00 0. -1.
        -12    1    4    4    0    0  0.15236529056E+01 -0.59427499120E+01 -0.58992950653E+01  0.85111384057E+01  0.00000000000E+00 0.  1.
        -13    1    3    3    0    0  0.27577809157E+02 -0.25891773036E+02  0.34617564683E+02  0.51276654077E+02  0.00000000000E+00 0. -1.
         13    1    3    3    0    0  0.56545220026E+02  0.16615755174E+02 -0.38504823530E+02  0.70399337091E+02  0.00000000000E+00 0.  1.
         21    1    1    2  502  501  0.11640508255E+02 -0.22954714888E+02  0.70380856162E+02  0.74939210578E+02  0.00000000000E+00 0. -1.
<scales pt_clust_5="13000.00000" pt_clust_6="13000.00000" pt_clust_7="13000.00000" pt_clust_8="13000.00000" pt_clust_9="25.73753"></scales>
<clustering>
<clus scale="   25.738">  1  9  2 -1</clus>
<clus scale="   81.077">  5  6 -1 -1</clus>
<clus scale="   87.334">  7  8 -1 -1</clus>
<clus scale="  119.628">  1  5  2 -1</clus>
<clus scale="   25.738">  1  5  2 -1</clus>
</clustering>
</event>
<event>
 9    1  0.2674825E-005  0.9334329E+02  0.7546771E-02  0.1321831E+00
         -4   -1    0    0    0  501 -0.00000000000E+00  0.00000000000E+00  0.16376273901E+03  0.16376273901E+03  0.00000000000E+00 0.  1.
          3   -1    0    0  502    0  0.00000000000E+00 -0.00000000000E+00 -0.75377032511E+02  0.75377032511E+02  0.00000000000E+00 0. -1.
        -24    2    1    2    0    0  0.30472493288E+02  0.30131573430E+02  0.64100305799E+02  0.94648177512E+02  0.54890288196E+02 0.  0.
         23    2    1    2    0    0  0.92342351155E+01 -0.65335857894E+01  0.68015871137E+00  0.92619667589E+02  0.91923780204E+02 0.  0.
         13    1    3    3    0    0  0.20011586245E+02  0.17217855280E+02 -0.20151263353E+01  0.26476005338E+02  0.00000000000E+00 0. -1.
        -14    1    3    3    0    0  0.10460907042E+02  0.12913718150E+02  0.66115432134E+02  0.68172172174E+02  0.00000000000E+00 0.  1.
        -11    1    4    4    0    0 -0.25998633565E+02  0.31441250876E+02 -0.58527575045E+00  0.40802251795E+02  0.00000000000E+00 0.  1.
         11    1    4    4    0    0  0.35232868680E+02 -0.37974836665E+02  0.12654344618E+01  0.51817415794E+02  0.00000000000E+00 0. -1.
         21    1    1    2  502  501 -0.39706728403E+02 -0.23597987640E+02  0.23605241986E+02  0.51871926419E+02  0.00000000000E+00 0. -1.
<scales pt_clust_5="13000.00000" pt_clust_6="13000.00000" pt_clust_7="13000.00000" pt_clust_8="13000.00000" pt_clust_9="46.18971"></scales>
<clustering>
<clus scale="   46.190">  1  9  2 -1</clus>
<clus scale="   54.890">  5  6 -1 -1</clus>
<clus scale="   57.236">  1  5  2 -1</clus>
<clus scale="   91.924">  7  8 -1 -1</clus>
<clus scale="   93.343">  2  5  1 -1</clus>
</clustering>
</event>
<event>
 9    1  0.2674825E-005  0.1055029E+03  0.7546771E-02  0.1273178E+00
         -2   -1    0    0    0  501 -0.00000000000E+00  0.00000000000E+00  0.35679836778E+02  0.35679836778E+02  0.00000000000E+00 0.  1.
          1   -1    0    0  502    0  0.00000000000E+00 -0.00000000000E+00 -0.50896381541E+03  0.50896381541E+03  0.00000000000E+00 0. -1.
         23    2    1    2    0    0 -0.33453645296E+02 -0.41138620064E+02 -0.86106979951E+02  0.13588897398E+03  0.90773723119E+02 0.  0.
        -24    2    1    2    0    0  0.11236770863E+02  0.60113480256E+02 -0.30030597971E+03  0.31710202540E+03  0.81425533699E+02 0.  0.
         11    1    4    4    0    0 -0.17962628675E+02  0.64257686926E+02 -0.15366930968E+03  0.16752899180E+03  0.00000000000E+00 0. -1.
        -12    1    4    4    0    0  0.29199399538E+02 -0.41442066708E+01 -0.14663667003E+03  0.14957303360E+03  0.00000000000E+00 0.  1.
        -11    1    3    3    0    0 -0.13614099714E+02 -0.37534845997E+02 -0.10243588170E+03  0.10994234050E+03  0.00000000000E+00 0. -1.
         11    1    3    3    0    0 -0.19839545582E+02 -0.36037740673E+01  0.16328901751E+02  0.25946633478E+02  0.00000000000E+00 0.  1.
         21    1    1    2  502  501  0.22216874433E+02 -0.18974860191E+02 -0.86871018973E+02  0.91652652805E+02  0.00000000000E+00 0. -1.
<scales pt_clust_5="13000.00000" pt_clust_6="13000.00000" pt_clust_7="13000.00000" pt_clust_8="13000.00000" pt_clust_9="29.21703"></scales>
<clustering>
<clus scale="   29.217">  2  9  1 -1</clus>
<clus scale="   81.426">  5  6 -1 -1</clus>
<clus scale="   90.774">  7  8 -1 -1</clus>
<clus scale="   97.576">  2  5  1 -1</clus>
<clus scale="   29.217">  2  5  1 -1</clus>
</clustering>
</event>
<event>
 9    1  0.2674825E-005  0.1658777E+03  0.7546771E-02  0.1184034E+00
         -2   -1    0    0    0  501 -0.00000000000E+00  0.00000000000E+00  0.43929228738E+02  0.43929228738E+02  0.00000000000E+00 0.  1.
          1   -1    0    0  502    0  0.00000000000E+00 -0.00000000000E+00 -0.13787105156E+04  0.13787105156E+04  0.00000000000E+00 0. -1.
         23    2    1    2    0    0 -0.54337943417E+02  0.63134001059E+02 -0.97623245869E+02  0.15876077825E+03  0.93467493777E+02 0.  0.
        -24    2    1    2    0    0  0.78507406188E+02 -0.12659824844E+03 -0.10714296732E+04  0.10847762986E+04  0.81163686071E+02 0.  0.
         13    1    4    4    0    0  0.75539122908E+02 -0.13570363847E+03 -0.91778741238E+03  0.93083584531E+03  0.00000000000E+00 0. -1.
        -14    1    4    4    0    0  0.29682832804E+01  0.91053900305E+01 -0.15364226086E+03  0.15394045328E+03  0.00000000000E+00 0.  1.
        -11    1    3    3    0    0  0.53027099849E+00  0.25804930122E+02  0.13652645161E+02  0.29198806924E+02  0.00000000000E+00 0.  1.
         11    1    3    3    0    0 -0.54868214415E+02  0.37329070937E+02 -0.11127589103E+03  0.12956197133E+03  0.00000000000E+00 0. -1.
         21    1    1    2  502  501 -0.24169462771E+02  0.63464247386E+02 -0.16572836772E+03  0.17910266747E+03  0.00000000000E+00 0. -1.
<scales pt_clust_5="13000.00000" pt_clust_6="13000.00000" pt_clust_7="13000.00000" pt_clust_8="13000.00000" pt_clust_9="67.91078"></scales>
<clustering>
<clus scale="   67.911">  1  9  2 -1</clus>
<clus scale="   81.164">  5  6 -1 -1</clus>
<clus scale="   93.467">  7  8 -1 -1</clus>
<clus scale="  159.270">  2  5  1 -1</clus>
<clus scale="  159.270">  2  5  1 -1</clus>
</clustering>
</event>
<event>
 9    1  0.2674825E-005  0.1188292E+03  0.7546771E-02  0.1248633E+00
         -2   -1    0    0    0  501 -0.00000000000E+00  0.00000000000E+00  0.41255869586E+03  0.41255869586E+03  0.00000000000E+00 0.  1.
          1   -1    0    0  502    0  0.00000000000E+00 -0.00000000000E+00 -0.14532227828E+03  0.14532227828E+03  0.00000000000E+00 0. -1.
         23    2    1    2    0    0 -0.10330350403E+02 -0.73650650564E+02  0.34316790809E+03  0.36282041114E+03  0.91341683414E+02 0.  0.
        -24    2    1    2    0    0 -0.14404126827E+02  0.99136228029E+02 -0.90080211525E+02  0.15683105437E+03  0.80287387117E+02 0.  0.
         13    1    4    4    0    0  0.15279399478E+02  0.94980310652E+02 -0.80275371418E+02  0.12529507060E+03  0.00000000000E+00 0. -1.
        -14    1    4    4    0    0 -0.29683526305E+02  0.41559173770E+01 -0.98048401074E+01  0.31535983775E+02  0.00000000000E+00 0.  1.
        -11    1    3    3    0    0  0.28502554467E+02 -0.73424323381E+02  0.23943793718E+03  0.25205962119E+03  0.00000000000E+00 0.  1.
         11    1    3    3    0    0 -0.38832904870E+02 -0.22632718348E+00  0.10372997092E+03  0.11076078995E+03  0.00000000000E+00 0. -1.
         21    1    1    2  502  501  0.24734477229E+02 -0.25485577465E+02  0.14148721010E+02  0.38229508613E+02  0.00000000000E+00 0.  1.
<scales pt_clust_5="13000.00000" pt_clust_6="13000.00000" pt_clust_7="13000.00000" pt_clust_8="13000.00000" pt_clust_9="35.51491"></scales>
<clustering>
<clus scale="   35.515">  2  9  1 -1</clus>
<clus scale="   80.287">  5  6 -1 -1</clus>
<clus scale="   91.342">  7  8 -1 -1</clus>
<clus scale="  110.558">  2  5  1 -1</clus>
<clus scale="   35.515">  2  5  1 -1</clus>
</clustering>
</event>
<event>
 9    1  0.2674825E-005  0.1094120E+03  0.7546771E-02  0.1265111E+00
          3   -1    0    0  502    0  0.00000000000E+00  0.00000000000E+00  0.27317068515E+03  0.27317068515E+03  0.00000000000E+00 0. -1.
         -4   -1    0    0    0  501 -0.00000000000E+00 -0.00000000000E+00 -0.11691383337E+03  0.11691383337E+03  0.00000000000E+00 0.  1.
        -24    2    1    2    0    0  0.20840988677E+02  0.71128480718E+02 -0.57403391075E+02  0.12374536747E+03  0.80772266803E+02 0.  0.
         23    2    1    2    0    0  0.18452471420E+02 -0.18616622020E+02  0.12859557853E+03  0.15892654273E+03  0.89631193514E+02 0.  0.
         13    1    3    3    0    0  0.46430462094E+01  0.52101781843E+02  0.87454370532E+01  0.53034292854E+02  0.00000000000E+00 0. -1.
        -14    1    3    3    0    0  0.16197942467E+02  0.19026698875E+02 -0.66148828128E+02  0.70711074613E+02  0.00000000000E+00 0.  1.
        -13    1    4    4    0    0  0.19850902511E+02  0.34056196870E+02  0.42332954217E+02  0.57844290025E+02  0.00000000000E+00 0.  1.
         13    1    4    4    0    0 -0.13984310914E+01 -0.52672818890E+02  0.86262624311E+02  0.10108225271E+03  0.00000000000E+00 0. -1.
         21    1    1    2  502  501 -0.39293460097E+02 -0.52511858698E+02  0.85064664320E+02  0.10741260832E+03  0.00000000000E+00 0. -1.
<scales pt_clust_5="13000.00000" pt_clust_6="13000.00000" pt_clust_7="13000.00000" pt_clust_8="13000.00000" pt_clust_9="65.58560"></scales>
<clustering>
<clus scale="   65.586">  1  9  2 -1</clus>
<clus scale="   80.772">  5  6 -1 -1</clus>
<clus scale="   89.631">  7  8 -1 -1</clus>
<clus scale="  102.281">  2  5  1 -1</clus>
<clus scale="   65.586">  1  5  2 -1</clus>
</clustering>
</event>
<event>
 9    1  0.2674825E-005  0.9871603E+02  0.7546771E-02  0.1288190E+00
         -2   -1    0    0    0  501 -0.00000000000E+00  0.00000000000E+00  0.11366829541E+03  0.11366829541E+03  0.00000000000E+00 0.  1.
          1   -1    0    0  502    0  0.00000000000E+00 -0.00000000000E+00 -0.29927890303E+03  0.29927890303E+03  0.00000000000E+00 0. -1.
        -24    2    1    2    0    0 -0.32202934350E+02  0.83035794967E+01  0.55598873460E+02  0.10443282258E+03  0.81908493381E+02 0.  0.
         23    2    1    2    0    0  0.26833164735E+02 -0.69145620204E+02 -0.10019905764E+03  0.15484418401E+03  0.91846255488E+02 0.  0.
         11    1    3    3    0    0 -0.43149902846E+02  0.10818297291E+02 -0.31719263677E+01  0.44598327197E+02  0.00000000000E+00 0. -1.
        -12    1    3    3    0    0  0.10946968496E+02 -0.25147177939E+01  0.58770799828E+02  0.59834495379E+02  0.00000000000E+00 0.  1.
        -13    1    4    4    0    0  0.18505046528E+02  0.17659035672E+02 -0.44630229467E+02  0.51440603323E+02  0.00000000000E+00 0.  1.
         13    1    4    4    0    0  0.83281182072E+01 -0.86804655877E+02 -0.55568828169E+02  0.10340358069E+03  0.00000000000E+00 0. -1.
         21    1    1    2  502  501  0.53697696144E+01  0.60842040708E+02 -0.14101042345E+03  0.15367019185E+03  0.00000000000E+00 0.  1.
<scales pt_clust_5="13000.00000" pt_clust_6="13000.00000" pt_clust_7="13000.00000" pt_clust_8="13000.00000" pt_clust_9="61.07854"></scales>
<clustering>
<clus scale="   61.079">  2  9  1 -1</clus>
<clus scale="   81.908">  5  6 -1 -1</clus>
<clus scale="   89.544">  1  5  2 -1</clus>
<clus scale="   91.846">  7  8 -1 -1</clus>
<clus scale="   61.079">  2  5  1 -1</clus>
</clustering>
</event>
<event>
 9    1  0.2674825E-005  0.9126571E+02  0.7546771E-02  0.1304960E+00
         -4   -1    0    0    0  501 -0.00000000000E+00  0.00000000000E+00  0.30464942195E+02  0.30464942195E+02  0.00000000000E+00 0.  1.
          3   -1    0    0  502    0  0.00000000000E+00 -0.00000000000E+00 -0.76081697157E+03  0.76081697157E+03  0.00000000000E+00 0. -1.
        -24    2    1    2    0    0  0.11551990311E+02  0.75452171628E+01 -0.58549376142E+02  0.10092105931E+03  0.81034881273E+02 0.  0.
         23    2    1    2    0    0 -0.47027390711E+02  0.23752780462E+02 -0.34906821840E+03  0.36417749480E+03  0.89447507331E+02 0.  0.
         11    1    3    3    0    0 -0.29913140564E+02 -0.13863356516E+01 -0.17024378362E+01  0.29993602643E+02  0.00000000000E+00 0. -1.
        -12    1    3    3    0    0  0.41465130875E+02  0.89315528145E+01 -0.56846938306E+02  0.70927456664E+02  0.00000000000E+00 0.  1.
        -13    1    4    4    0    0 -0.48730727869E+02  0.47493410952E+02 -0.31711609917E+03  0.32433459309E+03  0.00000000000E+00 0. -1.
         13    1    4    4    0    0  0.17033371581E+01 -0.23740630491E+02 -0.31952119228E+02  0.39842901711E+02  0.00000000000E+00 0.  1.
         21    1    1    2  502  501  0.35475400400E+02 -0.31297997624E+02 -0.32273443483E+03  0.32618335965E+03  0.00000000000E+00 0.  1.
<scales pt_clust_5="13000.00000" pt_clust_6="13000.00000" pt_clust_7="13000.00000" pt_clust_8="13000.00000" pt_clust_9="47.30823"></scales>
<clustering>
<clus scale="   47.308">  2  9  1 -1</clus>
<clus scale="   81.035">  5  6 -1 -1</clus>
<clus scale="   83.037">  1  5  2 -1</clus>
<clus scale="   89.448">  7  8 -1 -1</clus>
<clus scale="   47.308">  2  5  1 -1</clus>
</clustering>
</event>
<event>
 9    1  0.2674825E-005  0.1243721E+03  0.7546771E-02  0.1239028E+00
          1   -1    0    0  502    0  0.00000000000E+00  0.00000000000E+00  0.65881636076E+02  0.65881636076E+02  0.00000000000E+00 0. -1.
         -2   -1    0    0    0  501 -0.00000000000E+00 -0.00000000000E+00 -0.13601412785E+04  0.13601412785E+04  0.00000000000E+00 0.  1.
        -24    2    1    2    0    0 -0.20358998274E+02 -0.78660747505E+02 -0.11557157128E+04  0.11613947684E+04  0.80975288069E+02 0.  0.
         23    2    1    2    0    0  0.62408247573E+02  0.11397003365E+03 -0.13698615115E+03  0.20969808402E+03  0.91236631349E+02 0.  0.
         13    1    3    3    0    0  0.11817191949E+02 -0.42052007363E+02 -0.21367506459E+03  0.21809413237E+03  0.00000000000E+00 0. -1.
        -14    1    3    3    0    0 -0.32176190223E+02 -0.36608740142E+02 -0.94204064817E+03  0.94330063600E+03  0.00000000000E+00 0.  1.
        -13    1    4    4    0    0  0.64798129385E+02  0.66215161269E+02 -0.38710503365E+02  0.10040790917E+03  0.00000000000E+00 0. -1.
         13    1    4    4    0    0 -0.23898818121E+01  0.47754872385E+02 -0.98275647781E+02  0.10929017485E+03  0.00000000000E+00 0.  1.
         21    1    1    2  502  501 -0.42049249299E+02 -0.35309286149E+02 -0.15577784960E+01  0.54930062159E+02  0.00000000000E+00 0. -1.
<scales pt_clust_5="13000.00000" pt_clust_6="13000.00000" pt_clust_7="13000.00000" pt_clust_8="13000.00000" pt_clust_9="54.90797"></scales>
<clustering>
<clus scale="   54.908">  1  9  2 -1</clus>
<clus scale="   80.975">  5  6 -1 -1</clus>
<clus scale="   91.237">  7  8 -1 -1</clus>
<clus scale="  117.052">  2  5  1 -1</clus>
<clus scale="   54.908">  1  5  2 -1</clus>
</clustering>
</event>
<event>
 9    1  0.2674825E-005  0.1211698E+03  0.7546771E-02  0.1244917E+00
          1   -1    0    0  502    0  0.00000000000E+00  0.00000000000E+00  0.23444864694E+03  0.23444864694E+03  0.00000000000E+00 0. -1.
         -2   -1    0    0    0  501 -0.00000000000E+00 -0.00000000000E+00 -0.86115685149E+02  0.86115685149E+02  0.00000000000E+00 0.  1.
         23    2    1    2    0    0 -0.52317865876E+01 -0.82579719668E+02  0.28489975597E+01  0.12322137154E+03  0.91261207125E+02 0.  0.
        -24    2    1    2    0    0 -0.16585202129E+02  0.73482431556E+02  0.11342687462E+03  0.15751334039E+03  0.79183709422E+02 0.  0.
         13    1    4    4    0    0  0.30207429899E+02  0.37360538410E+02  0.35672587774E+02  0.59840054895E+02  0.00000000000E+00 0. -1.
        -14    1    4    4    0    0 -0.46792632028E+02  0.36121893146E+02  0.77754286845E+02  0.97673285494E+02  0.00000000000E+00 0.  1.
        -13    1    3    3    0    0 -0.14017980322E+02  0.16143604822E+02  0.10487338772E+02  0.23813945987E+02  0.00000000000E+00 0.  1.
         13    1    3    3    0    0  0.87861937349E+01 -0.98723324490E+02 -0.76383412123E+01  0.99407425553E+02  0.00000000000E+00 0. -1.
         21    1    1    2  502  501  0.21816988717E+02  0.90972881122E+01  0.32057089617E+02  0.39829620164E+02  0.00000000000E+00 0. -1.
<scales pt_clust_5="13000.00000" pt_clust_6="13000.00000" pt_clust_7="13000.00000" pt_clust_8="13000.00000" pt_clust_9="23.63772"></scales>
<clustering>
<clus scale="   23.638">  1  9  2 -1</clus>
<clus scale="   79.184">  5  6 -1 -1</clus>
<clus scale="   91.261">  7  8 -1 -1</clus>
<clus scale="  112.355">  1  5  2 -1</clus>
<clus scale="   23.638">  1  5  2 -1</clus>
</clustering>
</event>
<event>
 9    1  0.2674825E-005  0.1014626E+03  0.7546771E-02  0.1283311E+00
          1   -1    0    0  502    0  0.00000000000E+00  0.00000000000E+00  0.22801248265E+03  0.22801248265E+03  0.00000000000E+00 0. -1.
         -2   -1    0    0    0  501 -0.00000000000E+00 -0.00000000000E+00 -0.11547600416E+03  0.11547600416E+03  0.00000000000E+00 0.  1.
         23    2    1    2    0    0  0.10544851180E+02 -0.44944552687E+02 -0.71101933359E+02  0.12527237057E+03  0.92230554586E+02 0.  0.
        -24    2    1    2    0    0 -0.24745452999E+02  0.17263247521E+02  0.11905313378E+03  0.14652811241E+03  0.79915467255E+02 0.  0.
         13    1    4    4    0    0  0.22819022582E+02  0.24285720050E+02  0.71596998105E+02  0.78972363062E+02  0.00000000000E+00 0. -1.
        -14    1    4    4    0    0 -0.47564475580E+02 -0.70224725288E+01  0.47456135671E+02  0.67555749352E+02  0.00000000000E+00 0.  1.
        -11    1    3    3    0    0  0.39461239607E+02 -0.35965817949E+02 -0.63214688130E+01  0.53765141681E+02  0.00000000000E+00 0.  1.
         11    1    3    3    0    0 -0.28916388427E+02 -0.89787347381E+01 -0.64780464546E+02  0.71507228893E+02  0.00000000000E+00 0. -1.
         21    1    1    2  502  501  0.14200601818E+02  0.27681305166E+02  0.64585278071E+02  0.71688003816E+02  0.00000000000E+00 0. -1.
<scales pt_clust_5="13000.00000" pt_clust_6="13000.00000" pt_clust_7="13000.00000" pt_clust_8="13000.00000" pt_clust_9="31.11128"></scales>
<clustering>
<clus scale="   31.111">  1  9  2 -1</clus>
<clus scale="   79.915">  5  6 -1 -1</clus>
<clus scale="   90.414">  1  5  2 -1</clus>
<clus scale="   92.231">  7  8 -1 -1</clus>
<clus scale="   31.111">  1  5  2 -1</clus>
</clustering>
</event>
<event>
 9    1  0.2674825E-005  0.1119737E+03  0.7546771E-02  0.1261397E+00
         -2   -1    0    0    0  501 -0.00000000000E+00  0.00000000000E+00  0.11992520388E+03  0.11992520388E+03  0.00000000000E+00 0.  1.
          1   -1    0    0  502    0  0.00000000000E+00 -0.00000000000E+00 -0.29982722291E+03  0.29982722291E+03  0.00000000000E+00 0. -1.
         23    2    1    2    0    0  0.65820538910E+02 -0.44850092286E+01  0.77503048486E+02  0.13688137494E+03  0.91527753329E+02 0.  0.
        -24    2    1    2    0    0 -0.53771684214E+02 -0.11529870326E+02 -0.22100251697E+03  0.24131630540E+03  0.79794202881E+02 0.  0.
         13    1    4    4    0    0 -0.72448928879E+01  0.31676277680E+02 -0.91213087126E+02  0.96828210267E+02  0.00000000000E+00 0. -1.
        -14    1    4    4    0    0 -0.46526791326E+02 -0.43206148006E+02 -0.12978942984E+03  0.14448809513E+03  0.00000000000E+00 0.  1.
        -13    1    3    3    0    0  0.36015338561E+02 -0.15024127593E+02  0.93597473697E+02  0.10140668668E+03  0.00000000000E+00 0.  1.
         13    1    3    3    0    0  0.29805200349E+02  0.10539118364E+02 -0.16094425211E+02  0.35474688253E+02  0.00000000000E+00 0. -1.
         21    1    1    2  502  501 -0.12048854696E+02  0.16014879554E+02 -0.36402550546E+02  0.41554746455E+02  0.00000000000E+00 0.  1.
<scales pt_clust_5="13000.00000" pt_clust_6="13000.00000" pt_clust_7="13000.00000" pt_clust_8="13000.00000" pt_clust_9="20.04124"></scales>
<clustering>
<clus scale="   20.041">  2  9  1 -1</clus>
<clus scale="   79.794">  5  6 -1 -1</clus>
<clus scale="   91.528">  7  8 -1 -1</clus>
<clus scale="  102.606">  2  5  1 -1</clus>
<clus scale="   20.041">  2  5  1 -1</clus>
</clustering>
</event>
<event>
 9    1  0.2674825E-005  0.2244567E+03  0.7546771E-02  0.1163152E+00
         -2   -1    0    0    0  501 -0.00000000000E+00  0.00000000000E+00  0.11513832049E+03  0.11513832049E+03  0.00000000000E+00 0.  1.
          1   -1    0    0  502    0  0.00000000000E+00 -0.00000000000E+00 -0.11634358056E+04  0.11634358056E+04  0.00000000000E+00 0. -1.
         23    2    1    2    0    0  0.46762076680E+02 -0.17667371497E+02  0.25926590536E+02  0.10654043171E+03  0.90442510256E+02 0.  0.
        -24    2    1    2    0    0 -0.97351933694E+02 -0.18699005185E+03 -0.33930194355E+03  0.40747203250E+03  0.80405036434E+02 0.  0.
         13    1    4    4    0    0 -0.45189695935E+02 -0.20429952709E+02 -0.95837603536E+02  0.10790893308E+03  0.00000000000E+00 0. -1.
        -14    1    4    4    0    0 -0.52162237759E+02 -0.16656009915E+03 -0.24346434001E+03  0.29956309942E+03  0.00000000000E+00 0.  1.
        -11    1    3    3    0    0  0.72525691337E+02 -0.22953923870E+02  0.25516459191E+02  0.80236825800E+02  0.00000000000E+00 0.  1.
         11    1    3    3    0    0 -0.25763614657E+02  0.52865523734E+01  0.41013134539E+00  0.26303605911E+02  0.00000000000E+00 0. -1.
         21    1    1    2  502  501  0.50589857014E+02  0.20465742335E+03 -0.73492213209E+03  0.76456166187E+03  0.00000000000E+00 0. -1.
<scales pt_clust_5="13000.00000" pt_clust_6="13000.00000" pt_clust_7="13000.00000" pt_clust_8="13000.00000" pt_clust_9="209.56105"></scales>
<clustering>
<clus scale="   80.405">  5  6 -1 -1</clus>
<clus scale="   90.443">  7  8 -1 -1</clus>
<clus scale="  103.338">  1  7  2 -1</clus>
<clus scale="  209.561">  2  9  1 -1</clus>
<clus scale="  209.561">  2  5  1 -1</clus>
</clustering>
</event>
<event>
 9    1  0.2674825E-005  0.9506318E+02  0.7546771E-02  0.1298423E+00
          1   -1    0    0  502    0  0.00000000000E+00  0.00000000000E+00  0.59065551689E+02  0.59065551689E+02  0.00000000000E+00 0. -1.
         -2   -1    0    0    0  501 -0.00000000000E+00 -0.00000000000E+00 -0.50299559644E+03  0.50299559644E+03  0.00000000000E+00 0.  1.
         23    2    1    2    0    0  0.71870819812E+01 -0.11804900679E+02 -0.38810401579E+03  0.39951714291E+03  0.93798777047E+02 0.  0.
        -24    2    1    2    0    0 -0.33924751374E+02 -0.54947159807E+01 -0.82584156916E+02  0.12094860748E+03  0.81408488620E+02 0.  0.
         13    1    4    4    0    0 -0.19892760108E+02 -0.61306901500E+01  0.12865487517E+02  0.24470963108E+02  0.00000000000E+00 0. -1.
        -14    1    4    4    0    0 -0.14031991266E+02  0.63597416934E+00 -0.95449644433E+02  0.96477644376E+02  0.00000000000E+00 0.  1.
        -11    1    3    3    0    0  0.17847598363E+02  0.36863236705E+02 -0.11928982160E+03  0.12612492428E+03  0.00000000000E+00 0. -1.
         11    1    3    3    0    0 -0.10660516381E+02 -0.48668137384E+02 -0.26881419419E+03  0.27339221863E+03  0.00000000000E+00 0.  1.
         21    1    1    2  502  501  0.26737669393E+02  0.17299616659E+02  0.26758127958E+02  0.41595397737E+02  0.00000000000E+00 0. -1.
<scales pt_clust_5="13000.00000" pt_clust_6="13000.00000" pt_clust_7="13000.00000" pt_clust_8="13000.00000" pt_clust_9="31.84619"></scales>
<clustering>
<clus scale="   31.846">  1  9  2 -1</clus>
<clus scale="   81.408">  5  6 -1 -1</clus>
<clus scale="   82.862">  1  5  2 -1</clus>
<clus scale="   93.799">  7  8 -1 -1</clus>
<clus scale="   31.846">  1  5  2 -1</clus>
</clustering>
</event>
<event>
 9    1  0.2674825E-005  0.9721414E+02  0.7546771E-02  0.1292300E+00
         -2   -1    0    0    0  501 -0.00000000000E+00  0.00000000000E+00  0.98113258693E+02  0.98113258693E+02  0.00000000000E+00 0.  1.
          1   -1    0    0  502    0  0.00000000000E+00 -0.00000000000E+00 -0.38149356087E+03  0.38149356087E+03  0.00000000000E+00 0. -1.
        -24    2    1    2    0    0  0.20176148068E+02 -0.21684725035E+02  0.64243398279E+02  0.10640974677E+03  0.79489091924E+02 0.  0.
         23    2    1    2    0    0 -0.35368032384E+02  0.56823956825E+01 -0.33232827338E+03  0.34634901917E+03  0.90732433329E+02 0.  0.
         11    1    3    3    0    0  0.21871807496E+01  0.28227374554E+02  0.37523729068E+02  0.47006368473E+02  0.00000000000E+00 0. -1.
        -12    1    3    3    0    0  0.17988967319E+02 -0.49912099589E+02  0.26719669211E+02  0.59403378299E+02  0.00000000000E+00 0.  1.
        -11    1    4    4    0    0  0.15927029612E+01 -0.32485261556E+02 -0.54346715989E+02  0.63335570258E+02  0.00000000000E+00 0.  1.
         11    1    4    4    0    0 -0.36960735345E+02  0.38167657239E+02 -0.27798155739E+03  0.28301344891E+03  0.00000000000E+00 0. -1.
         21    1    1    2  502  501  0.15191884316E+02  0.16002329353E+02 -0.15295427078E+02  0.26848053622E+02  0.00000000000E+00 0. -1.
<scales pt_clust_5="13000.00000" pt_clust_6="13000.00000" pt_clust_7="13000.00000" pt_clust_8="13000.00000" pt_clust_9="22.06508"></scales>
<clustering>
<clus scale="   22.065">  1  9  2 -1</clus>
<clus scale="   79.489">  5  6 -1 -1</clus>
<clus scale="   86.814">  1  5  2 -1</clus>
<clus scale="   90.732">  7  8 -1 -1</clus>
<clus scale="   97.214">  2  5  1 -1</clus>
</clustering>
</event>
<event>
 9    1  0.2674825E-005  0.9728227E+02  0.7546771E-02  0.1289277E+00
          1   -1    0    0  502    0  0.00000000000E+00  0.00000000000E+00  0.31649091489E+03  0.31649091489E+03  0.00000000000E+00 0. -1.
         -2   -1    0    0    0  501 -0.00000000000E+00 -0.00000000000E+00 -0.10169964228E+03  0.10169964228E+03  0.00000000000E+00 0.  1.
         23    2    1    2    0    0  0.21638256633E+02 -0.29576899101E+02 -0.63639731911E+02  0.11710166081E+03  0.91212808184E+02 0.  0.
        -24    2    1    2    0    0  0.22001534592E+01  0.14700095171E+02  0.21001193213E+03  0.22712431999E+03  0.85202767680E+02 0.  0.
         11    1    4    4    0    0 -0.15829282514E+01  0.49798111499E+02  0.14216944556E+03  0.15064696752E+03  0.00000000000E+00 0. -1.
        -12    1    4    4    0    0  0.37830817106E+01 -0.35098016328E+02  0.67842486568E+02  0.76477352472E+02  0.00000000000E+00 0.  1.
        -13    1    3    3    0    0  0.56329359505E+02 -0.16132273805E+02 -0.51374617671E+02  0.77926878170E+02  0.00000000000E+00 0.  1.
         13    1    3    3    0    0 -0.34691102872E+02 -0.13444625296E+02 -0.12265114240E+02  0.39174782643E+02  0.00000000000E+00 0. -1.
         21    1    1    2  502  501 -0.23838410092E+02  0.14876803931E+02  0.68419072387E+02  0.73964576368E+02  0.00000000000E+00 0. -1.
<scales pt_clust_5="13000.00000" pt_clust_6="13000.00000" pt_clust_7="13000.00000" pt_clust_8="13000.00000" pt_clust_9="28.09963"></scales>
<clustering>
<clus scale="   28.100">  1  9  2 -1</clus>
<clus scale="   85.203">  5  6 -1 -1</clus>
<clus scale="   91.213">  7  8 -1 -1</clus>
<clus scale="   91.671">  1  5  2 -1</clus>
<clus scale="   28.100">  1  5  2 -1</clus>
</clustering>
</event>
<event>
 9    1  0.2674825E-005  0.1209343E+03  0.7546771E-02  0.1244644E+00
         -2   -1    0    0    0  501 -0.00000000000E+00  0.00000000000E+00  0.27371540033E+02  0.27371540033E+02  0.00000000000E+00 0.  1.
          1   -1    0    0  502    0  0.00000000000E+00 -0.00000000000E+00 -0.85096712317E+03  0.85096712317E+03  0.00000000000E+00 0. -1.
        -24    2    1    2    0    0 -0.70449614393E+02  0.31843180720E+02 -0.14525136459E+03  0.18278903847E+03  0.79603626452E+02 0.  0.
         23    2    1    2    0    0  0.81332097852E+02 -0.50662932812E+02 -0.60361233097E+03  0.61771989688E+03  0.89712775066E+02 0.  0.
         11    1    3    3    0    0 -0.45312987963E+02  0.57159164785E+02 -0.11412480510E+03  0.13544337613E+03  0.00000000000E+00 0. -1.
        -12    1    3    3    0    0 -0.25136626430E+02 -0.25315984065E+02 -0.31126559487E+02  0.47345662346E+02  0.00000000000E+00 0.  1.
        -11    1    4    4    0    0  0.60503356560E+02  0.13295018435E+02 -0.23541421565E+03  0.24342815490E+03  0.00000000000E+00 0. -1.
         11    1    4    4    0    0  0.20828741292E+02 -0.63957951247E+02 -0.36819811532E+03  0.37429174198E+03  0.00000000000E+00 0.  1.
         21    1    1    2  502  501 -0.10882483459E+02  0.18819752092E+02 -0.74731887583E+02  0.77829727848E+02  0.00000000000E+00 0. -1.
<scales pt_clust_5="13000.00000" pt_clust_6="13000.00000" pt_clust_7="13000.00000" pt_clust_8="13000.00000" pt_clust_9="21.73963"></scales>
<clustering>
<clus scale="   21.740">  2  9  1 -1</clus>
<clus scale="   79.604">  5  6 -1 -1</clus>
<clus scale="   89.713">  7  8 -1 -1</clus>
<clus scale="  113.637">  1  5  2 -1</clus>
<clus scale="   21.740">  2  5  1 -1</clus>
</clustering>
</event>
<event>
 9    1  0.2674825E-005  0.1214077E+03  0.7546771E-02  0.1246803E+00
         -2   -1    0    0    0  501 -0.00000000000E+00  0.00000000000E+00  0.10341430603E+03  0.10341430603E+03  0.00000000000E+00 0.  1.
          1   -1    0    0  502    0  0.00000000000E+00 -0.00000000000E+00 -0.35872815136E+03  0.35872815136E+03  0.00000000000E+00 0. -1.
         23    2    1    2    0    0 -0.65382958815E+01 -0.73122080937E+02  0.48455224611E+02  0.13025619394E+03  0.96068617328E+02 0.  0.
        -24    2    1    2    0    0 -0.12864146266E+02  0.80619968240E+02 -0.25139738634E+03  0.27553498734E+03  0.77806284149E+02 0.  0.
         11    1    4    4    0    0  0.28677769152E+02  0.39245111247E+02 -0.15755564353E+03  0.16488290999E+03  0.00000000000E+00 0. -1.
        -12    1    4    4    0    0 -0.41541915418E+02  0.41374856993E+02 -0.93841742811E+02  0.11065207735E+03  0.00000000000E+00 0.  1.
        -11    1    3    3    0    0 -0.30587245946E+02 -0.48219688267E+02 -0.14048595984E+02  0.58805450430E+02  0.00000000000E+00 0. -1.
         11    1    3    3    0    0  0.24048950064E+02 -0.24902392669E+02  0.62503820595E+02  0.71450743515E+02  0.00000000000E+00 0.  1.
         21    1    1    2  502  501  0.19402442148E+02 -0.74978873031E+01 -0.52371683600E+02  0.56351276103E+02  0.00000000000E+00 0. -1.
<scales pt_clust_5="13000.00000" pt_clust_6="13000.00000" pt_clust_7="13000.00000" pt_clust_8="13000.00000" pt_clust_9="20.80080"></scales>
<clustering>
<clus scale="   20.801">  2  9  1 -1</clus>
<clus scale="   77.806">  5  6 -1 -1</clus>
<clus scale="   96.069">  7  8 -1 -1</clus>
<clus scale="  107.538">  2  5  1 -1</clus>
<clus scale="   20.801">  2  5  1 -1</clus>
</clustering>
</event>
<event>
 9    1  0.2674825E-005  0.1420843E+03  0.7546771E-02  0.1212948E+00
          1   -1    0    0  502    0  0.00000000000E+00  0.00000000000E+00  0.54321296247E+03  0.54321296247E+03  0.00000000000E+00 0. -1.
         -2   -1    0    0    0  501 -0.00000000000E+00 -0.00000000000E+00 -0.49521466012E+02  0.49521466012E+02  0.00000000000E+00 0.  1.
        -24    2    1    2    0    0  0.51056877172E+01 -0.10693998630E+03  0.15285135192E+03  0.20203197879E+03  0.77402557788E+02 0.  0.
         23    2    1    2    0    0 -0.28173645269E+02  0.11288680591E+03  0.20057848316E+03  0.24843218231E+03  0.89160731622E+02 0.  0.
         13    1    3    3    0    0 -0.20718355954E+02 -0.18007306417E+02  0.78846504987E+02  0.83488230946E+02  0.00000000000E+00 0. -1.
        -14    1    3    3    0    0  0.25824043671E+02 -0.88932679886E+02  0.74004846936E+02  0.11854374785E+03  0.00000000000E+00 0.  1.
        -11    1    4    4    0    0 -0.52299015081E+02  0.37634806396E+02  0.65127041635E+02  0.91613848206E+02  0.00000000000E+00 0.  1.
         11    1    4    4    0    0  0.24125369812E+02  0.75251999516E+02  0.13545144153E+03  0.15681833411E+03  0.00000000000E+00 0. -1.
         21    1    1    2  502  501  0.23067957552E+02 -0.59468196084E+01  0.14026166138E+03  0.14227026738E+03  0.00000000000E+00 0. -1.
<scales pt_clust_5="13000.00000" pt_clust_6="13000.00000" pt_clust_7="13000.00000" pt_clust_8="13000.00000" pt_clust_9="23.82216"></scales>
<clustering>
<clus scale="   23.822">  1  9  2 -1</clus>
<clus scale="   77.403">  5  6 -1 -1</clus>
<clus scale="   89.161">  7  8 -1 -1</clus>
<clus scale="  135.017">  2  5  1 -1</clus>
<clus scale="   23.822">  1  5  2 -1</clus>
</clustering>
</event>
<event>
 9    1  0.2674825E-005  0.9972493E+02  0.7546771E-02  0.1286532E+00
         -2   -1    0    0    0  501 -0.00000000000E+00  0.00000000000E+00  0.32073782148E+03  0.32073782148E+03  0.00000000000E+00 0.  1.
          1   -1    0    0  502    0  0.00000000000E+00 -0.00000000000E+00 -0.69226536399E+02  0.69226536399E+02  0.00000000000E+00 0. -1.
         23    2    1    2    0    0 -0.18198938974E+02 -0.40538249413E+02  0.24034766219E+03  0.26085298844E+03  0.91119327335E+02 0.  0.
        -24    2    1    2    0    0  0.25720096835E+02  0.20294293944E+02  0.38256304702E+02  0.94464595314E+02  0.79916413648E+02 0.  0.
         13    1    4    4    0    0  0.20882215741E+02  0.40584962127E+02 -0.55178340219E+01  0.45974477456E+02  0.00000000000E+00 0. -1.
        -14    1    4    4    0    0  0.48378810941E+01 -0.20290668183E+02  0.43774138724E+02  0.48490117857E+02  0.00000000000E+00 0.  1.
        -13    1    3    3    0    0  0.12649256916E+02  0.18960011146E+02  0.12816225620E+03  0.13017315252E+03  0.00000000000E+00 0.  1.
         13    1    3    3    0    0 -0.30848195891E+02 -0.59498260560E+02  0.11218540600E+03  0.13067983593E+03  0.00000000000E+00 0. -1.
         21    1    1    2  502  501 -0.75211578611E+01  0.20243955470E+02 -0.27092681818E+02  0.34646774117E+02  0.00000000000E+00 0. -1.
<scales pt_clust_5="13000.00000" pt_clust_6="13000.00000" pt_clust_7="13000.00000" pt_clust_8="13000.00000" pt_clust_9="21.59596"></scales>
<clustering>
<clus scale="   21.596">  2  9  1 -1</clus>
<clus scale="   79.916">  5  6 -1 -1</clus>
<clus scale="   89.604">  2  5  1 -1</clus>
<clus scale="   91.119">  7  8 -1 -1</clus>
<clus scale="   21.596">  2  5  1 -1</clus>
</clustering>
</event>
<event>
 9    1  0.2674825E-005  0.1030630E+03  0.7546771E-02  0.1280124E+00
         -4   -1    0    0    0  501 -0.00000000000E+00  0.00000000000E+00  0.11926317625E+03  0.11926317625E+03  0.00000000000E+00 0.  1.
          3   -1    0    0  502    0  0.00000000000E+00 -0.00000000000E+00 -0.18452424098E+03  0.18452424098E+03  0.00000000000E+00 0. -1.
        -24    2    1    2    0    0 -0.24913511623E+02 -0.24625758102E+02  0.66730866103E+02  0.10760956704E+03  0.76809500747E+02 0.  0.
         23    2    1    2    0    0  0.51778189491E+02  0.15173525504E+02 -0.13068694340E+03  0.16766892859E+03  0.90125333046E+02 0.  0.
         11    1    3    3    0    0  0.31014441026E+01 -0.45280564645E+02  0.20656756862E+02  0.49866322244E+02  0.00000000000E+00 0. -1.
        -12    1    3    3    0    0 -0.28014955725E+02  0.20654806543E+02  0.46074109241E+02  0.57743244800E+02  0.00000000000E+00 0.  1.
        -11    1    4    4    0    0 -0.24787934285E+02 -0.42170236631E+00 -0.18415939277E+02  0.30883107655E+02  0.00000000000E+00 0.  1.
         11    1    4    4    0    0  0.76566123776E+02  0.15595227871E+02 -0.11227100413E+03  0.13678582094E+03  0.00000000000E+00 0. -1.
         21    1    1    2  502  501 -0.26864677868E+02  0.94522325979E+01 -0.13049874349E+01  0.28508921590E+02  0.00000000000E+00 0.  1.
<scales pt_clust_5="13000.00000" pt_clust_6="13000.00000" pt_clust_7="13000.00000" pt_clust_8="13000.00000" pt_clust_9="28.47904"></scales>
<clustering>
<clus scale="   28.479">  1  9  2 -1</clus>
<clus scale="   76.810">  5  6 -1 -1</clus>
<clus scale="   90.125">  7  8 -1 -1</clus>
<clus scale="   91.647">  1  5  2 -1</clus>
<clus scale="  103.063">  2  5  1 -1</clus>
</clustering>
</event>
<event>
 9    1  0.2674825E-005  0.9023622E+02  0.7546771E-02  0.1306784E+00
          1   -1    0    0  502    0  0.00000000000E+00  0.00000000000E+00  0.43656734599E+03  0.43656734599E+03  0.00000000000E+00 0. -1.
         -2   -1    0    0    0  501 -0.00000000000E+00 -0.00000000000E+00 -0.30892247986E+02  0.30892247986E+02  0.00000000000E+00 0.  1.
        -24    2    1    2    0    0 -0.87929769673E+01 -0.44506888198E+02  0.10135646359E+03  0.13687736140E+03  0.80025619716E+02 0.  0.
         23    2    1    2    0    0 -0.17390900241E+02  0.38063506560E+02  0.13096568662E+03  0.15514461660E+03  0.71878835853E+02 0.  0.
         11    1    3    3    0    0  0.29217698872E+02 -0.70347156476E+01  0.66916161998E+02  0.73354849112E+02  0.00000000000E+00 0. -1.
        -12    1    3    3    0    0 -0.38010675840E+02 -0.37472172550E+02  0.34440301589E+02  0.63522512284E+02  0.00000000000E+00 0.  1.
        -13    1    4    4    0    0 -0.38527953135E+02  0.21156956033E+02  0.37305029598E+02  0.57651411038E+02  0.00000000000E+00 0.  1.
         13    1    4    4    0    0  0.21137052894E+02  0.16906550527E+02  0.93660657025E+02  0.97493205559E+02  0.00000000000E+00 0. -1.
         21    1    1    2  502  501  0.26183877208E+02  0.64433816374E+01  0.17335294779E+03  0.17543761598E+03  0.00000000000E+00 0. -1.
<scales pt_clust_5="13000.00000" pt_clust_6="13000.00000" pt_clust_7="13000.00000" pt_clust_8="13000.00000" pt_clust_9="26.96503"></scales>
<clustering>
<clus scale="   26.965">  1  9  2 -1</clus>
<clus scale="   71.879">  7  8 -1 -1</clus>
<clus scale="   80.026">  5  6 -1 -1</clus>
<clus scale="   83.097">  1  7  2 -1</clus>
<clus scale="   26.965">  1  5  2 -1</clus>
</clustering>
</event>
<event>
 9    1  0.2674825E-005  0.9212598E+02  0.7546771E-02  0.1303943E+00
          1   -1    0    0  502    0  0.00000000000E+00  0.00000000000E+00  0.38926228358E+03  0.38926228358E+03  0.00000000000E+00 0. -1.
         -2   -1    0    0    0  501 -0.00000000000E+00 -0.00000000000E+00 -0.39171177033E+02  0.39171177033E+02  0.00000000000E+00 0.  1.
         23    2    1    2    0    0  0.16786759605E+02  0.15724564150E+01  0.43924697473E+02  0.10223826639E+03  0.90769026373E+02 0.  0.
        -24    2    1    2    0    0 -0.46379406693E+01 -0.26202852570E+02  0.23650603595E+03  0.25131650700E+03  0.80726585923E+02 0.  0.
         13    1    4    4    0    0  0.31125745353E+02  0.24010485369E+01  0.15226500276E+03  0.15543232650E+03  0.00000000000E+00 0. -1.
        -14    1    4    4    0    0 -0.35763686023E+02 -0.28603901107E+02  0.84241033191E+02  0.95884180497E+02  0.00000000000E+00 0.  1.
        -13    1    3    3    0    0  0.51856941867E+02 -0.13766106822E+02  0.30237464028E+02  0.61586949491E+02  0.00000000000E+00 0. -1.
         13    1    3    3    0    0 -0.35070182262E+02  0.15338563237E+02  0.13687233445E+02  0.40651316897E+02  0.00000000000E+00 0.  1.
         21    1    1    2  502  501 -0.12148818936E+02  0.24630396155E+02  0.69660373128E+02  0.74878687225E+02  0.00000000000E+00 0.  1.
<scales pt_clust_5="13000.00000" pt_clust_6="13000.00000" pt_clust_7="13000.00000" pt_clust_8="13000.00000" pt_clust_9="27.46362"></scales>
<clustering>
<clus scale="   27.464">  1  9  2 -1</clus>
<clus scale="   80.727">  5  6 -1 -1</clus>
<clus scale="   82.249">  1  5  2 -1</clus>
<clus scale="   90.769">  7  8 -1 -1</clus>
<clus scale="   27.464">  1  5  2 -1</clus>
</clustering>
</event>
<event>
 9    1  0.2674825E-005  0.9603215E+02  0.7546771E-02  0.1294327E+00
          1   -1    0    0  502    0  0.00000000000E+00  0.00000000000E+00  0.38170421738E+03  0.38170421738E+03  0.00000000000E+00 0. -1.
         -2   -1    0    0    0  501 -0.00000000000E+00 -0.00000000000E+00 -0.12439589360E+03  0.12439589360E+03  0.00000000000E+00 0.  1.
        -24    2    1    2    0    0  0.15385314862E+02 -0.30617843850E+02 -0.94177873310E+02  0.12850125617E+03  0.80429725472E+02 0.  0.
         23    2    1    2    0    0 -0.14340021953E+02 -0.76370300370E+01  0.29800836249E+03  0.31183863274E+03  0.90390200235E+02 0.  0.
         13    1    3    3    0    0  0.38907853473E+02  0.60071479429E+01 -0.24578750575E+02  0.46411441133E+02  0.00000000000E+00 0. -1.
        -14    1    3    3    0    0 -0.23522538610E+02 -0.36624991793E+02 -0.69599122735E+02  0.82089815032E+02  0.00000000000E+00 0.  1.
        -11    1    4    4    0    0  0.22037325095E+02 -0.38256262834E+02  0.13487522254E+03  0.14191726815E+03  0.00000000000E+00 0.  1.
         11    1    4    4    0    0 -0.36377347048E+02  0.30619232797E+02  0.16313313995E+03  0.16992136459E+03  0.00000000000E+00 0. -1.
         21    1    1    2  502  501 -0.10452929099E+01  0.38254873887E+02  0.53477834605E+02  0.65760222075E+02  0.00000000000E+00 0.  1.
<scales pt_clust_5="13000.00000" pt_clust_6="13000.00000" pt_clust_7="13000.00000" pt_clust_8="13000.00000" pt_clust_9="38.26915"></scales>
<clustering>
<clus scale="   38.269">  1  9  2 -1</clus>
<clus scale="   80.430">  5  6 -1 -1</clus>
<clus scale="   86.722">  2  5  1 -1</clus>
<clus scale="   90.390">  7  8 -1 -1</clus>
<clus scale="   38.269">  1  5  2 -1</clus>
</clustering>
</event>
<event>
 9    1  0.2674825E-005  0.1085473E+03  0.7546771E-02  0.1269089E+00
         -2   -1    0    0    0  501 -0.00000000000E+00  0.00000000000E+00  0.21119213685E+03  0.21119213685E+03  0.00000000000E+00 0.  1.
          1   -1    0    0  502    0  0.00000000000E+00 -0.00000000000E+00 -0.25059915895E+03  0.25059915895E+03  0.00000000000E+00 0. -1.
         23    2    1    2    0    0  0.56872476714E+02  0.34734654014E+02  0.16193102218E+03  0.19729864447E+03  0.90907229458E+02 0.  0.
        -24    2    1    2    0    0  0.10953466198E+02  0.14708610196E+01 -0.15863117267E+03  0.17654337770E+03  0.76691416825E+02 0.  0.
         11    1    4    4    0    0  0.36968667338E+02  0.35999440070E+01 -0.13901567971E+03  0.14389232491E+03  0.00000000000E+00 0. -1.
        -12    1    4    4    0    0 -0.26015201140E+02 -0.21290829874E+01 -0.19615492960E+02  0.32651052798E+02  0.00000000000E+00 0.  1.
        -13    1    3    3    0    0 -0.23441635226E+01  0.50082975935E+02  0.57680818101E+02  0.76425626317E+02  0.00000000000E+00 0. -1.
         13    1    3    3    0    0  0.59216640237E+02 -0.15348321921E+02  0.10425020407E+03  0.12087301815E+03  0.00000000000E+00 0.  1.
         21    1    1    2  502  501 -0.67825942912E+02 -0.36205515034E+02 -0.42706871607E+02  0.87949273637E+02  0.00000000000E+00 0. -1.
<scales pt_clust_5="13000.00000" pt_clust_6="13000.00000" pt_clust_7="13000.00000" pt_clust_8="13000.00000" pt_clust_9="76.88431"></scales>
<clustering>
<clus scale="   76.691">  5  6 -1 -1</clus>
<clus scale="   76.884">  2  9  1 -1</clus>
<clus scale="   90.907">  7  8 -1 -1</clus>
<clus scale="   96.953">  2  5  1 -1</clus>
<clus scale="   76.884">  2  5  1 -1</clus>
</clustering>
</event>
<event>
 9    1  0.2674825E-005  0.3575895E+03  0.7546771E-02  0.1059542E+00
          1   -1    0    0  502    0  0.00000000000E+00  0.00000000000E+00  0.35527343772E+03  0.35527343772E+03  0.00000000000E+00 0. -1.
         -2   -1    0    0    0  501 -0.00000000000E+00 -0.00000000000E+00 -0.32389879062E+03  0.32389879062E+03  0.00000000000E+00 0.  1.
        -24    2    1    2    0    0 -0.19129022435E+03  0.82836279187E+02  0.13306042032E+03  0.26030963541E+03  0.81254118392E+02 0.  0.
         23    2    1    2    0    0 -0.80567021271E+02 -0.12083515453E+02 -0.16390499350E+01  0.12066523813E+03  0.88996387263E+02 0.  0.
         11    1    3    3    0    0 -0.11548868472E+03  0.60191334832E+02  0.12545982391E+03  0.18083362658E+03  0.00000000000E+00 0. -1.
        -12    1    3    3    0    0 -0.75801539624E+02  0.22644944355E+02  0.76005964058E+01  0.79476008832E+02  0.00000000000E+00 0.  1.
        -13    1    4    4    0    0 -0.15662506720E+02  0.30572918256E+02  0.20373974207E+02  0.39938906751E+02  0.00000000000E+00 0.  1.
         13    1    4    4    0    0 -0.64904514550E+02 -0.42656433709E+02 -0.22013024142E+02  0.80726331378E+02  0.00000000000E+00 0. -1.
         21    1    1    2  502  501  0.27185724562E+03 -0.70752763733E+02 -0.10004672328E+03  0.29819735480E+03  0.00000000000E+00 0.  1.
<scales pt_clust_5="13000.00000" pt_clust_6="13000.00000" pt_clust_7="13000.00000" pt_clust_8="13000.00000" pt_clust_9="280.91336"></scales>
<clustering>
<clus scale="   81.254">  5  6 -1 -1</clus>
<clus scale="   88.996">  7  8 -1 -1</clus>
<clus scale="  112.934">  5  7 -1 -1</clus>
<clus scale="  280.913">  2  9  1 -1</clus>
<clus scale="  357.590">  1  5  2 -1</clus>
</clustering>
</event>
<event>
 9    1  0.2674825E-005  0.1170673E+03  0.7546771E-02  0.1254016E+00
         -2   -1    0    0    0  501 -0.00000000000E+00  0.00000000000E+00  0.11569892368E+03  0.11569892368E+03  0.00000000000E+00 0.  1.
          1   -1    0    0  502    0  0.00000000000E+00 -0.00000000000E+00 -0.35089816725E+03  0.35089816725E+03  0.00000000000E+00 0. -1.
         23    2    1    2    0    0  0.64169908899E+02 -0.17513508147E+02  0.68128142353E+02  0.13630135417E+03  0.97530073273E+02 0.  0.
        -24    2    1    2    0    0 -0.44501076176E+02  0.23732608348E+02 -0.29091979062E+03  0.30622316711E+03  0.81207887661E+02 0.  0.
         11    1    4    4    0    0 -0.31541607428E+02  0.50151126283E+02 -0.13319517908E+03  0.14577710450E+03  0.00000000000E+00 0. -1.
        -12    1    4    4    0    0 -0.12959468748E+02 -0.26418517935E+02 -0.15772461154E+03  0.16044606260E+03  0.00000000000E+00 0.  1.
        -13    1    3    3    0    0  0.82536805919E+02 -0.30918756600E+02  0.32306659987E+02  0.93872328833E+02  0.00000000000E+00 0.  1.
         13    1    3    3    0    0 -0.18366897020E+02  0.13405248453E+02  0.35821482365E+02  0.42429025337E+02  0.00000000000E+00 0. -1.
         21    1    1    2  502  501 -0.19668832723E+02 -0.62191002010E+01 -0.12407595301E+02  0.24072569642E+02  0.00000000000E+00 0. -1.
<scales pt_clust_5="13000.00000" pt_clust_6="13000.00000" pt_clust_7="13000.00000" pt_clust_8="13000.00000" pt_clust_9="20.62863"></scales>
<clustering>
<clus scale="   20.629">  2  9  1 -1</clus>
<clus scale="   81.208">  5  6 -1 -1</clus>
<clus scale="   97.530">  7  8 -1 -1</clus>
<clus scale="  103.862">  2  5  1 -1</clus>
<clus scale="   20.629">  2  5  1 -1</clus>
</clustering>
</event>
<event>
 9    1  0.2674825E-005  0.1102086E+03  0.7546771E-02  0.1265059E+00
          1   -1    0    0  502    0  0.00000000000E+00  0.00000000000E+00  0.12212317291E+03  0.12212317291E+03  0.00000000000E+00 0. -1.
         -2   -1    0    0    0  501 -0.00000000000E+00 -0.00000000000E+00 -0.16515109668E+03  0.16515109668E+03  0.00000000000E+00 0.  1.
        -24    2    1    2    0    0 -0.58552904078E+02  0.59490098390E+01 -0.76601565986E+02  0.12563659522E+03  0.80330074394E+02 0.  0.
         23    2    1    2    0    0  0.62576863908E+02  0.13722186469E+02 -0.10667978265E+02  0.11305301425E+03  0.92536565600E+02 0.  0.
         11    1    3    3    0    0  0.19803195503E+02  0.74804984381E+01 -0.14800680216E+02  0.25829915677E+02  0.00000000000E+00 0. -1.
        -12    1    3    3    0    0 -0.78356099581E+02 -0.15314885991E+01 -0.61800885770E+02  0.99806679540E+02  0.00000000000E+00 0.  1.
        -11    1    4    4    0    0  0.66383767490E+02 -0.26682143917E+02 -0.11485938122E+02  0.72461494359E+02  0.00000000000E+00 0. -1.
         11    1    4    4    0    0 -0.38069035818E+01  0.40404330386E+02  0.81795985670E+00  0.40591519893E+02  0.00000000000E+00 0.  1.
         21    1    1    2  502  501 -0.40239598298E+01 -0.19671196308E+02  0.44241620482E+02  0.48584660128E+02  0.00000000000E+00 0. -1.
<scales pt_clust_5="13000.00000" pt_clust_6="13000.00000" pt_clust_7="13000.00000" pt_clust_8="13000.00000" pt_clust_9="20.07855"></scales>
<clustering>
<clus scale="   20.079">  1  9  2 -1</clus>
<clus scale="   80.330">  5  6 -1 -1</clus>
<clus scale="   92.537">  7  8 -1 -1</clus>
<clus scale="  100.179">  2  5  1 -1</clus>
<clus scale="   20.079">  1  5  2 -1</clus>
</clustering>
</event>
<event>
 9    1  0.2674825E-005  0.1422766E+03  0.7546771E-02  0.1212441E+00
         -2   -1    0    0    0  501 -0.00000000000E+00  0.00000000000E+00  0.26286065341E+03  0.26286065341E+03  0.00000000000E+00 0.  1.
          1   -1    0    0  502    0  0.00000000000E+00 -0.00000000000E+00 -0.26743453990E+03  0.26743453990E+03  0.00000000000E+00 0. -1.
         23    2    1    2    0    0 -0.11998562958E+03  0.10117741415E+03  0.16180062449E+03  0.24290700662E+03  0.90503874737E+02 0.  0.
        -24    2    1    2    0    0  0.86945444440E+02 -0.58843746192E+02 -0.18777696467E+03  0.22957937852E+03  0.80152391123E+02 0.  0.
         11    1    4    4    0    0  0.72933811356E+02 -0.60340025212E+01 -0.13529442827E+03  0.15381915468E+03  0.00000000000E+00 0. -1.
        -12    1    4    4    0    0  0.14011633084E+02 -0.52809743671E+02 -0.52482536402E+02  0.75760223835E+02  0.00000000000E+00 0.  1.
        -11    1    3    3    0    0 -0.54046416919E+02 -0.26316097287E+01  0.27124226021E+02  0.60528209860E+02  0.00000000000E+00 0. -1.
         11    1    3    3    0    0 -0.65939212660E+02  0.10380902388E+03  0.13467639847E+03  0.18237879676E+03  0.00000000000E+00 0.  1.
         21    1    1    2  502  501  0.33040185139E+02 -0.42333667957E+02  0.21402453697E+02  0.57808808161E+02  0.00000000000E+00 0. -1.
<scales pt_clust_5="13000.00000" pt_clust_6="13000.00000" pt_clust_7="13000.00000" pt_clust_8="13000.00000" pt_clust_9="53.70096"></scales>
<clustering>
<clus scale="   53.701">  1  9  2 -1</clus>
<clus scale="   80.152">  5  6 -1 -1</clus>
<clus scale="   90.504">  7  8 -1 -1</clus>
<clus scale="  135.927">  2  5  1 -1</clus>
<clus scale="  135.927">  2  5  1 -1</clus>
</clustering>
</event>
<event>
 9    1  0.2674825E-005  0.2276950E+03  0.7546771E-02  0.1146560E+00
          1   -1    0    0  502    0  0.00000000000E+00  0.00000000000E+00  0.72146259858E+03  0.72146259858E+03  0.00000000000E+00 0. -1.
         -2   -1    0    0    0  501 -0.00000000000E+00 -0.00000000000E+00 -0.13954947049E+03  0.13954947049E+03  0.00000000000E+00 0.  1.
        -24    2    1    2    0    0  0.19584038604E+02  0.18075752340E+03  0.28926950644E+03  0.35095159177E+03  0.80208201424E+02 0.  0.
         23    2    1    2    0    0  0.11353223389E+03  0.15138114122E+02  0.21659501044E+03  0.26130671538E+03  0.90824392779E+02 0.  0.
         11    1    3    3    0    0  0.15687929759E+02  0.18248991435E+03  0.24205310245E+03  0.30354305194E+03  0.00000000000E+00 0. -1.
        -12    1    3    3    0    0  0.38961088441E+01 -0.17323909457E+01  0.47216403993E+02  0.47408539827E+02  0.00000000000E+00 0.  1.
        -13    1    4    4    0    0  0.16790781853E+02  0.31090816764E+02  0.17617005850E+02  0.39483264017E+02  0.00000000000E+00 0.  1.
         13    1    4    4    0    0  0.96741452032E+02 -0.15952702642E+02  0.19897800459E+03  0.22182345136E+03  0.00000000000E+00 0. -1.
         21    1    1    2  502  501 -0.13311627249E+03 -0.19589563752E+03  0.76048611214E+02  0.24875376192E+03  0.00000000000E+00 0.  1.
<scales pt_clust_5="13000.00000" pt_clust_6="13000.00000" pt_clust_7="13000.00000" pt_clust_8="13000.00000" pt_clust_9="213.10010"></scales>
<clustering>
<clus scale="   80.208">  5  6 -1 -1</clus>
<clus scale="   90.824">  7  8 -1 -1</clus>
<clus scale="  146.177">  1  7  2 -1</clus>
<clus scale="  213.100">  2  9  1 -1</clus>
<clus scale="  146.177">  1  5  2 -1</clus>
</clustering>
</event>
<event>
 9    1  0.2674825E-005  0.9462243E+02  0.7546771E-02  0.1301527E+00
         -2   -1    0    0    0  501 -0.00000000000E+00  0.00000000000E+00  0.17665505918E+03  0.17665505918E+03  0.00000000000E+00 0.  1.
          1   -1    0    0  502    0  0.00000000000E+00 -0.00000000000E+00 -0.12532067973E+03  0.12532067973E+03  0.00000000000E+00 0. -1.
        -24    2    1    2    0    0  0.22889633431E+02  0.63778607592E+01  0.12754104224E+03  0.15074483518E+03  0.76763763927E+02 0.  0.
         23    2    1    2    0    0  0.37195051983E+00 -0.39115631576E+01 -0.26452487715E+02  0.96252163758E+02  0.92462458589E+02 0.  0.
         13    1    3    3    0    0 -0.25416216368E+02  0.72514103830E+01  0.20987701486E+02  0.33749824010E+02  0.00000000000E+00 0. -1.
        -14    1    3    3    0    0  0.48305849799E+02 -0.87354962385E+00  0.10655334075E+03  0.11699501117E+03  0.00000000000E+00 0.  1.
        -11    1    4    4    0    0 -0.23702532191E+00  0.28189529580E+02 -0.49337985632E+02  0.56823785382E+02  0.00000000000E+00 0. -1.
         11    1    4    4    0    0  0.60897584174E+00 -0.32101092737E+02  0.22885497916E+02  0.39428378376E+02  0.00000000000E+00 0.  1.
         21    1    1    2  502  501 -0.23261583950E+02 -0.24662976015E+01 -0.49754175068E+02  0.54978739968E+02  0.00000000000E+00 0. -1.
<scales pt_clust_5="13000.00000" pt_clust_6="13000.00000" pt_clust_7="13000.00000" pt_clust_8="13000.00000" pt_clust_9="23.39196"></scales>
<clustering>
<clus scale="   23.392">  2  9  1 -1</clus>
<clus scale="   76.764">  5  6 -1 -1</clus>
<clus scale="   79.352">  1  5  2 -1</clus>
<clus scale="   92.462">  7  8 -1 -1</clus>
<clus scale="   23.392">  2  5  1 -1</clus>
</clustering>
</event>
<event>
 9    1  0.2898755E-005  0.1035824E+03  0.7546771E-02  0.1281029E+00
          1   -1    0    0  502    0  0.00000000000E+00  0.00000000000E+00  0.23986987783E+03  0.23986987783E+03  0.00000000000E+00 0. -1.
         -2   -1    0    0    0  501 -0.00000000000E+00 -0.00000000000E+00 -0.35404517450E+03  0.35404517450E+03  0.00000000000E+00 0.  1.
         23    2    1    2    0    0 -0.73766879473E+02  0.12413968209E+02 -0.30269758523E+03  0.32634058700E+03  0.96315582872E+02 0.  0.
        -24    2    1    2    0    0  0.34338283783E+02  0.14713116049E+02  0.19972723737E+03  0.21842119753E+03  0.80132744031E+02 0.  0.
         11    1    4    4    0    0  0.46663133444E+02  0.36614792419E+02  0.16657510474E+03  0.17682012488E+03  0.00000000000E+00 0. -1.
        -12    1    4    4    0    0 -0.12324849661E+02 -0.21901676370E+02  0.33152132630E+02  0.41601072642E+02  0.00000000000E+00 0.  1.
        -11    1    3    3    0    0 -0.16016388917E+02 -0.29283112746E+02 -0.19078378685E+03  0.19368138457E+03  0.00000000000E+00 0. -1.
         11    1    3    3    0    0 -0.57750490557E+02  0.41697080955E+02 -0.11191379839E+03  0.13265920243E+03  0.00000000000E+00 0.  1.
         21    1    1    2  502  501  0.39428595690E+02 -0.27127084258E+02 -0.11204948803E+02  0.49153267807E+02  0.00000000000E+00 0. -1.
<scales pt_clust_5="13000.00000" pt_clust_6="13000.00000" pt_clust_7="13000.00000" pt_clust_8="13000.00000" pt_clust_9="47.85909"></scales>
<clustering>
<clus scale="   47.859">  2  9  1 -1</clus>
<clus scale="   80.133">  5  6 -1 -1</clus>
<clus scale="   88.735">  1  5  2 -1</clus>
<clus scale="   96.316">  7  8 -1 -1</clus>
<clus scale="   88.735">  1  5  2 -1</clus>
</clustering>
</event>
<event>
 9    1  0.2674825E-005  0.1247783E+03  0.7546771E-02  0.1237559E+00
         -2   -1    0    0    0  501 -0.00000000000E+00  0.00000000000E+00  0.21357676048E+03  0.21357676048E+03  0.00000000000E+00 0.  1.
          1   -1    0    0  502    0  0.00000000000E+00 -0.00000000000E+00 -0.41405527361E+03  0.41405527361E+03  0.00000000000E+00 0. -1.
         23    2    1    2    0    0  0.19339293311E+02 -0.87496937316E+02  0.18034716358E+03  0.22015590374E+03  0.88959542692E+02 0.  0.
        -24    2    1    2    0    0 -0.18577753702E+01  0.52852732034E+02 -0.32728782318E+03  0.34135407510E+03  0.81292206128E+02 0.  0.
         13    1    4    4    0    0  0.10842186202E+02  0.66317620072E+02 -0.30532371331E+03  0.31263101196E+03  0.00000000000E+00 0. -1.
        -14    1    4    4    0    0 -0.12699961572E+02 -0.13464888037E+02 -0.21964109870E+02  0.28723063141E+02  0.00000000000E+00 0.  1.
        -11    1    3    3    0    0  0.21446761294E+02 -0.42145144782E+02  0.16590608929E+03  0.17251378861E+03  0.00000000000E+00 0.  1.
         11    1    3    3    0    0 -0.21074679827E+01 -0.45351792534E+02  0.14441074292E+02  0.47642115130E+02  0.00000000000E+00 0. -1.
         21    1    1    2  502  501 -0.17481517941E+02  0.34644205282E+02 -0.53537853527E+02  0.66122055242E+02  0.00000000000E+00 0.  1.
<scales pt_clust_5="13000.00000" pt_clust_6="13000.00000" pt_clust_7="13000.00000" pt_clust_8="13000.00000" pt_clust_9="38.80495"></scales>
<clustering>
<clus scale="   38.805">  2  9  1 -1</clus>
<clus scale="   81.292">  5  6 -1 -1</clus>
<clus scale="   88.960">  7  8 -1 -1</clus>
<clus scale="  119.433">  2  5  1 -1</clus>
<clus scale="   38.805">  2  5  1 -1</clus>
</clustering>
</event>
<event>
 9    1  0.2674825E-005  0.1196219E+03  0.7546771E-02  0.1247757E+00
          3   -1    0    0  502    0  0.00000000000E+00  0.00000000000E+00  0.55195079620E+03  0.55195079620E+03  0.00000000000E+00 0. -1.
         -4   -1    0    0    0  501 -0.00000000000E+00 -0.00000000000E+00 -0.14040086464E+03  0.14040086464E+03  0.00000000000E+00 0.  1.
         23    2    1    2    0    0 -0.38361821793E+02  0.55168054191E+02 -0.97216004849E+02  0.15303307998E+03  0.97226685611E+02 0.  0.
        -24    2    1    2    0    0  0.40839229702E+02 -0.89335388427E+02  0.29010985796E+03  0.31799523162E+03  0.85490252893E+02 0.  0.
         11    1    4    4    0    0 -0.14384759785E+02 -0.69032096481E+02  0.13973198359E+03  0.15651638539E+03  0.00000000000E+00 0. -1.
        -12    1    4    4    0    0  0.55223989488E+02 -0.20303291946E+02  0.15037787437E+03  0.16147884623E+03  0.00000000000E+00 0.  1.
        -11    1    3    3    0    0 -0.67255551068E+02  0.43723187306E+02 -0.44226465124E+02  0.91602437059E+02  0.00000000000E+00 0.  1.
         11    1    3    3    0    0  0.28893729276E+02  0.11444866885E+02 -0.52989539725E+02  0.61430642922E+02  0.00000000000E+00 0. -1.
         21    1    1    2  502  501 -0.24774079094E+01  0.34167334236E+02  0.21865607845E+03  0.22132334925E+03  0.00000000000E+00 0. -1.
<scales pt_clust_5="13000.00000" pt_clust_6="13000.00000" pt_clust_7="13000.00000" pt_clust_8="13000.00000" pt_clust_9="34.25703"></scales>
<clustering>
<clus scale="   34.257">  1  9  2 -1</clus>
<clus scale="   85.490">  5  6 -1 -1</clus>
<clus scale="   97.227">  7  8 -1 -1</clus>
<clus scale="  110.295">  1  5  2 -1</clus>
<clus scale="   34.257">  1  5  2 -1</clus>
</clustering>
</event>
<event>
 9    1  0.2674825E-005  0.1345327E+03  0.7546771E-02  0.1223860E+00
          1   -1    0    0  502    0  0.00000000000E+00  0.00000000000E+00  0.12550743150E+03  0.12550743150E+03  0.00000000000E+00 0. -1.
         -2   -1    0    0    0  501 -0.00000000000E+00 -0.00000000000E+00 -0.28623159519E+03  0.28623159519E+03  0.00000000000E+00 0.  1.
         23    2    1    2    0    0  0.95413199271E+02 -0.25035920950E+02 -0.20178780112E+03  0.24257774289E+03  0.91625153364E+02 0.  0.
        -24    2    1    2    0    0 -0.10225181457E+03 -0.81940186013E+01  0.38189538829E+02  0.13511343535E+03  0.79212524337E+02 0.  0.
         11    1    4    4    0    0 -0.96940847026E+02 -0.27206066806E+01  0.82914513787E+00  0.96982560311E+02  0.00000000000E+00 0. -1.
        -12    1    4    4    0    0 -0.53109675437E+01 -0.54734119206E+01  0.37360393691E+02  0.38130875037E+02  0.00000000000E+00 0.  1.
        -11    1    3    3    0    0  0.26236659399E+02 -0.47696886328E+02 -0.12718366287E+03  0.13834391697E+03  0.00000000000E+00 0.  1.
         11    1    3    3    0    0  0.69176539872E+02  0.22660965378E+02 -0.74604138252E+02  0.10423382591E+03  0.00000000000E+00 0. -1.
         21    1    1    2  502  501  0.68386152980E+01  0.33229939551E+02  0.28740986075E+01  0.34047848457E+02  0.00000000000E+00 0. -1.
<scales pt_clust_5="13000.00000" pt_clust_6="13000.00000" pt_clust_7="13000.00000" pt_clust_8="13000.00000" pt_clust_9="33.92633"></scales>
<clustering>
<clus scale="   33.926">  1  9  2 -1</clus>
<clus scale="   79.213">  5  6 -1 -1</clus>
<clus scale="   91.625">  7  8 -1 -1</clus>
<clus scale="  126.406">  1  5  2 -1</clus>
<clus scale="   33.926">  1  5  2 -1</clus>
</clustering>
</event>
<event>
 9    1  0.2674825E-005  0.4283993E+03  0.7546771E-02  0.1034527E+00
          1   -1    0    0  502    0  0.00000000000E+00  0.00000000000E+00  0.92650500095E+03  0.92650500095E+03  0.00000000000E+00 0. -1.
         -2   -1    0    0    0  501 -0.00000000000E+00 -0.00000000000E+00 -0.11618763332E+04  0.11618763332E+04  0.00000000000E+00 0.  1.
         23    2    1    2    0    0  0.38831583368E+03  0.18832571843E+03 -0.10398279789E+04  0.11294357872E+04  0.90151032847E+02 0.  0.
        -24    2    1    2    0    0 -0.22410881788E+03 -0.21940170630E+03  0.36005691030E+03  0.48416055685E+03  0.80053701782E+02 0.  0.
         13    1    4    4    0    0 -0.11381435293E+03 -0.71694999449E+02  0.19388100750E+03  0.23597399210E+03  0.00000000000E+00 0. -1.
        -14    1    4    4    0    0 -0.11029446495E+03 -0.14770670685E+03  0.16617590281E+03  0.24818656475E+03  0.00000000000E+00 0.  1.
        -13    1    3    3    0    0  0.23239617114E+03  0.62844227919E+02 -0.57023111202E+03  0.61896760695E+03  0.00000000000E+00 0.  1.
         13    1    3    3    0    0  0.15591966254E+03  0.12548149051E+03 -0.46959686693E+03  0.51046818026E+03  0.00000000000E+00 0. -1.
         21    1    1    2  502  501 -0.16420701580E+03  0.31075987875E+02  0.44439973642E+03  0.47478499007E+03  0.00000000000E+00 0. -1.
<scales pt_clust_5="13000.00000" pt_clust_6="13000.00000" pt_clust_7="13000.00000" pt_clust_8="13000.00000" pt_clust_9="167.12170"></scales>
<clustering>
<clus scale="   80.054">  5  6 -1 -1</clus>
<clus scale="   90.151">  7  8 -1 -1</clus>
<clus scale="  167.122">  1  9  2 -1</clus>
<clus scale="  426.389">  1  5  2 -1</clus>
<clus scale="  167.122">  1  5  2 -1</clus>
</clustering>
</event>
<event>
 9    1  0.2674825E-005  0.2213627E+03  0.7546771E-02  0.1147963E+00
          3   -1    0    0  502    0  0.00000000000E+00  0.00000000000E+00  0.13062019009E+03  0.13062019009E+03  0.00000000000E+00 0. -1.
         -4   -1    0    0    0  501 -0.00000000000E+00 -0.00000000000E+00 -0.14908210144E+04  0.14908210144E+04  0.00000000000E+00 0.  1.
        -24    2    1    2    0    0  0.59746227032E+02  0.22421984415E+03 -0.12315188372E+04  0.12554900035E+04  0.75975998084E+02 0.  0.
         23    2    1    2    0    0 -0.10134981662E+03 -0.73712844676E+02  0.13915875196E+02  0.15448639097E+03  0.89258190734E+02 0.  0.
         11    1    3    3    0    0  0.13517791623E+02  0.60222668246E+02 -0.18078574809E+03  0.19103137746E+03  0.00000000000E+00 0. -1.
        -12    1    3    3    0    0  0.46228435409E+02  0.16399717590E+03 -0.10507330891E+04  0.10644586260E+04  0.00000000000E+00 0.  1.
        -11    1    4    4    0    0 -0.56606929479E+02  0.24111764787E+01  0.30947575096E+02  0.64559357504E+02  0.00000000000E+00 0.  1.
         11    1    4    4    0    0 -0.44742887145E+02 -0.76124021154E+02 -0.17031699900E+02  0.89927033467E+02  0.00000000000E+00 0. -1.
         21    1    1    2  502  501  0.41603589592E+02 -0.15050699947E+03 -0.14259786231E+03  0.21146481005E+03  0.00000000000E+00 0. -1.
<scales pt_clust_5="13000.00000" pt_clust_6="13000.00000" pt_clust_7="13000.00000" pt_clust_8="13000.00000" pt_clust_9="207.91609"></scales>
<clustering>
<clus scale="   75.976">  5  6 -1 -1</clus>
<clus scale="   89.258">  7  8 -1 -1</clus>
<clus scale="  153.858">  1  7  2 -1</clus>
<clus scale="  207.916">  1  9  2 -1</clus>
<clus scale="  153.858">  1  5  2 -1</clus>
</clustering>
</event>
<event>
 9    1  0.2674825E-005  0.2547011E+03  0.7546771E-02  0.1110921E+00
          3   -1    0    0  502    0  0.00000000000E+00  0.00000000000E+00  0.48169794753E+03  0.48169794753E+03  0.00000000000E+00 0. -1.
         -4   -1    0    0    0  501 -0.00000000000E+00 -0.00000000000E+00 -0.34180474023E+03  0.34180474023E+03  0.00000000000E+00 0.  1.
         23    2    1    2    0    0  0.19684728478E+03  0.27616529293E+02 -0.25767593167E+02  0.22003720045E+03  0.90779262542E+02 0.  0.
        -24    2    1    2    0    0 -0.27135640678E+03 -0.60254938754E+02 -0.11493237717E+03  0.31131928014E+03  0.80282536799E+02 0.  0.
         11    1    4    4    0    0 -0.50843280223E+02  0.19879834760E+02 -0.25132219181E+02  0.60098880313E+02  0.00000000000E+00 0. -1.
        -12    1    4    4    0    0 -0.22051312656E+03 -0.80134773514E+02 -0.89800157990E+02  0.25122039982E+03  0.00000000000E+00 0.  1.
        -13    1    3    3    0    0  0.17376155732E+03  0.41311439009E+02 -0.48267701062E+02  0.18501212058E+03  0.00000000000E+00 0.  1.
         13    1    3    3    0    0  0.23085727461E+02 -0.13694909716E+02  0.22500107896E+02  0.35025079869E+02  0.00000000000E+00 0. -1.
         21    1    1    2  502  501  0.74509122006E+02  0.32638409462E+02  0.28059317764E+03  0.29214620718E+03  0.00000000000E+00 0. -1.
<scales pt_clust_5="13000.00000" pt_clust_6="13000.00000" pt_clust_7="13000.00000" pt_clust_8="13000.00000" pt_clust_9="81.34418"></scales>
<clustering>
<clus scale="   80.283">  5  6 -1 -1</clus>
<clus scale="   81.344">  1  9  2 -1</clus>
<clus scale="   90.779">  7  8 -1 -1</clus>
<clus scale="  251.151">  1  5  2 -1</clus>
<clus scale="   81.344">  1  5  2 -1</clus>
</clustering>
</event>
<event>
 9    1  0.2674825E-005  0.1216333E+03  0.7546771E-02  0.1243752E+00
          3   -1    0    0  502    0  0.00000000000E+00  0.00000000000E+00  0.18990898761E+02  0.18990898761E+02  0.00000000000E+00 0. -1.
         -4   -1    0    0    0  501 -0.00000000000E+00 -0.00000000000E+00 -0.14136112169E+04  0.14136112169E+04  0.00000000000E+00 0.  1.
        -24    2    1    2    0    0 -0.27096457282E+02  0.11153458466E+03 -0.72361205598E+03  0.73694164233E+03  0.79337223721E+02 0.  0.
         23    2    1    2    0    0  0.41582873192E+02 -0.55188278709E+02 -0.31434204584E+03  0.33428040705E+03  0.90319362853E+02 0.  0.
         13    1    3    3    0    0 -0.72527265409E+01  0.10664430114E+03 -0.44809871295E+03  0.46067132052E+03  0.00000000000E+00 0. -1.
        -14    1    3    3    0    0 -0.19843730741E+02  0.48902835263E+01 -0.27551334303E+03  0.27627032181E+03  0.00000000000E+00 0.  1.
        -13    1    4    4    0    0  0.50104449002E+02 -0.75772488535E+02 -0.26513481443E+03  0.28026486696E+03  0.00000000000E+00 0. -1.
         13    1    4    4    0    0 -0.85215758105E+01  0.20584209827E+02 -0.49207231408E+02  0.54015540091E+02  0.00000000000E+00 0.  1.
         21    1    1    2  502  501 -0.14486415910E+02 -0.56346305953E+02 -0.35666621634E+03  0.36138006630E+03  0.00000000000E+00 0. -1.
<scales pt_clust_5="13000.00000" pt_clust_6="13000.00000" pt_clust_7="13000.00000" pt_clust_8="13000.00000" pt_clust_9="58.17871"></scales>
<clustering>
<clus scale="   58.179">  2  9  1 -1</clus>
<clus scale="   79.337">  5  6 -1 -1</clus>
<clus scale="   90.319">  7  8 -1 -1</clus>
<clus scale="  113.717">  2  5  1 -1</clus>
<clus scale="  121.633">  1  5  2 -1</clus>
</clustering>
</event>
<event>
 9    1  0.2674825E-005  0.9552844E+02  0.7546771E-02  0.1295442E+00
         -2   -1    0    0    0  501 -0.00000000000E+00  0.00000000000E+00  0.63496083205E+03  0.63496083205E+03  0.00000000000E+00 0.  1.
          1   -1    0    0  502    0  0.00000000000E+00 -0.00000000000E+00 -0.44740069182E+02  0.44740069182E+02  0.00000000000E+00 0. -1.
        -24    2    1    2    0    0  0.25948441428E+02  0.39059704033E+02  0.44939268536E+03  0.45896590725E+03  0.80603574829E+02 0.  0.
         23    2    1    2    0    0 -0.31154714140E+02  0.11003420532E+02  0.33051510854E+02  0.10178454196E+03  0.90421231659E+02 0.  0.
         11    1    3    3    0    0  0.12552876085E+01  0.25437196465E+02  0.33320344023E+02  0.41938908388E+02  0.00000000000E+00 0. -1.
        -12    1    3    3    0    0  0.24693153819E+02  0.13622507568E+02  0.41607234133E+03  0.41702699886E+03  0.00000000000E+00 0.  1.
        -11    1    4    4    0    0 -0.50072811514E+01 -0.38841283340E+02  0.70905247954E+01  0.39799418311E+02  0.00000000000E+00 0.  1.
         11    1    4    4    0    0 -0.26147432989E+02  0.49844703872E+02  0.25960986059E+02  0.61985123644E+02  0.00000000000E+00 0. -1.
         21    1    1    2  502  501  0.52062727126E+01 -0.50063124565E+02  0.10777656666E+03  0.11895045203E+03  0.00000000000E+00 0. -1.
<scales pt_clust_5="13000.00000" pt_clust_6="13000.00000" pt_clust_7="13000.00000" pt_clust_8="13000.00000" pt_clust_9="50.33311"></scales>
<clustering>
<clus scale="   50.333">  1  9  2 -1</clus>
<clus scale="   80.604">  5  6 -1 -1</clus>
<clus scale="   86.294">  1  5  2 -1</clus>
<clus scale="   90.421">  7  8 -1 -1</clus>
<clus scale="   95.528">  2  5  1 -1</clus>
</clustering>
</event>
<event>
 9    1  0.2674825E-005  0.1355965E+03  0.7546771E-02  0.1240557E+00
         -2   -1    0    0    0  501 -0.00000000000E+00  0.00000000000E+00  0.64362437155E+02  0.64362437155E+02  0.00000000000E+00 0.  1.
          1   -1    0    0  502    0  0.00000000000E+00 -0.00000000000E+00 -0.76593014772E+03  0.76593014772E+03  0.00000000000E+00 0. -1.
        -24    2    1    2    0    0  0.19154853430E+02 -0.18730546465E+02 -0.11426129626E+02  0.88304002451E+02  0.83362453357E+02 0.  0.
         23    2    1    2    0    0  0.94310948647E+02  0.23250241242E+02 -0.52640520430E+03  0.54272865942E+03  0.89536751592E+02 0.  0.
         13    1    3    3    0    0 -0.68170924444E+01 -0.41871502980E+02  0.14594446579E+02  0.44863051414E+02  0.00000000000E+00 0. -1.
        -14    1    3    3    0    0  0.25971945874E+02  0.23140956515E+02 -0.26020576206E+02  0.43440951037E+02  0.00000000000E+00 0.  1.
        -11    1    4    4    0    0  0.83658954014E+00  0.37449178539E+02 -0.15910280591E+03  0.16345287915E+03  0.00000000000E+00 0.  1.
         11    1    4    4    0    0  0.93474359107E+02 -0.14198937297E+02 -0.36730239839E+03  0.37927578026E+03  0.00000000000E+00 0. -1.
         21    1    1    2  502  501 -0.11346580208E+03 -0.45196947768E+01 -0.16373637663E+03  0.19925992300E+03  0.00000000000E+00 0.  1.
<scales pt_clust_5="13000.00000" pt_clust_6="13000.00000" pt_clust_7="13000.00000" pt_clust_8="13000.00000" pt_clust_9="101.83112"></scales>
<clustering>
<clus scale="   83.362">  5  6 -1 -1</clus>
<clus scale="   87.562">  1  5  2 -1</clus>
<clus scale="   89.537">  7  8 -1 -1</clus>
<clus scale="  101.831">  1  9  2 -1</clus>
<clus scale="  135.596">  2  5  1 -1</clus>
</clustering>
</event>
<event>
 9    1  0.2674825E-005  0.3141536E+03  0.7546771E-02  0.1078699E+00
          1   -1    0    0  502    0  0.00000000000E+00  0.00000000000E+00  0.19612170614E+04  0.19612170614E+04  0.00000000000E+00 0. -1.
         -2   -1    0    0    0  501 -0.00000000000E+00 -0.00000000000E+00 -0.11272954118E+03  0.11272954118E+03  0.00000000000E+00 0.  1.
         23    2    1    2    0    0  0.35908923227E+02 -0.18740783527E+03  0.12843870065E+03  0.24838469061E+03  0.93740638008E+02 0.  0.
        -24    2    1    2    0    0  0.10366005122E+03  0.33098455723E+03  0.14248417389E+04  0.14688533556E+04  0.84023901223E+02 0.  0.
         13    1    4    4    0    0  0.93738049943E+02  0.19951226103E+03  0.10007115409E+04  0.10247026653E+04  0.00000000000E+00 0. -1.
        -14    1    4    4    0    0  0.99220012780E+01  0.13147229619E+03  0.42413019804E+03  0.44415069027E+03  0.00000000000E+00 0.  1.
        -11    1    3    3    0    0 -0.16541446246E+02 -0.14067171631E+03  0.95241832769E+02  0.17068438101E+03  0.00000000000E+00 0.  1.
         11    1    3    3    0    0  0.52450369473E+02 -0.46736118965E+02  0.33196867882E+02  0.77700309593E+02  0.00000000000E+00 0. -1.
         21    1    1    2  502  501 -0.13956897445E+03 -0.14357672195E+03  0.29520708064E+03  0.35670855635E+03  0.00000000000E+00 0.  1.
<scales pt_clust_5="13000.00000" pt_clust_6="13000.00000" pt_clust_7="13000.00000" pt_clust_8="13000.00000" pt_clust_9="200.23430"></scales>
<clustering>
<clus scale="   84.024">  5  6 -1 -1</clus>
<clus scale="   93.741">  7  8 -1 -1</clus>
<clus scale="  200.234">  2  9  1 -1</clus>
<clus scale="  311.392">  1  5  2 -1</clus>
<clus scale="  311.392">  1  5  2 -1</clus>
</clustering>
</event>
<event>
 9    1  0.2674825E-005  0.9775244E+02  0.7546771E-02  0.1291977E+00
          1   -1    0    0  502    0  0.00000000000E+00  0.00000000000E+00  0.23306096712E+03  0.23306096712E+03  0.00000000000E+00 0. -1.
         -2   -1    0    0    0  501 -0.00000000000E+00 -0.00000000000E+00 -0.12629220838E+03  0.12629220838E+03  0.00000000000E+00 0.  1.
        -24    2    1    2    0    0 -0.25625840808E+02  0.25797118744E+02 -0.64835125695E+02  0.10960064112E+03  0.80539008911E+02 0.  0.
         23    2    1    2    0    0  0.29148269969E+02  0.25442073515E+02  0.39928247377E+02  0.10841486875E+03  0.93073079252E+02 0.  0.
         11    1    3    3    0    0 -0.17244917169E+02  0.54757095489E+02 -0.49368813123E+02  0.75716618941E+02  0.00000000000E+00 0. -1.
        -12    1    3    3    0    0 -0.83809236389E+01 -0.28959976746E+02 -0.15466312572E+02  0.33884022174E+02  0.00000000000E+00 0.  1.
        -11    1    4    4    0    0 -0.14980167671E+02 -0.13383290731E+02 -0.17202866742E+02  0.26447240279E+02  0.00000000000E+00 0.  1.
         11    1    4    4    0    0  0.44128437640E+02  0.38825364247E+02  0.57131114119E+02  0.81967628475E+02  0.00000000000E+00 0. -1.
         21    1    1    2  502  501 -0.35224291614E+01 -0.51239192259E+02  0.13167563706E+03  0.14133766563E+03  0.00000000000E+00 0.  1.
<scales pt_clust_5="13000.00000" pt_clust_6="13000.00000" pt_clust_7="13000.00000" pt_clust_8="13000.00000" pt_clust_9="51.36012"></scales>
<clustering>
<clus scale="   51.360">  1  9  2 -1</clus>
<clus scale="   80.539">  5  6 -1 -1</clus>
<clus scale="   85.904">  2  5  1 -1</clus>
<clus scale="   93.073">  7  8 -1 -1</clus>
<clus scale="   51.360">  1  5  2 -1</clus>
</clustering>
</event>
<event>
 9    1  0.2674825E-005  0.1038849E+03  0.7546771E-02  0.1279695E+00
         -2   -1    0    0    0  501 -0.00000000000E+00  0.00000000000E+00  0.21619503089E+03  0.21619503089E+03  0.00000000000E+00 0.  1.
          1   -1    0    0  502    0  0.00000000000E+00 -0.00000000000E+00 -0.15550131160E+03  0.15550131160E+03  0.00000000000E+00 0. -1.
        -24    2    1    2    0    0 -0.44226711722E+02 -0.18109337575E+02  0.16184522228E+03  0.18625517694E+03  0.78823631144E+02 0.  0.
         23    2    1    2    0    0 -0.17490151449E+01  0.17886658358E+02 -0.10130202722E+03  0.13946465302E+03  0.94155706788E+02 0.  0.
         13    1    3    3    0    0 -0.15140987413E+01 -0.42524486007E+02  0.66152162542E+02  0.78655788179E+02  0.00000000000E+00 0. -1.
        -14    1    3    3    0    0 -0.42712612980E+02  0.24415148432E+02  0.95693059736E+02  0.10759938876E+03  0.00000000000E+00 0.  1.
        -11    1    4    4    0    0 -0.26033065765E+02  0.27416661011E+02 -0.10637057242E+03  0.11288973598E+03  0.00000000000E+00 0. -1.
         11    1    4    4    0    0  0.24284050620E+02 -0.95300026530E+01  0.50685451928E+01  0.26574917036E+02  0.00000000000E+00 0.  1.
         21    1    1    2  502  501  0.45975726866E+02  0.22267921705E+00  0.15052422563E+00  0.45976512531E+02  0.00000000000E+00 0. -1.
<scales pt_clust_5="13000.00000" pt_clust_6="13000.00000" pt_clust_7="13000.00000" pt_clust_8="13000.00000" pt_clust_9="45.97627"></scales>
<clustering>
<clus scale="   45.976">  2  9  1 -1</clus>
<clus scale="   78.824">  5  6 -1 -1</clus>
<clus scale="   90.222">  1  5  2 -1</clus>
<clus scale="   94.156">  7  8 -1 -1</clus>
<clus scale="   45.976">  2  5  1 -1</clus>
</clustering>
</event>
<event>
 9    1  0.2674825E-005  0.1217420E+03  0.7546771E-02  0.1241729E+00
         -2   -1    0    0    0  501 -0.00000000000E+00  0.00000000000E+00  0.16953826300E+03  0.16953826300E+03  0.00000000000E+00 0.  1.
          1   -1    0    0  502    0  0.00000000000E+00 -0.00000000000E+00 -0.32465065380E+03  0.32465065380E+03  0.00000000000E+00 0. -1.
         23    2    1    2    0    0 -0.83268925244E+01  0.70119999373E+02  0.10288347733E+03  0.15382082610E+03  0.89942677211E+02 0.  0.
        -24    2    1    2    0    0 -0.30283359255E+02 -0.78244376430E+02 -0.27313330592E+03  0.29810819165E+03  0.85014274297E+02 0.  0.
         13    1    4    4    0    0 -0.32502784772E+02 -0.53336959871E+02 -0.26431198034E+03  0.27159176213E+03  0.00000000000E+00 0. -1.
        -14    1    4    4    0    0  0.22194255165E+01 -0.24907416560E+02 -0.88213255781E+01  0.26516429515E+02  0.00000000000E+00 0.  1.
        -11    1    3    3    0    0  0.19303594614E+02  0.47980360594E+02  0.10633669537E+03  0.11824650756E+03  0.00000000000E+00 0.  1.
         11    1    3    3    0    0 -0.27630487138E+02  0.22139638779E+02 -0.34532180425E+01  0.35574318541E+02  0.00000000000E+00 0. -1.
         21    1    1    2  502  501  0.38610251780E+02  0.81243770573E+01  0.15137437790E+02  0.42259899052E+02  0.00000000000E+00 0.  1.
<scales pt_clust_5="13000.00000" pt_clust_6="13000.00000" pt_clust_7="13000.00000" pt_clust_8="13000.00000" pt_clust_9="39.45576"></scales>
<clustering>
<clus scale="   39.456">  1  9  2 -1</clus>
<clus scale="   85.014">  5  6 -1 -1</clus>
<clus scale="   89.943">  7  8 -1 -1</clus>
<clus scale="  118.148">  2  5  1 -1</clus>
<clus scale="  118.148">  2  5  1 -1</clus>
</clustering>
</event>
<event>
 9    1  0.2674825E-005  0.9792122E+02  0.7546771E-02  0.1288954E+00
         -2   -1    0    0    0  501 -0.00000000000E+00  0.00000000000E+00  0.37659992286E+03  0.37659992286E+03  0.00000000000E+00 0.  1.
          1   -1    0    0  502    0  0.00000000000E+00 -0.00000000000E+00 -0.40184532388E+02  0.40184532388E+02  0.00000000000E+00 0. -1.
         23    2    1    2    0    0  0.31833650256E+02 -0.87566932640E+01  0.24322733190E+03  0.26154037817E+03  0.90298247272E+02 0.  0.
        -24    2    1    2    0    0 -0.52896008176E+02 -0.68530830309E+01  0.74804473656E+02  0.12322464187E+03  0.82119733665E+02 0.  0.
         13    1    4    4    0    0 -0.26899714125E+01 -0.37969488531E+02  0.21816020187E+02  0.43873189333E+02  0.00000000000E+00 0. -1.
        -14    1    4    4    0    0 -0.50206036764E+02  0.31116405500E+02  0.52988453469E+02  0.79351452537E+02  0.00000000000E+00 0.  1.
        -13    1    3    3    0    0  0.46160103212E+02 -0.26398888100E+02  0.22815554314E+03  0.23427037432E+03  0.00000000000E+00 0.  1.
         13    1    3    3    0    0 -0.14326452956E+02  0.17642194836E+02  0.15071788767E+02  0.27270003843E+02  0.00000000000E+00 0. -1.
         21    1    1    2  502  501  0.21062357921E+02  0.15609776295E+02  0.18383584918E+02  0.32019435217E+02  0.00000000000E+00 0.  1.
<scales pt_clust_5="13000.00000" pt_clust_6="13000.00000" pt_clust_7="13000.00000" pt_clust_8="13000.00000" pt_clust_9="26.21618"></scales>
<clustering>
<clus scale="   26.216">  2  9  1 -1</clus>
<clus scale="   82.120">  5  6 -1 -1</clus>
<clus scale="   90.298">  7  8 -1 -1</clus>
<clus scale="   90.435">  2  5  1 -1</clus>
<clus scale="   26.216">  2  5  1 -1</clus>
</clustering>
</event>
<event>
 9    1  0.2674825E-005  0.1337834E+03  0.7546771E-02  0.1224837E+00
         -2   -1    0    0    0  501 -0.00000000000E+00  0.00000000000E+00  0.61516914250E+02  0.61516914250E+02  0.00000000000E+00 0.  1.
          1   -1    0    0  502    0  0.00000000000E+00 -0.00000000000E+00 -0.11917631527E+04  0.11917631527E+04  0.00000000000E+00 0. -1.
        -24    2    1    2    0    0  0.17333374554E+02 -0.93781711717E+02 -0.49562096165E+02  0.13433848686E+03  0.80591391289E+02 0.  0.
         23    2    1    2    0    0 -0.12921063191E+03  0.77602875947E+02 -0.68296823180E+03  0.70547305542E+03  0.92352761286E+02 0.  0.
         11    1    3    3    0    0  0.31986320499E+02 -0.72436133349E+02 -0.86772349811E+00  0.79188831648E+02  0.00000000000E+00 0. -1.
        -12    1    3    3    0    0 -0.14652945945E+02 -0.21345578368E+02 -0.48694372667E+02  0.55149655213E+02  0.00000000000E+00 0.  1.
        -11    1    4    4    0    0 -0.13260664981E+03  0.56870782792E+02 -0.65376735634E+03  0.66950023579E+03  0.00000000000E+00 0. -1.
         11    1    4    4    0    0  0.33960178960E+01  0.20732093155E+02 -0.29200875455E+02  0.35972819621E+02  0.00000000000E+00 0.  1.
         21    1    1    2  502  501  0.11187725736E+03  0.16178835770E+02 -0.39771591049E+03  0.41346852468E+03  0.00000000000E+00 0. -1.
<scales pt_clust_5="13000.00000" pt_clust_6="13000.00000" pt_clust_7="13000.00000" pt_clust_8="13000.00000" pt_clust_9="113.04103"></scales>
<clustering>
<clus scale="   80.591">  5  6 -1 -1</clus>
<clus scale="   92.353">  7  8 -1 -1</clus>
<clus scale="  113.041">  2  9  1 -1</clus>
<clus scale="  125.952">  1  5  2 -1</clus>
<clus scale="  113.041">  2  5  1 -1</clus>
</clustering>
</event>
<event>
 9    1  0.2674825E-005  0.1889678E+03  0.7546771E-02  0.1160604E+00
         -2   -1    0    0    0  501 -0.00000000000E+00  0.00000000000E+00  0.74676931136E+03  0.74676931136E+03  0.00000000000E+00 0.  1.
          1   -1    0    0  502    0  0.00000000000E+00 -0.00000000000E+00 -0.64078394774E+02  0.64078394774E+02  0.00000000000E+00 0. -1.
         23    2    1    2    0    0  0.14015978804E+03  0.88757888819E+02  0.50894348604E+03  0.54319172931E+03  0.92255372732E+02 0.  0.
        -24    2    1    2    0    0 -0.12587911029E+03 -0.10429079135E+03  0.15781756336E+03  0.24121794576E+03  0.80978975562E+02 0.  0.
         11    1    4    4    0    0 -0.12746587670E+03 -0.11257093615E+03  0.15886985567E+03  0.23272171456E+03  0.00000000000E+00 0. -1.
        -12    1    4    4    0    0  0.15867664102E+01  0.82801447966E+01 -0.10522923061E+01  0.84962311992E+01  0.00000000000E+00 0.  1.
        -13    1    3    3    0    0  0.95471723501E+02  0.48711531574E+02  0.43476312852E+03  0.44777967932E+03  0.00000000000E+00 0.  1.
         13    1    3    3    0    0  0.44688064537E+02  0.40046357245E+02  0.74180357527E+02  0.95412049991E+02  0.00000000000E+00 0. -1.
         21    1    1    2  502  501 -0.14280677748E+02  0.15532902533E+02  0.15929867180E+02  0.26438031062E+02  0.00000000000E+00 0. -1.
<scales pt_clust_5="13000.00000" pt_clust_6="13000.00000" pt_clust_7="13000.00000" pt_clust_8="13000.00000" pt_clust_9="21.09997"></scales>
<clustering>
<clus scale="   21.100">  2  9  1 -1</clus>
<clus scale="   80.979">  5  6 -1 -1</clus>
<clus scale="   92.255">  7  8 -1 -1</clus>
<clus scale="  183.726">  2  5  1 -1</clus>
<clus scale="   21.100">  2  5  1 -1</clus>
</clustering>
</event>
<event>
 9    1  0.2674825E-005  0.1175094E+03  0.7546771E-02  0.1259660E+00
          1   -1    0    0  502    0  0.00000000000E+00  0.00000000000E+00  0.66090239549E+03  0.66090239549E+03  0.00000000000E+00 0. -1.
         -2   -1    0    0    0  501 -0.00000000000E+00 -0.00000000000E+00 -0.41184206176E+02  0.41184206176E+02  0.00000000000E+00 0.  1.
         23    2    1    2    0    0  0.15594006550E+02  0.33459844410E+01  0.11838301877E+03  0.14984105708E+03  0.90462338031E+02 0.  0.
        -24    2    1    2    0    0  0.51763216298E+02  0.61876023516E+02  0.13521005940E+03  0.17430573085E+03  0.74784054437E+02 0.  0.
         11    1    4    4    0    0  0.54613739861E+02  0.70084335856E+01  0.67544368845E+02  0.87143677255E+02  0.00000000000E+00 0. -1.
        -12    1    4    4    0    0 -0.28505235624E+01  0.54867589930E+02  0.67665690554E+02  0.87162053598E+02  0.00000000000E+00 0.  1.
        -11    1    3    3    0    0  0.39906410168E+02  0.25137949083E+02  0.30696924522E+02  0.56273788141E+02  0.00000000000E+00 0.  1.
         11    1    3    3    0    0 -0.24312403618E+02 -0.21791964642E+02  0.87686094245E+02  0.93567268938E+02  0.00000000000E+00 0. -1.
         21    1    1    2  502  501 -0.67357222848E+02 -0.65222007957E+02  0.36612511115E+03  0.37793981373E+03  0.00000000000E+00 0. -1.
<scales pt_clust_5="13000.00000" pt_clust_6="13000.00000" pt_clust_7="13000.00000" pt_clust_8="13000.00000" pt_clust_9="90.64105"></scales>
<clustering>
<clus scale="   74.784">  5  6 -1 -1</clus>
<clus scale="   90.462">  7  8 -1 -1</clus>
<clus scale="   91.858">  2  7  1 -1</clus>
<clus scale="   90.641">  1  9  2 -1</clus>
<clus scale="   90.641">  1  5  2 -1</clus>
</clustering>
</event>
<event>
 9    1  0.2674825E-005  0.1073077E+03  0.7546771E-02  0.1271011E+00
         -2   -1    0    0    0  501 -0.00000000000E+00  0.00000000000E+00  0.23167208981E+03  0.23167208981E+03  0.00000000000E+00 0.  1.
          1   -1    0    0  502    0  0.00000000000E+00 -0.00000000000E+00 -0.81981070737E+02  0.81981070737E+02  0.00000000000E+00 0. -1.
        -24    2    1    2    0    0  0.20503474096E+02 -0.44446604878E+02  0.11800044457E+03  0.15003852067E+03  0.78686464092E+02 0.  0.
         23    2    1    2    0    0 -0.45231637435E+02  0.59590468720E+02  0.51114247631E+02  0.12871338270E+03  0.91419601770E+02 0.  0.
         13    1    3    3    0    0 -0.53113153882E+01 -0.54428637542E+02  0.41397821783E+02  0.68589112140E+02  0.00000000000E+00 0. -1.
        -14    1    3    3    0    0  0.25814789485E+02  0.99820326634E+01  0.76602622788E+02  0.81449408532E+02  0.00000000000E+00 0.  1.
        -13    1    4    4    0    0  0.12581876478E+02  0.58697820373E+02  0.21626489064E+02  0.63807858148E+02  0.00000000000E+00 0.  1.
         13    1    4    4    0    0 -0.57813513913E+02  0.89264834702E+00  0.29487758567E+02  0.64905524552E+02  0.00000000000E+00 0. -1.
         21    1    1    2  502  501  0.24728163339E+02 -0.15143863841E+02 -0.19423673132E+02  0.34901257171E+02  0.00000000000E+00 0. -1.
<scales pt_clust_5="13000.00000" pt_clust_6="13000.00000" pt_clust_7="13000.00000" pt_clust_8="13000.00000" pt_clust_9="28.99687"></scales>
<clustering>
<clus scale="   28.997">  2  9  1 -1</clus>
<clus scale="   78.686">  5  6 -1 -1</clus>
<clus scale="   91.420">  7  8 -1 -1</clus>
<clus scale="   96.690">  1  5  2 -1</clus>
<clus scale="   28.997">  2  5  1 -1</clus>
</clustering>
</event>
<event>
 9    1  0.2674825E-005  0.1144465E+03  0.7546771E-02  0.1255851E+00
          1   -1    0    0  502    0  0.00000000000E+00  0.00000000000E+00  0.41640212204E+03  0.41640212204E+03  0.00000000000E+00 0. -1.
         -2   -1    0    0    0  501 -0.00000000000E+00 -0.00000000000E+00 -0.22440061443E+03  0.22440061443E+03  0.00000000000E+00 0.  1.
         23    2    1    2    0    0  0.61286343190E+02  0.29807447743E+00 -0.19874054541E+03  0.22967271678E+03  0.97445614239E+02 0.  0.
        -24    2    1    2    0    0 -0.38836395077E+02 -0.86824829269E+01  0.24838887606E+03  0.26677377470E+03  0.88811947529E+02 0.  0.
         11    1    4    4    0    0 -0.63654590227E+02  0.61582758834E+01  0.20406476649E+03  0.21385102324E+03  0.00000000000E+00 0. -1.
        -12    1    4    4    0    0  0.24818195149E+02 -0.14840758810E+02  0.44324109569E+02  0.52922751455E+02  0.00000000000E+00 0.  1.
        -11    1    3    3    0    0  0.48214566647E+02 -0.44127013684E+02 -0.87809421709E+02  0.10946384021E+03  0.00000000000E+00 0.  1.
         11    1    3    3    0    0  0.13071776543E+02  0.44425088162E+02 -0.11093112370E+03  0.12020887657E+03  0.00000000000E+00 0. -1.
         21    1    1    2  502  501 -0.22449948113E+02  0.83844084494E+01  0.14235317696E+03  0.14435624499E+03  0.00000000000E+00 0. -1.
<scales pt_clust_5="13000.00000" pt_clust_6="13000.00000" pt_clust_7="13000.00000" pt_clust_8="13000.00000" pt_clust_9="23.96453"></scales>
<clustering>
<clus scale="   23.965">  1  9  2 -1</clus>
<clus scale="   88.812">  5  6 -1 -1</clus>
<clus scale="   97.446">  7  8 -1 -1</clus>
<clus scale="  107.191">  1  5  2 -1</clus>
<clus scale="   23.965">  1  5  2 -1</clus>
</clustering>
</event>
<event>
 9    1  0.2674825E-005  0.1193721E+03  0.7546771E-02  0.1248756E+00
          1   -1    0    0  502    0  0.00000000000E+00  0.00000000000E+00  0.72408022632E+03  0.72408022632E+03  0.00000000000E+00 0. -1.
         -2   -1    0    0    0  501 -0.00000000000E+00 -0.00000000000E+00 -0.74984341013E+02  0.74984341013E+02  0.00000000000E+00 0.  1.
        -24    2    1    2    0    0  0.68858454275E+02  0.32442890237E+02 -0.23670302659E+02  0.11289045147E+03  0.79937118748E+02 0.  0.
         23    2    1    2    0    0 -0.45128485258E+02 -0.15471776742E+02  0.49978112030E+03  0.51074617123E+03  0.93832441921E+02 0.  0.
         13    1    3    3    0    0  0.36142296421E+02  0.27853027927E+02  0.26539881800E+02  0.52786571031E+02  0.00000000000E+00 0. -1.
        -14    1    3    3    0    0  0.32716157855E+02  0.45898623102E+01 -0.50210184459E+02  0.60103880442E+02  0.00000000000E+00 0.  1.
        -11    1    4    4    0    0 -0.61737452015E+02  0.20898317303E+02  0.29871997846E+03  0.30574806324E+03  0.00000000000E+00 0.  1.
         11    1    4    4    0    0  0.16608966757E+02 -0.36370094046E+02  0.20106114184E+03  0.20499810798E+03  0.00000000000E+00 0. -1.
         21    1    1    2  502  501 -0.23729969018E+02 -0.16971113495E+02  0.17298506767E+03  0.17542794464E+03  0.00000000000E+00 0.  1.
<scales pt_clust_5="13000.00000" pt_clust_6="13000.00000" pt_clust_7="13000.00000" pt_clust_8="13000.00000" pt_clust_9="29.17413"></scales>
<clustering>
<clus scale="   29.174">  1  9  2 -1</clus>
<clus scale="   79.937">  5  6 -1 -1</clus>
<clus scale="   93.832">  7  8 -1 -1</clus>
<clus scale="  108.789">  2  5  1 -1</clus>
<clus scale="   29.174">  1  5  2 -1</clus>
</clustering>
</event>
<event>
 9    1  0.2674825E-005  0.1579676E+03  0.7546771E-02  0.1220313E+00
         -2   -1    0    0    0  501 -0.00000000000E+00  0.00000000000E+00  0.93831310479E+02  0.93831310479E+02  0.00000000000E+00 0.  1.
          1   -1    0    0  502    0  0.00000000000E+00 -0.00000000000E+00 -0.57113401487E+03  0.57113401487E+03  0.00000000000E+00 0. -1.
         23    2    1    2    0    0 -0.65028576510E+02  0.80270900326E+02 -0.79649666646E+01  0.16042704804E+03  0.12247964667E+03 0.  0.
        -24    2    1    2    0    0  0.23177091608E+02 -0.45472162977E+01 -0.13387122346E+03  0.15809433479E+03  0.80712201497E+02 0.  0.
         13    1    4    4    0    0  0.48336821310E+02  0.16436630840E+02 -0.75153170677E+02  0.90854885342E+02  0.00000000000E+00 0. -1.
        -14    1    4    4    0    0 -0.25159729702E+02 -0.20983847137E+02 -0.58718052784E+02  0.67239449448E+02  0.00000000000E+00 0.  1.
        -13    1    3    3    0    0 -0.76732502519E+02  0.36328040704E+02  0.40417988381E+02  0.94027747335E+02  0.00000000000E+00 0. -1.
         13    1    3    3    0    0  0.11703926009E+02  0.43942859622E+02 -0.48382955045E+02  0.66399300710E+02  0.00000000000E+00 0.  1.
         21    1    1    2  502  501  0.41851484902E+02 -0.75723684029E+02 -0.33546651427E+03  0.34644394252E+03  0.00000000000E+00 0. -1.
<scales pt_clust_5="13000.00000" pt_clust_6="13000.00000" pt_clust_7="13000.00000" pt_clust_8="13000.00000" pt_clust_9="99.76215"></scales>
<clustering>
<clus scale="   80.712">  5  6 -1 -1</clus>
<clus scale="   84.097">  2  5  1 -1</clus>
<clus scale="   99.762">  2  9  1 -1</clus>
<clus scale="  122.480">  7  8 -1 -1</clus>
<clus scale="   84.097">  2  5  1 -1</clus>
</clustering>
</event>
<event>
 9    1  0.2674825E-005  0.1218750E+03  0.7546771E-02  0.1243023E+00
          1   -1    0    0  502    0  0.00000000000E+00  0.00000000000E+00  0.21692807451E+03  0.21692807451E+03  0.00000000000E+00 0. -1.
         -2   -1    0    0    0  501 -0.00000000000E+00 -0.00000000000E+00 -0.26974476913E+03  0.26974476913E+03  0.00000000000E+00 0.  1.
         23    2    1    2    0    0  0.25560836152E+02  0.73171942351E+02 -0.21668807851E+03  0.24795105445E+03  0.92295788319E+02 0.  0.
        -24    2    1    2    0    0 -0.53553064543E+02 -0.90714454340E+02  0.15439925222E+03  0.20435573246E+03  0.82614123221E+02 0.  0.
         11    1    4    4    0    0 -0.12707895879E+02 -0.15923226296E+02  0.10265839808E+03  0.10466033847E+03  0.00000000000E+00 0. -1.
        -12    1    4    4    0    0 -0.40845168663E+02 -0.74791228044E+02  0.51740854147E+02  0.99695393992E+02  0.00000000000E+00 0.  1.
        -13    1    3    3    0    0  0.14763077062E+02  0.94867488190E+02 -0.17950679045E+03  0.20356934096E+03  0.00000000000E+00 0.  1.
         13    1    3    3    0    0  0.10797759089E+02 -0.21695545839E+02 -0.37181288059E+02  0.44381713491E+02  0.00000000000E+00 0. -1.
         21    1    1    2  502  501  0.27992228391E+02  0.17542511989E+02  0.94721316681E+01  0.34366056735E+02  0.00000000000E+00 0.  1.
<scales pt_clust_5="13000.00000" pt_clust_6="13000.00000" pt_clust_7="13000.00000" pt_clust_8="13000.00000" pt_clust_9="33.03490"></scales>
<clustering>
<clus scale="   33.035">  1  9  2 -1</clus>
<clus scale="   82.614">  5  6 -1 -1</clus>
<clus scale="   92.296">  7  8 -1 -1</clus>
<clus scale="  114.717">  1  5  2 -1</clus>
<clus scale="   33.035">  1  5  2 -1</clus>
</clustering>
</event>
<event>
 9    1  0.2674825E-005  0.9381501E+02  0.7546771E-02  0.1298933E+00
         -2   -1    0    0    0  501 -0.00000000000E+00  0.00000000000E+00  0.18525452561E+03  0.18525452561E+03  0.00000000000E+00 0.  1.
          1   -1    0    0  502    0  0.00000000000E+00 -0.00000000000E+00 -0.18588700174E+03  0.18588700174E+03  0.00000000000E+00 0. -1.
         23    2    1    2    0    0 -0.12470014220E+02  0.77490583982E+01  0.13630895002E+03  0.16521102497E+03  0.92190041529E+02 0.  0.
        -24    2    1    2    0    0  0.48790064769E+02  0.27820050005E+02 -0.73812562083E+02  0.12487767379E+03  0.83616466605E+02 0.  0.
         13    1    4    4    0    0  0.14525024272E+02  0.41556982279E+02 -0.76073150090E+02  0.87892452867E+02  0.00000000000E+00 0. -1.
        -14    1    4    4    0    0  0.34265040497E+02 -0.13736932274E+02  0.22605880074E+01  0.36985220923E+02  0.00000000000E+00 0.  1.
        -11    1    3    3    0    0 -0.46246930123E+02  0.27904058859E+02  0.77991892301E+02  0.94869122012E+02  0.00000000000E+00 0.  1.
         11    1    3    3    0    0  0.33776915903E+02 -0.20155000461E+02  0.58317057716E+02  0.70341902961E+02  0.00000000000E+00 0. -1.
         21    1    1    2  502  501 -0.36320050550E+02 -0.35569108403E+02 -0.63128864066E+02  0.81052828592E+02  0.00000000000E+00 0.  1.
<scales pt_clust_5="13000.00000" pt_clust_6="13000.00000" pt_clust_7="13000.00000" pt_clust_8="13000.00000" pt_clust_9="50.83609"></scales>
<clustering>
<clus scale="   50.836">  2  9  1 -1</clus>
<clus scale="   83.616">  5  6 -1 -1</clus>
<clus scale="   85.405">  2  5  1 -1</clus>
<clus scale="   92.190">  7  8 -1 -1</clus>
<clus scale="   50.836">  2  5  1 -1</clus>
</clustering>
</event>
<event>
 9    1  0.2674825E-005  0.1041331E+03  0.7546771E-02  0.1276841E+00
          1   -1    0    0  502    0  0.00000000000E+00  0.00000000000E+00  0.23480771026E+03  0.23480771026E+03  0.00000000000E+00 0. -1.
         -2   -1    0    0    0  501 -0.00000000000E+00 -0.00000000000E+00 -0.10494510322E+03  0.10494510322E+03  0.00000000000E+00 0.  1.
        -24    2    1    2    0    0  0.19836139554E+02 -0.46152676686E+02 -0.58962946663E+02  0.11181127716E+03  0.80632441506E+02 0.  0.
         23    2    1    2    0    0 -0.37500468431E+02  0.31829346369E+02  0.14345489213E+03  0.17719034681E+03  0.91639077380E+02 0.  0.
         13    1    3    3    0    0  0.42137150465E+02 -0.43354868512E+02 -0.64765168359E+02  0.88598595393E+02  0.00000000000E+00 0. -1.
        -14    1    3    3    0    0 -0.22301010910E+02 -0.27978081744E+01  0.58022216962E+01  0.23212681767E+02  0.00000000000E+00 0.  1.
        -13    1    4    4    0    0 -0.36283311155E+02 -0.19081080769E+02  0.24413233049E+02  0.47713438983E+02  0.00000000000E+00 0.  1.
         13    1    4    4    0    0 -0.12171572756E+01  0.50910427137E+02  0.11904165908E+03  0.12947690782E+03  0.00000000000E+00 0. -1.
         21    1    1    2  502  501  0.17664328876E+02  0.14323330318E+02  0.45370661574E+02  0.50751189520E+02  0.00000000000E+00 0. -1.
<scales pt_clust_5="13000.00000" pt_clust_6="13000.00000" pt_clust_7="13000.00000" pt_clust_8="13000.00000" pt_clust_9="22.74173"></scales>
<clustering>
<clus scale="   22.742">  1  9  2 -1</clus>
<clus scale="   80.632">  5  6 -1 -1</clus>
<clus scale="   91.639">  7  8 -1 -1</clus>
<clus scale="   94.592">  2  5  1 -1</clus>
<clus scale="   22.742">  1  5  2 -1</clus>
</clustering>
</event>
<event>
 9    1  0.2674825E-005  0.1547566E+03  0.7546771E-02  0.1194831E+00
          1   -1    0    0  502    0  0.00000000000E+00  0.00000000000E+00  0.68028656709E+03  0.68028656709E+03  0.00000000000E+00 0. -1.
         -2   -1    0    0    0  501 -0.00000000000E+00 -0.00000000000E+00 -0.73393015501E+02  0.73393015501E+02  0.00000000000E+00 0.  1.
         23    2    1    2    0    0 -0.96029889272E+02 -0.82420297554E+02  0.39804567686E+02  0.16043104571E+03  0.90215695617E+02 0.  0.
        -24    2    1    2    0    0  0.78694400877E+02  0.94812225164E+02  0.48168923383E+03  0.50523037773E+03  0.89727642484E+02 0.  0.
         11    1    4    4    0    0  0.73426959517E+02  0.93411159222E+02  0.28909358990E+03  0.31255762153E+03  0.00000000000E+00 0. -1.
        -12    1    4    4    0    0  0.52674413592E+01  0.14010659414E+01  0.19259564393E+03  0.19267275621E+03  0.00000000000E+00 0.  1.
        -11    1    3    3    0    0 -0.75032913164E+02 -0.55631772060E+01  0.25776641350E+02  0.79531894469E+02  0.00000000000E+00 0.  1.
         11    1    3    3    0    0 -0.20996976108E+02 -0.76857120348E+02  0.14027926336E+02  0.80899151238E+02  0.00000000000E+00 0. -1.
         21    1    1    2  502  501  0.17335488395E+02 -0.12391927610E+02  0.85399750072E+02  0.88018159150E+02  0.00000000000E+00 0. -1.
<scales pt_clust_5="13000.00000" pt_clust_6="13000.00000" pt_clust_7="13000.00000" pt_clust_8="13000.00000" pt_clust_9="21.30913"></scales>
<clustering>
<clus scale="   21.309">  1  9  2 -1</clus>
<clus scale="   89.728">  5  6 -1 -1</clus>
<clus scale="   90.216">  7  8 -1 -1</clus>
<clus scale="  154.473">  1  5  2 -1</clus>
<clus scale="   21.309">  1  5  2 -1</clus>
</clustering>
</event>
<event>
 9    1  0.2674825E-005  0.2838674E+03  0.7546771E-02  0.1093915E+00
         -4   -1    0    0    0  501 -0.00000000000E+00  0.00000000000E+00  0.35961704880E+03  0.35961704880E+03  0.00000000000E+00 0.  1.
          3   -1    0    0  502    0  0.00000000000E+00 -0.00000000000E+00 -0.44922045607E+03  0.44922045607E+03  0.00000000000E+00 0. -1.
         23    2    1    2    0    0 -0.47396762242E+02  0.27004894021E+03  0.21272548095E+03  0.35877493544E+03  0.91073820994E+02 0.  0.
        -24    2    1    2    0    0 -0.11120933310E+02 -0.24940783885E+03 -0.27954901958E+03  0.38396190246E+03  0.83373514719E+02 0.  0.
         13    1    4    4    0    0  0.13915396489E+02 -0.18323649606E+03 -0.24200574338E+03  0.30386844452E+03  0.00000000000E+00 0. -1.
        -14    1    4    4    0    0 -0.25036329798E+02 -0.66171342799E+02 -0.37543276197E+02  0.80093457942E+02  0.00000000000E+00 0.  1.
        -13    1    3    3    0    0 -0.42322201443E+02  0.14493484335E+03  0.16783072735E+03  0.22575303010E+03  0.00000000000E+00 0.  1.
         13    1    3    3    0    0 -0.50745607990E+01  0.12511409686E+03  0.44894753597E+02  0.13302190534E+03  0.00000000000E+00 0. -1.
         21    1    1    2  502  501  0.58517695552E+02 -0.20641101358E+02 -0.22779868650E+02  0.66100666968E+02  0.00000000000E+00 0.  1.
<scales pt_clust_5="13000.00000" pt_clust_6="13000.00000" pt_clust_7="13000.00000" pt_clust_8="13000.00000" pt_clust_9="62.05140"></scales>
<clustering>
<clus scale="   62.051">  2  9  1 -1</clus>
<clus scale="   83.374">  5  6 -1 -1</clus>
<clus scale="   91.074">  7  8 -1 -1</clus>
<clus scale="  281.491">  2  5  1 -1</clus>
<clus scale="   62.051">  2  5  1 -1</clus>
</clustering>
</event>
<event>
 9    1  0.2674825E-005  0.1348907E+03  0.7546771E-02  0.1223213E+00
          1   -1    0    0  502    0  0.00000000000E+00  0.00000000000E+00  0.14864304533E+03  0.14864304533E+03  0.00000000000E+00 0. -1.
         -2   -1    0    0    0  501 -0.00000000000E+00 -0.00000000000E+00 -0.17663993411E+03  0.17663993411E+03  0.00000000000E+00 0.  1.
        -24    2    1    2    0    0 -0.24295266505E+02  0.93240862980E+02 -0.75052498698E+02  0.14545802172E+03  0.79000253271E+02 0.  0.
         23    2    1    2    0    0  0.44800177807E+02 -0.98123567843E+02  0.15630476846E+02  0.14198541250E+03  0.90995906829E+02 0.  0.
         11    1    3    3    0    0 -0.31051619044E+02  0.61939076659E+02 -0.62495759923E+01  0.69568020402E+02  0.00000000000E+00 0. -1.
        -12    1    3    3    0    0  0.67563525389E+01  0.31301786321E+02 -0.68802922706E+02  0.75890001314E+02  0.00000000000E+00 0.  1.
        -13    1    4    4    0    0  0.71006975263E+02 -0.85846899283E+02  0.18386105433E+02  0.11291470022E+03  0.00000000000E+00 0.  1.
         13    1    4    4    0    0 -0.26206797456E+02 -0.12276668560E+02 -0.27556285869E+01  0.29070712285E+02  0.00000000000E+00 0. -1.
         21    1    1    2  502  501 -0.20504911301E+02  0.48827048629E+01  0.31425133072E+02  0.37839545225E+02  0.00000000000E+00 0. -1.
<scales pt_clust_5="13000.00000" pt_clust_6="13000.00000" pt_clust_7="13000.00000" pt_clust_8="13000.00000" pt_clust_9="21.07824"></scales>
<clustering>
<clus scale="   21.078">  1  9  2 -1</clus>
<clus scale="   79.000">  5  6 -1 -1</clus>
<clus scale="   90.996">  7  8 -1 -1</clus>
<clus scale="  127.107">  2  5  1 -1</clus>
<clus scale="   21.078">  1  5  2 -1</clus>
</clustering>
</event>
<event>
 9    1  0.2674825E-005  0.1669391E+03  0.7546771E-02  0.1181846E+00
          1   -1    0    0  502    0  0.00000000000E+00  0.00000000000E+00  0.14278454798E+03  0.14278454798E+03  0.00000000000E+00 0. -1.
         -2   -1    0    0    0  501 -0.00000000000E+00 -0.00000000000E+00 -0.27639417702E+03  0.27639417702E+03  0.00000000000E+00 0.  1.
         23    2    1    2    0    0  0.11406357509E+03 -0.67857047844E+02 -0.95832704753E+02  0.18499659266E+03  0.86167011618E+02 0.  0.
        -24    2    1    2    0    0 -0.12664991468E+03  0.92878392756E+02 -0.71432051732E+02  0.19039684659E+03  0.80509778589E+02 0.  0.
         13    1    4    4    0    0 -0.12567019963E+03  0.81248069904E+02 -0.37159861715E+02  0.15419177430E+03  0.00000000000E+00 0. -1.
        -14    1    4    4    0    0 -0.97971504664E+00  0.11630322852E+02 -0.34272190018E+02  0.36205072294E+02  0.00000000000E+00 0.  1.
        -11    1    3    3    0    0  0.66989812326E+02 -0.58983716899E+02 -0.10329526855E+03  0.13651602953E+03  0.00000000000E+00 0.  1.
         11    1    3    3    0    0  0.47073762760E+02 -0.88733309453E+01  0.74625637972E+01  0.48480563125E+02  0.00000000000E+00 0. -1.
         21    1    1    2  502  501  0.12586339589E+02 -0.25021344911E+02  0.33655127446E+02  0.43785285757E+02  0.00000000000E+00 0. -1.
<scales pt_clust_5="13000.00000" pt_clust_6="13000.00000" pt_clust_7="13000.00000" pt_clust_8="13000.00000" pt_clust_9="28.00864"></scales>
<clustering>
<clus scale="   28.009">  1  9  2 -1</clus>
<clus scale="   80.510">  5  6 -1 -1</clus>
<clus scale="   86.167">  7  8 -1 -1</clus>
<clus scale="  164.091">  1  5  2 -1</clus>
<clus scale="   28.009">  1  5  2 -1</clus>
</clustering>
</event>
<event>
 9    1  0.2674825E-005  0.1614499E+03  0.7546771E-02  0.1209703E+00
         -2   -1    0    0    0  501 -0.00000000000E+00  0.00000000000E+00  0.51621218779E+03  0.51621218779E+03  0.00000000000E+00 0.  1.
          1   -1    0    0  502    0  0.00000000000E+00 -0.00000000000E+00 -0.12270823806E+03  0.12270823806E+03  0.00000000000E+00 0. -1.
        -24    2    1    2    0    0  0.57439148239E+02  0.12226234930E+03  0.36400889177E+03  0.39854539652E+03  0.89936766630E+02 0.  0.
         23    2    1    2    0    0 -0.30899421267E+02  0.79694398166E+01  0.41362951498E+02  0.10693769235E+03  0.93308574536E+02 0.  0.
         13    1    3    3    0    0  0.35214774777E+02  0.60675643181E+02  0.77013584419E+02  0.10417632276E+03  0.00000000000E+00 0. -1.
        -14    1    3    3    0    0  0.22224373462E+02  0.61586706123E+02  0.28699530735E+03  0.29436907376E+03  0.00000000000E+00 0.  1.
        -11    1    4    4    0    0 -0.48054695221E+02 -0.27538109006E+02  0.38392636452E+02  0.67391362311E+02  0.00000000000E+00 0.  1.
         11    1    4    4    0    0  0.17155273953E+02  0.35507548822E+02  0.29703150463E+01  0.39546330035E+02  0.00000000000E+00 0. -1.
         21    1    1    2  502  501 -0.26539726972E+02 -0.13023178912E+03 -0.11867893541E+02  0.13343733699E+03  0.00000000000E+00 0. -1.
<scales pt_clust_5="13000.00000" pt_clust_6="13000.00000" pt_clust_7="13000.00000" pt_clust_8="13000.00000" pt_clust_9="134.08000"></scales>
<clustering>
<clus scale="   89.937">  5  6 -1 -1</clus>
<clus scale="   93.309">  7  8 -1 -1</clus>
<clus scale="   98.614">  2  7  1 -1</clus>
<clus scale="  134.080">  2  9  1 -1</clus>
<clus scale="   98.614">  2  5  1 -1</clus>
</clustering>
</event>
<event>
 9    1  0.2674825E-005  0.9239256E+02  0.7546771E-02  0.1300379E+00
         -2   -1    0    0    0  501 -0.00000000000E+00  0.00000000000E+00  0.29451389328E+03  0.29451389328E+03  0.00000000000E+00 0.  1.
          1   -1    0    0  502    0  0.00000000000E+00 -0.00000000000E+00 -0.65714553382E+02  0.65714553382E+02  0.00000000000E+00 0. -1.
        -24    2    1    2    0    0 -0.44119310636E+01  0.89887106005E+01  0.14553011071E+03  0.16614050477E+03  0.79519759473E+02 0.  0.
         23    2    1    2    0    0 -0.46292007060E+02  0.19662969231E+02  0.86387534845E+01  0.99422657857E+02  0.85326751708E+02 0.  0.
         13    1    3    3    0    0 -0.32530129908E+02 -0.43240404004E+01  0.23906031046E+02  0.40600554154E+02  0.00000000000E+00 0. -1.
        -14    1    3    3    0    0  0.28118198845E+02  0.13312751001E+02  0.12162407967E+03  0.12553995061E+03  0.00000000000E+00 0.  1.
        -11    1    4    4    0    0 -0.66386471342E+02  0.20020310739E+02 -0.12274759035E+02  0.70417654950E+02  0.00000000000E+00 0. -1.
         11    1    4    4    0    0  0.20094464282E+02 -0.35734150846E+00  0.20913512520E+02  0.29005002907E+02  0.00000000000E+00 0.  1.
         21    1    1    2  502  501  0.50703938123E+02 -0.28651679831E+02  0.74630475704E+02  0.94665284039E+02  0.00000000000E+00 0.  1.
<scales pt_clust_5="13000.00000" pt_clust_6="13000.00000" pt_clust_7="13000.00000" pt_clust_8="13000.00000" pt_clust_9="58.23923"></scales>
<clustering>
<clus scale="   58.239">  1  9  2 -1</clus>
<clus scale="   79.520">  5  6 -1 -1</clus>
<clus scale="   85.327">  7  8 -1 -1</clus>
<clus scale="   87.058">  1  5  2 -1</clus>
<clus scale="   92.393">  2  5  1 -1</clus>
</clustering>
</event>
<event>
 9    1  0.2674825E-005  0.1096186E+03  0.7546771E-02  0.1264232E+00
          1   -1    0    0  502    0  0.00000000000E+00  0.00000000000E+00  0.28034089514E+03  0.28034089514E+03  0.00000000000E+00 0. -1.
         -2   -1    0    0    0  501 -0.00000000000E+00 -0.00000000000E+00 -0.15490554766E+03  0.15490554766E+03  0.00000000000E+00 0.  1.
         23    2    1    2    0    0 -0.22190782267E+02  0.67101873723E+02 -0.11074771718E+03  0.15855190628E+03  0.88761240697E+02 0.  0.
        -24    2    1    2    0    0  0.32260903312E+02 -0.21164926243E+02  0.10961609884E+03  0.14167302965E+03  0.81036030393E+02 0.  0.
         11    1    4    4    0    0  0.41993910637E+02 -0.29170111278E+02  0.11656198100E+03  0.12728346058E+03  0.00000000000E+00 0. -1.
        -12    1    4    4    0    0 -0.97330073255E+01  0.80051850353E+01 -0.69458821647E+01  0.14389569073E+02  0.00000000000E+00 0.  1.
        -13    1    3    3    0    0  0.33183196973E+02  0.18600448952E+02 -0.24899163228E+02  0.45465037029E+02  0.00000000000E+00 0. -1.
         13    1    3    3    0    0 -0.55373979240E+02  0.48501424771E+02 -0.85848553949E+02  0.11308686925E+03  0.00000000000E+00 0.  1.
         21    1    1    2  502  501 -0.10070121044E+02 -0.45936947480E+02  0.12656696581E+03  0.13502150687E+03  0.00000000000E+00 0. -1.
<scales pt_clust_5="13000.00000" pt_clust_6="13000.00000" pt_clust_7="13000.00000" pt_clust_8="13000.00000" pt_clust_9="47.02776"></scales>
<clustering>
<clus scale="   47.028">  1  9  2 -1</clus>
<clus scale="   81.036">  5  6 -1 -1</clus>
<clus scale="   88.761">  7  8 -1 -1</clus>
<clus scale="  103.463">  1  5  2 -1</clus>
<clus scale="   47.028">  1  5  2 -1</clus>
</clustering>
</event>
<event>
 9    1  0.2674825E-005  0.1222476E+03  0.7546771E-02  0.1240448E+00
          3   -1    0    0  502    0  0.00000000000E+00  0.00000000000E+00  0.18269002096E+03  0.18269002096E+03  0.00000000000E+00 0. -1.
         -4   -1    0    0    0  501 -0.00000000000E+00 -0.00000000000E+00 -0.49407913767E+03  0.49407913767E+03  0.00000000000E+00 0.  1.
         23    2    1    2    0    0 -0.41252723324E+02 -0.72792268803E+02 -0.38739740828E+03  0.40508215053E+03  0.83751388974E+02 0.  0.
        -24    2    1    2    0    0  0.59792507223E+02  0.15057191038E+03  0.48261700983E+02  0.18705090752E+03  0.80073754175E+02 0.  0.
         13    1    4    4    0    0  0.23596152740E+02  0.13483631416E+03  0.54030325488E+02  0.14716278780E+03  0.00000000000E+00 0. -1.
        -14    1    4    4    0    0  0.36196354483E+02  0.15735596216E+02 -0.57686245049E+01  0.39888119720E+02  0.00000000000E+00 0.  1.
        -13    1    3    3    0    0 -0.28901916255E+02 -0.90977269290E+02 -0.29294726917E+03  0.30810758965E+03  0.00000000000E+00 0.  1.
         13    1    3    3    0    0 -0.12350807069E+02  0.18185000487E+02 -0.94450139119E+02  0.96974560879E+02  0.00000000000E+00 0. -1.
         21    1    1    2  502  501 -0.18539783899E+02 -0.77779641576E+02  0.27746590591E+02  0.84636100573E+02  0.00000000000E+00 0.  1.
<scales pt_clust_5="13000.00000" pt_clust_6="13000.00000" pt_clust_7="13000.00000" pt_clust_8="13000.00000" pt_clust_9="79.95872"></scales>
<clustering>
<clus scale="   79.959">  1  9  2 -1</clus>
<clus scale="   80.074">  5  6 -1 -1</clus>
<clus scale="   83.751">  7  8 -1 -1</clus>
<clus scale="  119.758">  1  5  2 -1</clus>
<clus scale="   79.959">  1  5  2 -1</clus>
</clustering>
</event>
<event>
 9    1  0.2674825E-005  0.2374791E+03  0.7546771E-02  0.1154449E+00
          1   -1    0    0  502    0  0.00000000000E+00  0.00000000000E+00  0.30274657588E+03  0.30274657588E+03  0.00000000000E+00 0. -1.
         -2   -1    0    0    0  501 -0.00000000000E+00 -0.00000000000E+00 -0.52522257258E+03  0.52522257258E+03  0.00000000000E+00 0.  1.
         23    2    1    2    0    0  0.45874699697E+02 -0.30176936538E+02 -0.27565489851E+03  0.29565539072E+03  0.91713420041E+02 0.  0.
        -24    2    1    2    0    0  0.12251997632E+03  0.18081193269E+03 -0.10567859946E+03  0.25611930688E+03  0.82006300820E+02 0.  0.
         11    1    4    4    0    0 -0.42068661062E+01  0.37404023692E+02 -0.37030350230E+02  0.52801567676E+02  0.00000000000E+00 0. -1.
        -12    1    4    4    0    0  0.12672684243E+03  0.14340790899E+03 -0.68648249228E+02  0.20331773920E+03  0.00000000000E+00 0.  1.
        -11    1    3    3    0    0  0.52467706860E+02  0.18987822149E+02 -0.12112931763E+03  0.13336307301E+03  0.00000000000E+00 0.  1.
         11    1    3    3    0    0 -0.65930071623E+01 -0.49164758687E+02 -0.15452558088E+03  0.16229231770E+03  0.00000000000E+00 0. -1.
         21    1    1    2  502  501 -0.16839467602E+03 -0.15063499615E+03  0.15885750128E+03  0.27619445086E+03  0.00000000000E+00 0. -1.
<scales pt_clust_5="13000.00000" pt_clust_6="13000.00000" pt_clust_7="13000.00000" pt_clust_8="13000.00000" pt_clust_9="222.87057"></scales>
<clustering>
<clus scale="   82.006">  5  6 -1 -1</clus>
<clus scale="   91.713">  7  8 -1 -1</clus>
<clus scale="  106.895">  2  7  1 -1</clus>
<clus scale="  222.871">  1  9  2 -1</clus>
<clus scale="  222.871">  1  5  2 -1</clus>
</clustering>
</event>
<event>
 9    1  0.2674825E-005  0.9779657E+02  0.7546771E-02  0.1290637E+00
          1   -1    0    0  502    0  0.00000000000E+00  0.00000000000E+00  0.17607195864E+03  0.17607195864E+03  0.00000000000E+00 0. -1.
         -2   -1    0    0    0  501 -0.00000000000E+00 -0.00000000000E+00 -0.74734637694E+02  0.74734637694E+02  0.00000000000E+00 0.  1.
         23    2    1    2    0    0  0.40429193072E+02 -0.17970653772E+02  0.94123814851E+01  0.10172960981E+03  0.91120011726E+02 0.  0.
        -24    2    1    2    0    0 -0.26182475610E+02  0.35380567560E+00  0.42485510498E+02  0.94693354507E+02  0.80474626920E+02 0.  0.
         13    1    4    4    0    0 -0.24966414431E+02  0.19132416696E+02  0.60787321957E+02  0.68443186139E+02  0.00000000000E+00 0. -1.
        -14    1    4    4    0    0 -0.12160611788E+01 -0.18778611020E+02 -0.18301811459E+02  0.26250168368E+02  0.00000000000E+00 0.  1.
        -11    1    3    3    0    0 -0.12104649711E+02 -0.41819266286E+02  0.58343083016E+01  0.43925080885E+02  0.00000000000E+00 0.  1.
         11    1    3    3    0    0  0.52533842782E+02  0.23848612514E+02  0.35780731835E+01  0.57804528923E+02  0.00000000000E+00 0. -1.
         21    1    1    2  502  501 -0.14246717462E+02  0.17616848096E+02  0.49439428959E+02  0.54383632014E+02  0.00000000000E+00 0.  1.
<scales pt_clust_5="13000.00000" pt_clust_6="13000.00000" pt_clust_7="13000.00000" pt_clust_8="13000.00000" pt_clust_9="22.65662"></scales>
<clustering>
<clus scale="   22.657">  1  9  2 -1</clus>
<clus scale="   80.475">  5  6 -1 -1</clus>
<clus scale="   87.963">  1  5  2 -1</clus>
<clus scale="   91.120">  7  8 -1 -1</clus>
<clus scale="   22.657">  1  5  2 -1</clus>
</clustering>
</event>
<event>
 9    1  0.2674825E-005  0.2363300E+03  0.7546771E-02  0.1124407E+00
         -4   -1    0    0    0  501 -0.00000000000E+00  0.00000000000E+00  0.34429867421E+03  0.34429867421E+03  0.00000000000E+00 0.  1.
          3   -1    0    0  502    0  0.00000000000E+00 -0.00000000000E+00 -0.60619438557E+03  0.60619438557E+03  0.00000000000E+00 0. -1.
         23    2    1    2    0    0 -0.13473545395E+03  0.17274442080E+03  0.25151678968E+03  0.35113455855E+03  0.10972923605E+03 0.  0.
        -24    2    1    2    0    0  0.59387873020E+02 -0.10144570275E+03 -0.46240227534E+03  0.48376088761E+03  0.79941116249E+02 0.  0.
         13    1    4    4    0    0  0.35128290755E+02 -0.61127378736E+02 -0.39687930598E+03  0.40309271484E+03  0.00000000000E+00 0. -1.
        -14    1    4    4    0    0  0.24259582265E+02 -0.40318324016E+02 -0.65522969358E+02  0.80668172761E+02  0.00000000000E+00 0.  1.
        -11    1    3    3    0    0 -0.19333564142E+02 -0.14624673003E+02  0.17456658929E+02  0.29873110046E+02  0.00000000000E+00 0. -1.
         11    1    3    3    0    0 -0.11540188981E+03  0.18736909381E+03  0.23406013075E+03  0.32126144850E+03  0.00000000000E+00 0.  1.
         21    1    1    2  502  501  0.75347580934E+02 -0.71298718051E+02 -0.51010225709E+02  0.11559761362E+03  0.00000000000E+00 0. -1.
<scales pt_clust_5="13000.00000" pt_clust_6="13000.00000" pt_clust_7="13000.00000" pt_clust_8="13000.00000" pt_clust_9="103.73411"></scales>
<clustering>
<clus scale="   79.941">  5  6 -1 -1</clus>
<clus scale="  103.734">  2  9  1 -1</clus>
<clus scale="  109.729">  7  8 -1 -1</clus>
<clus scale="  224.058">  2  5  1 -1</clus>
<clus scale="  103.734">  2  5  1 -1</clus>
</clustering>
</event>
<event>
 9    1  0.2674825E-005  0.9505665E+02  0.7546771E-02  0.1298852E+00
          1   -1    0    0  502    0  0.00000000000E+00  0.00000000000E+00  0.21595347805E+03  0.21595347805E+03  0.00000000000E+00 0. -1.
         -2   -1    0    0    0  501 -0.00000000000E+00 -0.00000000000E+00 -0.11489482156E+03  0.11489482156E+03  0.00000000000E+00 0.  1.
        -24    2    1    2    0    0 -0.20149644745E+02  0.72798901412E+01 -0.38345838232E+02  0.89125563070E+02  0.77549711147E+02 0.  0.
         23    2    1    2    0    0  0.30965254447E+01 -0.79345569730E+02  0.66947724331E+02  0.13811648853E+03  0.91043169454E+02 0.  0.
         11    1    3    3    0    0  0.15956994431E+02  0.19021527669E+02  0.10754885786E+02  0.27057563719E+02  0.00000000000E+00 0. -1.
        -12    1    3    3    0    0 -0.36106639175E+02 -0.11741637528E+02 -0.49100724019E+02  0.62067999352E+02  0.00000000000E+00 0.  1.
        -13    1    4    4    0    0  0.34441010201E+01 -0.41904417078E+02 -0.17652308075E+02  0.45600942785E+02  0.00000000000E+00 0.  1.
         13    1    4    4    0    0 -0.34757557546E+00 -0.37441152652E+02  0.84600032406E+02  0.92515545741E+02  0.00000000000E+00 0. -1.
         21    1    1    2  502  501  0.17053119300E+02  0.72065679589E+02  0.72456770386E+02  0.10360624801E+03  0.00000000000E+00 0. -1.
<scales pt_clust_5="13000.00000" pt_clust_6="13000.00000" pt_clust_7="13000.00000" pt_clust_8="13000.00000" pt_clust_9="74.05586"></scales>
<clustering>
<clus scale="   74.056">  1  9  2 -1</clus>
<clus scale="   77.550">  5  6 -1 -1</clus>
<clus scale="   82.224">  2  5  1 -1</clus>
<clus scale="   91.043">  7  8 -1 -1</clus>
<clus scale="   74.056">  1  5  2 -1</clus>
</clustering>
</event>
<event>
 9    1  0.2674825E-005  0.1002343E+03  0.7546771E-02  0.1282729E+00
          1   -1    0    0  502    0  0.00000000000E+00  0.00000000000E+00  0.52774568890E+02  0.52774568890E+02  0.00000000000E+00 0. -1.
         -2   -1    0    0    0  501 -0.00000000000E+00 -0.00000000000E+00 -0.47445865011E+03  0.47445865011E+03  0.00000000000E+00 0.  1.
         23    2    1    2    0    0 -0.45608705801E+02 -0.42571520372E+01 -0.39550305579E+03  0.40836780336E+03  0.90792721583E+02 0.  0.
        -24    2    1    2    0    0  0.22693145108E+02 -0.70914051625E+01 -0.10017750486E+02  0.88613735867E+02  0.84774831156E+02 0.  0.
         11    1    4    4    0    0  0.33350849362E+02 -0.14111959571E+02  0.29738415990E+02  0.46859363437E+02  0.00000000000E+00 0. -1.
        -12    1    4    4    0    0 -0.10657704255E+02  0.70205544080E+01 -0.39756166476E+02  0.41754372430E+02  0.00000000000E+00 0.  1.
        -11    1    3    3    0    0 -0.69477402024E+02  0.11956743410E+02 -0.23713731960E+03  0.24739478865E+03  0.00000000000E+00 0.  1.
         11    1    3    3    0    0  0.23868696222E+02 -0.16213895447E+02 -0.15836573619E+03  0.16097301471E+03  0.00000000000E+00 0. -1.
         21    1    1    2  502  501  0.22915560693E+02  0.11348557200E+02 -0.16163274953E+02  0.30251679781E+02  0.00000000000E+00 0.  1.
<scales pt_clust_5="13000.00000" pt_clust_6="13000.00000" pt_clust_7="13000.00000" pt_clust_8="13000.00000" pt_clust_9="25.57172"></scales>
<clustering>
<clus scale="   25.572">  1  9  2 -1</clus>
<clus scale="   84.775">  5  6 -1 -1</clus>
<clus scale="   90.793">  7  8 -1 -1</clus>
<clus scale="   94.818">  1  5  2 -1</clus>
<clus scale="   25.572">  1  5  2 -1</clus>
</clustering>
</event>
<event>
 9    1  0.2674825E-005  0.1293737E+03  0.7546771E-02  0.1230934E+00
          3   -1    0    0  502    0  0.00000000000E+00  0.00000000000E+00  0.10501809546E+03  0.10501809546E+03  0.00000000000E+00 0. -1.
         -4   -1    0    0    0  501 -0.00000000000E+00 -0.00000000000E+00 -0.21447593266E+03  0.21447593266E+03  0.00000000000E+00 0.  1.
        -24    2    1    2    0    0 -0.75559931523E+02 -0.51711419354E+02 -0.10412580864E+03  0.16036744876E+03  0.80573944015E+02 0.  0.
         23    2    1    2    0    0  0.65056128738E+02  0.71113007900E+02 -0.18551950285E+02  0.13340659022E+03  0.90353658899E+02 0.  0.
         13    1    3    3    0    0 -0.58531772170E+02 -0.20737211374E+02 -0.14136742267E+02  0.63685538161E+02  0.00000000000E+00 0. -1.
        -14    1    3    3    0    0 -0.17028159353E+02 -0.30974207980E+02 -0.89989066370E+02  0.96681910599E+02  0.00000000000E+00 0.  1.
        -11    1    4    4    0    0  0.33149997220E+02 -0.14325006521E+02 -0.21736593264E+02  0.42149823419E+02  0.00000000000E+00 0.  1.
         11    1    4    4    0    0  0.31906131518E+02  0.85438014420E+02  0.31846429790E+01  0.91256766804E+02  0.00000000000E+00 0. -1.
         21    1    1    2  502  501  0.10503802785E+02 -0.19401588545E+02  0.13219921716E+02  0.25719989137E+02  0.00000000000E+00 0. -1.
<scales pt_clust_5="13000.00000" pt_clust_6="13000.00000" pt_clust_7="13000.00000" pt_clust_8="13000.00000" pt_clust_9="22.06245"></scales>
<clustering>
<clus scale="   22.062">  1  9  2 -1</clus>
<clus scale="   80.574">  5  6 -1 -1</clus>
<clus scale="   90.354">  7  8 -1 -1</clus>
<clus scale="  122.743">  2  5  1 -1</clus>
<clus scale="   22.062">  1  5  2 -1</clus>
</clustering>
</event>
<event>
 9    1  0.2674825E-005  0.1447932E+03  0.7546771E-02  0.1209780E+00
         -2   -1    0    0    0  501 -0.00000000000E+00  0.00000000000E+00  0.25554793216E+03  0.25554793216E+03  0.00000000000E+00 0.  1.
          1   -1    0    0  502    0  0.00000000000E+00 -0.00000000000E+00 -0.13883459120E+03  0.13883459120E+03  0.00000000000E+00 0. -1.
        -24    2    1    2    0    0  0.11229830840E+03  0.39027323471E+02  0.10440487114E+03  0.17754635878E+03  0.80549924596E+02 0.  0.
         23    2    1    2    0    0 -0.10385531726E+03  0.33068751092E+02  0.91733958259E+01  0.14417973503E+03  0.93937083092E+02 0.  0.
         11    1    3    3    0    0  0.62603612325E+02 -0.12552623293E+02  0.20132442826E+02  0.66948456904E+02  0.00000000000E+00 0. -1.
        -12    1    3    3    0    0  0.49694696077E+02  0.51579946764E+02  0.84272428312E+02  0.11059790188E+03  0.00000000000E+00 0.  1.
        -13    1    4    4    0    0 -0.60284963228E+02 -0.37152115023E+00 -0.38433573102E+02  0.71495135225E+02  0.00000000000E+00 0.  1.
         13    1    4    4    0    0 -0.43570354030E+02  0.33440272242E+02  0.47606968928E+02  0.72684599802E+02  0.00000000000E+00 0. -1.
         21    1    1    2  502  501 -0.84429911437E+01 -0.72096074563E+02  0.31350739996E+01  0.72656429556E+02  0.00000000000E+00 0. -1.
<scales pt_clust_5="13000.00000" pt_clust_6="13000.00000" pt_clust_7="13000.00000" pt_clust_8="13000.00000" pt_clust_9="72.58876"></scales>
<clustering>
<clus scale="   72.589">  2  9  1 -1</clus>
<clus scale="   80.550">  5  6 -1 -1</clus>
<clus scale="   93.937">  7  8 -1 -1</clus>
<clus scale="  136.489">  1  5  2 -1</clus>
<clus scale="   72.589">  2  5  1 -1</clus>
</clustering>
</event>
<event>
 9    1  0.2674825E-005  0.9658352E+02  0.7546771E-02  0.1306795E+00
          1   -1    0    0  502    0  0.00000000000E+00  0.00000000000E+00  0.52871032021E+02  0.52871032021E+02  0.00000000000E+00 0. -1.
         -2   -1    0    0    0  501 -0.00000000000E+00 -0.00000000000E+00 -0.35989419008E+03  0.35989419008E+03  0.00000000000E+00 0.  1.
        -24    2    1    2    0    0 -0.16571432766E+02 -0.18521029722E+02 -0.24409627369E+03  0.25305408091E+03  0.61933319882E+02 0.  0.
         23    2    1    2    0    0  0.41299364936E+02  0.18597575926E+02 -0.79301355246E+02  0.13005309362E+03  0.92593708441E+02 0.  0.
         13    1    3    3    0    0 -0.34347256223E+02  0.61950809904E+01 -0.10441878477E+03  0.11009721001E+03  0.00000000000E+00 0. -1.
        -14    1    3    3    0    0  0.17775823456E+02 -0.24716110712E+02 -0.13967748892E+03  0.14295687090E+03  0.00000000000E+00 0.  1.
        -13    1    4    4    0    0  0.66511451039E+02  0.20780152678E+02 -0.32588663297E+02  0.76925995867E+02  0.00000000000E+00 0. -1.
         13    1    4    4    0    0 -0.25212086103E+02 -0.21825767525E+01 -0.46712691949E+02  0.53127097756E+02  0.00000000000E+00 0.  1.
         21    1    1    2  502  501 -0.24727932170E+02 -0.76546203490E-01  0.16374470877E+02  0.29658047563E+02  0.00000000000E+00 0. -1.
<scales pt_clust_5="13000.00000" pt_clust_6="13000.00000" pt_clust_7="13000.00000" pt_clust_8="13000.00000" pt_clust_9="24.72805"></scales>
<clustering>
<clus scale="   24.728">  1  9  2 -1</clus>
<clus scale="   61.933">  5  6 -1 -1</clus>
<clus scale="   67.753">  2  5  1 -1</clus>
<clus scale="   92.594">  7  8 -1 -1</clus>
<clus scale="   24.728">  1  5  2 -1</clus>
</clustering>
</event>
<event>
 9    1  0.2674825E-005  0.9407810E+02  0.7546771E-02  0.1298068E+00
         -2   -1    0    0    0  501 -0.00000000000E+00  0.00000000000E+00  0.38776896814E+03  0.38776896814E+03  0.00000000000E+00 0.  1.
          1   -1    0    0  502    0  0.00000000000E+00 -0.00000000000E+00 -0.64488789147E+02  0.64488789147E+02  0.00000000000E+00 0. -1.
        -24    2    1    2    0    0 -0.14868313852E+02  0.89298365527E+01  0.31381484604E+03  0.32780124311E+03  0.93129418829E+02 0.  0.
         23    2    1    2    0    0  0.17023100259E+01  0.22718125439E+02  0.16276728848E+02  0.89508949619E+02  0.85017110495E+02 0.  0.
         11    1    3    3    0    0 -0.63690107350E+00  0.30211095078E+02  0.29145612217E+02  0.41983123041E+02  0.00000000000E+00 0. -1.
        -12    1    3    3    0    0 -0.14231412779E+02 -0.21281258525E+02  0.28466923382E+03  0.28581812007E+03  0.00000000000E+00 0.  1.
        -11    1    4    4    0    0 -0.13562753996E+02  0.51176185996E+02  0.20835143999E+02  0.56895109935E+02  0.00000000000E+00 0.  1.
         11    1    4    4    0    0  0.15265064022E+02 -0.28458060557E+02 -0.45584151508E+01  0.32613839684E+02  0.00000000000E+00 0. -1.
         21    1    1    2  502  501  0.13166003826E+02 -0.31647961992E+02 -0.68113958905E+01  0.34947564564E+02  0.00000000000E+00 0. -1.
<scales pt_clust_5="13000.00000" pt_clust_6="13000.00000" pt_clust_7="13000.00000" pt_clust_8="13000.00000" pt_clust_9="34.27736"></scales>
<clustering>
<clus scale="   34.277">  2  9  1 -1</clus>
<clus scale="   85.017">  7  8 -1 -1</clus>
<clus scale="   86.055">  2  7  1 -1</clus>
<clus scale="   93.129">  5  6 -1 -1</clus>
<clus scale="   34.277">  2  5  1 -1</clus>
</clustering>
</event>
<event>
 9    1  0.2674825E-005  0.1304877E+03  0.7546771E-02  0.1231559E+00
          1   -1    0    0  502    0  0.00000000000E+00  0.00000000000E+00  0.26295949979E+03  0.26295949979E+03  0.00000000000E+00 0. -1.
         -2   -1    0    0    0  501 -0.00000000000E+00 -0.00000000000E+00 -0.92293552424E+02  0.92293552424E+02  0.00000000000E+00 0.  1.
         23    2    1    2    0    0 -0.87032413096E+02  0.35906487646E+02  0.12803880369E+02  0.13379105990E+03  0.94192311644E+02 0.  0.
        -24    2    1    2    0    0  0.69205871222E+02 -0.57681491797E+02  0.15255465418E+03  0.19282451631E+03  0.76103642945E+02 0.  0.
         13    1    4    4    0    0  0.68139185806E+02 -0.67270609703E+02  0.96491094486E+02  0.13593680476E+03  0.00000000000E+00 0. -1.
        -14    1    4    4    0    0  0.10666854168E+01  0.95891179060E+01  0.56063559695E+02  0.56887711552E+02  0.00000000000E+00 0.  1.
        -11    1    3    3    0    0 -0.66438765592E+02 -0.23290140540E+02  0.42139388635E+01  0.70528699836E+02  0.00000000000E+00 0.  1.
         11    1    3    3    0    0 -0.20593647504E+02  0.59196628186E+02  0.85899415056E+01  0.63262360067E+02  0.00000000000E+00 0. -1.
         21    1    1    2  502  501  0.17826541873E+02  0.21775004151E+02  0.53074128125E+01  0.28637476001E+02  0.00000000000E+00 0. -1.
<scales pt_clust_5="13000.00000" pt_clust_6="13000.00000" pt_clust_7="13000.00000" pt_clust_8="13000.00000" pt_clust_9="28.14136"></scales>
<clustering>
<clus scale="   28.141">  2  9  1 -1</clus>
<clus scale="   76.104">  5  6 -1 -1</clus>
<clus scale="   94.192">  7  8 -1 -1</clus>
<clus scale="  118.096">  1  5  2 -1</clus>
<clus scale="  118.096">  1  5  2 -1</clus>
</clustering>
</event>
<event>
 9    1  0.2674825E-005  0.1037448E+03  0.7546771E-02  0.1279679E+00
          3   -1    0    0  502    0  0.00000000000E+00  0.00000000000E+00  0.22145125100E+03  0.22145125100E+03  0.00000000000E+00 0. -1.
         -4   -1    0    0    0  501 -0.00000000000E+00 -0.00000000000E+00 -0.10327653941E+03  0.10327653941E+03  0.00000000000E+00 0.  1.
        -24    2    1    2    0    0 -0.23125070827E+02  0.33615143714E+02 -0.53503898166E+02  0.10512735869E+03  0.80773433984E+02 0.  0.
         23    2    1    2    0    0  0.39124673837E+00 -0.50081299994E+02  0.14722268601E+03  0.18237069541E+03  0.95269415789E+02 0.  0.
         11    1    3    3    0    0  0.13362214411E+02 -0.16209060553E+02  0.32465393603E+01  0.21256115257E+02  0.00000000000E+00 0. -1.
        -12    1    3    3    0    0 -0.36487285238E+02  0.49824204267E+02 -0.56750437526E+02  0.83871243429E+02  0.00000000000E+00 0.  1.
        -13    1    4    4    0    0  0.45298591156E+02 -0.42073011458E+02  0.79285565329E+02  0.10054004935E+03  0.00000000000E+00 0. -1.
         13    1    4    4    0    0 -0.44907344417E+02 -0.80082885358E+01  0.67937120678E+02  0.81830646056E+02  0.00000000000E+00 0.  1.
         21    1    1    2  502  501  0.22733824089E+02  0.16466156280E+02  0.24455923746E+02  0.37229736322E+02  0.00000000000E+00 0.  1.
<scales pt_clust_5="13000.00000" pt_clust_6="13000.00000" pt_clust_7="13000.00000" pt_clust_8="13000.00000" pt_clust_9="28.07064"></scales>
<clustering>
<clus scale="   28.071">  1  9  2 -1</clus>
<clus scale="   80.773">  5  6 -1 -1</clus>
<clus scale="   90.615">  2  5  1 -1</clus>
<clus scale="   95.269">  7  8 -1 -1</clus>
<clus scale="   28.071">  1  5  2 -1</clus>
</clustering>
</event>
<event>
 9    1  0.2674825E-005  0.1086331E+03  0.7546771E-02  0.1267468E+00
          1   -1    0    0  502    0  0.00000000000E+00  0.00000000000E+00  0.11801154102E+03  0.11801154102E+03  0.00000000000E+00 0. -1.
         -2   -1    0    0    0  501 -0.00000000000E+00 -0.00000000000E+00 -0.15288422539E+03  0.15288422539E+03  0.00000000000E+00 0.  1.
         23    2    1    2    0    0  0.47276153678E+02 -0.47531776499E+02 -0.34383332786E+02  0.11519910672E+03  0.87145373555E+02 0.  0.
        -24    2    1    2    0    0 -0.70803983204E+02  0.65741974872E+01 -0.17596212378E+02  0.10545995272E+03  0.75866664797E+02 0.  0.
         11    1    4    4    0    0 -0.52037965781E+02 -0.17672346453E+02  0.18603946008E+02  0.58020414673E+02  0.00000000000E+00 0. -1.
        -12    1    4    4    0    0 -0.18766017423E+02  0.24246543940E+02 -0.36200158385E+02  0.47439538047E+02  0.00000000000E+00 0.  1.
        -13    1    3    3    0    0  0.40375867296E+02 -0.14152618316E+00  0.18015134779E+02  0.44212846218E+02  0.00000000000E+00 0. -1.
         13    1    3    3    0    0  0.69002863823E+01 -0.47390250316E+02 -0.52398467564E+02  0.70986260503E+02  0.00000000000E+00 0.  1.
         21    1    1    2  502  501  0.23527829526E+02  0.40957579012E+02  0.17106860798E+02  0.50236706969E+02  0.00000000000E+00 0.  1.
<scales pt_clust_5="13000.00000" pt_clust_6="13000.00000" pt_clust_7="13000.00000" pt_clust_8="13000.00000" pt_clust_9="47.23433"></scales>
<clustering>
<clus scale="   47.234">  1  9  2 -1</clus>
<clus scale="   75.867">  5  6 -1 -1</clus>
<clus scale="   87.145">  7  8 -1 -1</clus>
<clus scale="   99.813">  1  5  2 -1</clus>
<clus scale="   47.234">  1  5  2 -1</clus>
</clustering>
</event>
<event>
 9    1  0.2674825E-005  0.1008904E+03  0.7546771E-02  0.1283564E+00
         -2   -1    0    0    0  501 -0.00000000000E+00  0.00000000000E+00  0.13710902544E+03  0.13710902544E+03  0.00000000000E+00 0.  1.
          1   -1    0    0  502    0  0.00000000000E+00 -0.00000000000E+00 -0.96764734961E+02  0.96764734961E+02  0.00000000000E+00 0. -1.
         23    2    1    2    0    0  0.19040321105E+01 -0.54217874895E+02  0.56872528210E+02  0.12013655771E+03  0.90857606926E+02 0.  0.
        -24    2    1    2    0    0 -0.67723247410E+00  0.26890934414E+02 -0.16898192016E+02  0.86380236864E+02  0.80326928423E+02 0.  0.
         11    1    4    4    0    0  0.31792258553E+02  0.29741172879E+02 -0.28213553280E+02  0.51877641203E+02  0.00000000000E+00 0. -1.
        -12    1    4    4    0    0 -0.32469491027E+02 -0.28502384655E+01  0.11315361264E+02  0.34502595661E+02  0.00000000000E+00 0.  1.
        -11    1    3    3    0    0  0.21529637970E+02 -0.41159607279E+02  0.76476010462E+02  0.89477476265E+02  0.00000000000E+00 0.  1.
         11    1    3    3    0    0 -0.19625605860E+02 -0.13058267615E+02 -0.19603482252E+02  0.30659081442E+02  0.00000000000E+00 0. -1.
         21    1    1    2  502  501 -0.12267996364E+01  0.27326940481E+02  0.36995428797E+00  0.27356965833E+02  0.00000000000E+00 0. -1.
<scales pt_clust_5="13000.00000" pt_clust_6="13000.00000" pt_clust_7="13000.00000" pt_clust_8="13000.00000" pt_clust_9="27.35446"></scales>
<clustering>
<clus scale="   27.354">  2  9  1 -1</clus>
<clus scale="   80.327">  5  6 -1 -1</clus>
<clus scale="   90.858">  7  8 -1 -1</clus>
<clus scale="   91.522">  2  5  1 -1</clus>
<clus scale="   27.354">  2  5  1 -1</clus>
</clustering>
</event>
<event>
 9    1  0.2674825E-005  0.9307942E+02  0.7546771E-02  0.1301726E+00
          1   -1    0    0  502    0  0.00000000000E+00  0.00000000000E+00  0.50363684722E+03  0.50363684722E+03  0.00000000000E+00 0. -1.
         -2   -1    0    0    0  501 -0.00000000000E+00 -0.00000000000E+00 -0.31874440103E+02  0.31874440103E+02  0.00000000000E+00 0.  1.
         23    2    1    2    0    0  0.39608993050E+01 -0.24829577208E+02  0.87691116934E+02  0.12854458312E+03  0.90563686056E+02 0.  0.
        -24    2    1    2    0    0 -0.38571224174E+02 -0.45426145283E+01  0.25956049504E+03  0.27443920388E+03  0.80229990409E+02 0.  0.
         11    1    4    4    0    0  0.22218766344E+02 -0.73568056452E+01  0.37616922489E+02  0.44303826299E+02  0.00000000000E+00 0. -1.
        -12    1    4    4    0    0 -0.60789990518E+02  0.28141911169E+01  0.22194357255E+03  0.23013537758E+03  0.00000000000E+00 0.  1.
        -13    1    3    3    0    0 -0.19942817722E+01 -0.56564966550E+02  0.74743992716E+02  0.93756264045E+02  0.00000000000E+00 0. -1.
         13    1    3    3    0    0  0.59551810771E+01  0.31735389342E+02  0.12947124218E+02  0.34788319072E+02  0.00000000000E+00 0.  1.
         21    1    1    2  502  501  0.34610324869E+02  0.29372191736E+02  0.12451079514E+03  0.13252750033E+03  0.00000000000E+00 0.  1.
<scales pt_clust_5="13000.00000" pt_clust_6="13000.00000" pt_clust_7="13000.00000" pt_clust_8="13000.00000" pt_clust_9="45.39383"></scales>
<clustering>
<clus scale="   45.394">  1  9  2 -1</clus>
<clus scale="   80.230">  5  6 -1 -1</clus>
<clus scale="   83.059">  1  5  2 -1</clus>
<clus scale="   90.564">  7  8 -1 -1</clus>
<clus scale="   45.394">  1  5  2 -1</clus>
</clustering>
</event>
<event>
 9    1  0.2674825E-005  0.1077272E+03  0.7546771E-02  0.1268907E+00
          1   -1    0    0  502    0  0.00000000000E+00  0.00000000000E+00  0.50405208994E+03  0.50405208994E+03  0.00000000000E+00 0. -1.
         -2   -1    0    0    0  501 -0.00000000000E+00 -0.00000000000E+00 -0.53024765013E+02  0.53024765013E+02  0.00000000000E+00 0.  1.
         23    2    1    2    0    0 -0.21883612698E+02  0.50215581112E+02  0.22953911452E+02  0.10867847493E+03  0.91014459129E+02 0.  0.
        -24    2    1    2    0    0  0.27360638076E+02 -0.69718193743E+02  0.38920020537E+03  0.40456373603E+03  0.81152853245E+02 0.  0.
         11    1    4    4    0    0  0.52611912233E+02 -0.55793333339E+02  0.32891879091E+03  0.33774025577E+03  0.00000000000E+00 0. -1.
        -12    1    4    4    0    0 -0.25251274157E+02 -0.13924860405E+02  0.60281414465E+02  0.66823480257E+02  0.00000000000E+00 0.  1.
        -11    1    3    3    0    0 -0.52997749864E+01 -0.22617853828E+02 -0.12068335209E+02  0.26178228385E+02  0.00000000000E+00 0. -1.
         11    1    3    3    0    0 -0.16583837711E+02  0.72833434940E+02  0.35022246661E+02  0.82500246542E+02  0.00000000000E+00 0.  1.
         21    1    1    2  502  501 -0.54770253780E+01  0.19502612631E+02  0.38873208100E+02  0.43834643998E+02  0.00000000000E+00 0.  1.
<scales pt_clust_5="13000.00000" pt_clust_6="13000.00000" pt_clust_7="13000.00000" pt_clust_8="13000.00000" pt_clust_9="20.25709"></scales>
<clustering>
<clus scale="   20.257">  1  9  2 -1</clus>
<clus scale="   81.153">  5  6 -1 -1</clus>
<clus scale="   91.014">  7  8 -1 -1</clus>
<clus scale="   99.535">  1  5  2 -1</clus>
<clus scale="   20.257">  1  5  2 -1</clus>
</clustering>
</event>
<event>
 9    1  0.2674825E-005  0.1046430E+03  0.7546771E-02  0.1277361E+00
          1   -1    0    0  502    0  0.00000000000E+00  0.00000000000E+00  0.10782215034E+03  0.10782215034E+03  0.00000000000E+00 0. -1.
         -2   -1    0    0    0  501 -0.00000000000E+00 -0.00000000000E+00 -0.47988231068E+03  0.47988231068E+03  0.00000000000E+00 0.  1.
         23    2    1    2    0    0 -0.44467124542E+02  0.17260485586E+02 -0.40616894377E+03  0.41964571768E+03  0.94096057058E+02 0.  0.
        -24    2    1    2    0    0  0.30126649718E+01 -0.47695284588E+02  0.59542928565E+02  0.11068588437E+03  0.80137933182E+02 0.  0.
         13    1    4    4    0    0 -0.15560288372E+02 -0.54264533819E+02  0.68735965041E+02  0.88946023492E+02  0.00000000000E+00 0. -1.
        -14    1    4    4    0    0  0.18572953343E+02  0.65692492317E+01 -0.91930364766E+01  0.21739860879E+02  0.00000000000E+00 0.  1.
        -11    1    3    3    0    0 -0.26617302820E+02  0.56211900004E+02 -0.25928023871E+03  0.26663552032E+03  0.00000000000E+00 0.  1.
         11    1    3    3    0    0 -0.17849821722E+02 -0.38951414418E+02 -0.14688870507E+03  0.15301019736E+03  0.00000000000E+00 0. -1.
         21    1    1    2  502  501  0.41454459570E+02  0.30434799001E+02 -0.25434145133E+02  0.57372858977E+02  0.00000000000E+00 0.  1.
<scales pt_clust_5="13000.00000" pt_clust_6="13000.00000" pt_clust_7="13000.00000" pt_clust_8="13000.00000" pt_clust_9="51.42713"></scales>
<clustering>
<clus scale="   51.427">  1  9  2 -1</clus>
<clus scale="   80.138">  5  6 -1 -1</clus>
<clus scale="   92.294">  1  5  2 -1</clus>
<clus scale="   94.096">  7  8 -1 -1</clus>
<clus scale="   51.427">  1  5  2 -1</clus>
</clustering>
</event>
<event>
 9    1  0.2674825E-005  0.1538546E+03  0.7546771E-02  0.1213498E+00
          1   -1    0    0  502    0  0.00000000000E+00  0.00000000000E+00  0.79887332349E+03  0.79887332349E+03  0.00000000000E+00 0. -1.
         -2   -1    0    0    0  501 -0.00000000000E+00 -0.00000000000E+00 -0.15384414193E+03  0.15384414193E+03  0.00000000000E+00 0.  1.
        -24    2    1    2    0    0 -0.29801936639E+02  0.12293854682E+03 -0.80728111698E+02  0.16959603378E+03  0.79017371076E+02 0.  0.
         23    2    1    2    0    0 -0.10316789014E+02  0.49146984283E+02  0.38738265512E+03  0.40138809815E+03  0.92332126883E+02 0.  0.
         13    1    3    3    0    0 -0.26154100434E+02  0.72691638907E-02 -0.14934260982E+02  0.30117589104E+02  0.00000000000E+00 0. -1.
        -14    1    3    3    0    0 -0.36478362044E+01  0.12293127766E+03 -0.65793850716E+02  0.13947844467E+03  0.00000000000E+00 0.  1.
        -13    1    4    4    0    0 -0.42556984551E+02  0.56489146614E+02  0.23269251341E+03  0.24320346711E+03  0.00000000000E+00 0. -1.
         13    1    4    4    0    0  0.32240195537E+02 -0.73421623309E+01  0.15469014171E+03  0.15818463104E+03  0.00000000000E+00 0.  1.
         21    1    1    2  502  501  0.40118725653E+02 -0.17208553111E+03  0.33837463814E+03  0.38173333349E+03  0.00000000000E+00 0. -1.
<scales pt_clust_5="13000.00000" pt_clust_6="13000.00000" pt_clust_7="13000.00000" pt_clust_8="13000.00000" pt_clust_9="132.01323"></scales>
<clustering>
<clus scale="   79.017">  5  6 -1 -1</clus>
<clus scale="   92.332">  7  8 -1 -1</clus>
<clus scale="  105.105">  1  7  2 -1</clus>
<clus scale="  132.013">  1  9  2 -1</clus>
<clus scale="  105.105">  1  5  2 -1</clus>
</clustering>
</event>
<event>
 9    1  0.2674825E-005  0.2634276E+03  0.7546771E-02  0.1105101E+00
         -4   -1    0    0    0  501 -0.00000000000E+00  0.00000000000E+00  0.15810913429E+03  0.15810913429E+03  0.00000000000E+00 0.  1.
          3   -1    0    0  502    0  0.00000000000E+00 -0.00000000000E+00 -0.35796454849E+03  0.35796454849E+03  0.00000000000E+00 0. -1.
        -24    2    1    2    0    0  0.10352990748E+03  0.38760614679E+02  0.26048345027E+02  0.13958397144E+03  0.81143957340E+02 0.  0.
         23    2    1    2    0    0  0.72645398977E+02 -0.12993142631E+02 -0.47942399827E+02  0.12475185829E+03  0.88421585017E+02 0.  0.
         11    1    3    3    0    0  0.10842062736E+03  0.52801069114E+02  0.29858359124E+02  0.12423569111E+03  0.00000000000E+00 0. -1.
        -12    1    3    3    0    0 -0.48907198819E+01 -0.14040454435E+02 -0.38100140970E+01  0.15348280331E+02  0.00000000000E+00 0.  1.
        -11    1    4    4    0    0  0.12013560162E+02  0.34836302728E+02 -0.23687723328E+02  0.43806413366E+02  0.00000000000E+00 0.  1.
         11    1    4    4    0    0  0.60631838815E+02 -0.47829445359E+02 -0.24254676500E+02  0.80945444922E+02  0.00000000000E+00 0. -1.
         21    1    1    2  502  501 -0.17617530645E+03 -0.25767472047E+02 -0.17796135940E+03  0.25173785305E+03  0.00000000000E+00 0.  1.
<scales pt_clust_5="13000.00000" pt_clust_6="13000.00000" pt_clust_7="13000.00000" pt_clust_8="13000.00000" pt_clust_9="178.04972"></scales>
<clustering>
<clus scale="   81.144">  5  6 -1 -1</clus>
<clus scale="   88.422">  7  8 -1 -1</clus>
<clus scale="  110.711">  5  7 -1 -1</clus>
<clus scale="  178.050">  2  9  1 -1</clus>
<clus scale="  178.050">  2  5  1 -1</clus>
</clustering>
</event>
<event>
 9    1  0.2674825E-005  0.1152618E+03  0.7546771E-02  0.1258453E+00
          1   -1    0    0  502    0  0.00000000000E+00  0.00000000000E+00  0.14453397304E+03  0.14453397304E+03  0.00000000000E+00 0. -1.
         -2   -1    0    0    0  501 -0.00000000000E+00 -0.00000000000E+00 -0.11403058207E+03  0.11403058207E+03  0.00000000000E+00 0.  1.
        -24    2    1    2    0    0  0.42835444355E+02 -0.52157451926E+02 -0.38530789860E+02  0.11061724214E+03  0.78716436698E+02 0.  0.
         23    2    1    2    0    0 -0.24937597574E+02  0.38966685780E+02  0.52114518451E+02  0.12000801795E+03  0.97702174824E+02 0.  0.
         13    1    3    3    0    0 -0.79428043695E+01 -0.24174696773E+02  0.16785623186E+02  0.30483786691E+02  0.00000000000E+00 0. -1.
        -14    1    3    3    0    0  0.50778248725E+02 -0.27982755154E+02 -0.55316413046E+02  0.80133455447E+02  0.00000000000E+00 0.  1.
        -13    1    4    4    0    0  0.35318072471E+02 -0.13413277636E+01  0.13191496999E+02  0.37725071191E+02  0.00000000000E+00 0.  1.
         13    1    4    4    0    0 -0.60255670045E+02  0.40308013544E+02  0.38923021452E+02  0.82282946759E+02  0.00000000000E+00 0. -1.
         21    1    1    2  502  501 -0.17897846782E+02  0.13190766146E+02  0.16919662386E+02  0.27939295020E+02  0.00000000000E+00 0.  1.
<scales pt_clust_5="13000.00000" pt_clust_6="13000.00000" pt_clust_7="13000.00000" pt_clust_8="13000.00000" pt_clust_9="22.23352"></scales>
<clustering>
<clus scale="   22.234">  1  9  2 -1</clus>
<clus scale="   78.716">  5  6 -1 -1</clus>
<clus scale="   97.702">  7  8 -1 -1</clus>
<clus scale="   99.679">  2  5  1 -1</clus>
<clus scale="   22.234">  1  5  2 -1</clus>
</clustering>
</event>
<event>
 9    1  0.2674825E-005  0.1082584E+03  0.7546771E-02  0.1269504E+00
          1   -1    0    0  502    0  0.00000000000E+00  0.00000000000E+00  0.20693654258E+02  0.20693654258E+02  0.00000000000E+00 0. -1.
         -2   -1    0    0    0  501 -0.00000000000E+00 -0.00000000000E+00 -0.11287707119E+04  0.11287707119E+04  0.00000000000E+00 0.  1.
        -24    2    1    2    0    0  0.28276907710E+02 -0.95042837692E+02 -0.50010182347E+03  0.51626004418E+03  0.81178044286E+02 0.  0.
         23    2    1    2    0    0 -0.16828077052E+02  0.23454499460E+02 -0.26840226703E+03  0.28597850798E+03  0.94396145867E+02 0.  0.
         11    1    3    3    0    0  0.94286208319E+00 -0.81615771157E+02 -0.45212858731E+03  0.45943691901E+03  0.00000000000E+00 0. -1.
        -12    1    3    3    0    0  0.27334045627E+02 -0.13427066535E+02 -0.47973236157E+02  0.56823125165E+02  0.00000000000E+00 0.  1.
        -13    1    4    4    0    0 -0.16853988853E+02 -0.34229056966E+02 -0.74844997901E+02  0.84008684026E+02  0.00000000000E+00 0. -1.
         13    1    4    4    0    0  0.25911800482E-01  0.57683556425E+02 -0.19355726913E+03  0.20196982395E+03  0.00000000000E+00 0.  1.
         21    1    1    2  502  501 -0.11448830658E+02  0.71588338232E+02 -0.33957296710E+03  0.34722581396E+03  0.00000000000E+00 0.  1.
<scales pt_clust_5="13000.00000" pt_clust_6="13000.00000" pt_clust_7="13000.00000" pt_clust_8="13000.00000" pt_clust_9="72.49804"></scales>
<clustering>
<clus scale="   72.498">  2  9  1 -1</clus>
<clus scale="   81.178">  5  6 -1 -1</clus>
<clus scale="   94.396">  7  8 -1 -1</clus>
<clus scale="   96.949">  2  5  1 -1</clus>
<clus scale="  108.258">  1  5  2 -1</clus>
</clustering>
</event>
<event>
 9    1  0.2674825E-005  0.1275746E+03  0.7546771E-02  0.1233883E+00
          3   -1    0    0  502    0  0.00000000000E+00  0.00000000000E+00  0.14187412331E+03  0.14187412331E+03  0.00000000000E+00 0. -1.
         -4   -1    0    0    0  501 -0.00000000000E+00 -0.00000000000E+00 -0.15896284991E+03  0.15896284991E+03  0.00000000000E+00 0.  1.
         23    2    1    2    0    0  0.66167553426E+02 -0.69892606039E+02 -0.61778091914E+02  0.14572510200E+03  0.90311412384E+02 0.  0.
        -24    2    1    2    0    0 -0.67607974966E+02  0.46312859002E+02  0.12503127632E+02  0.11518652612E+03  0.79974298446E+02 0.  0.
         11    1    4    4    0    0 -0.19986719103E+02  0.74429282310E+01  0.41924567287E+02  0.47037596275E+02  0.00000000000E+00 0. -1.
        -12    1    4    4    0    0 -0.47621255863E+02  0.38869930770E+02 -0.29421439655E+02  0.68148929848E+02  0.00000000000E+00 0.  1.
        -13    1    3    3    0    0  0.33007431790E+02  0.12021513345E+02  0.42865514509E+01  0.35389007613E+02  0.00000000000E+00 0. -1.
         13    1    3    3    0    0  0.33160121636E+02 -0.81914119384E+02 -0.66064643365E+02  0.11033609439E+03  0.00000000000E+00 0.  1.
         21    1    1    2  502  501  0.14404215395E+01  0.23579747037E+02  0.32186237690E+02  0.39925345098E+02  0.00000000000E+00 0. -1.
<scales pt_clust_5="13000.00000" pt_clust_6="13000.00000" pt_clust_7="13000.00000" pt_clust_8="13000.00000" pt_clust_9="23.62370"></scales>
<clustering>
<clus scale="   23.624">  1  9  2 -1</clus>
<clus scale="   79.974">  5  6 -1 -1</clus>
<clus scale="   90.311">  7  8 -1 -1</clus>
<clus scale="  120.478">  1  5  2 -1</clus>
<clus scale="   23.624">  1  5  2 -1</clus>
</clustering>
</event>
<event>
 9    1  0.2674825E-005  0.1100138E+03  0.7546771E-02  0.1263921E+00
         -2   -1    0    0    0  501 -0.00000000000E+00  0.00000000000E+00  0.12226842113E+03  0.12226842113E+03  0.00000000000E+00 0.  1.
          1   -1    0    0  502    0  0.00000000000E+00 -0.00000000000E+00 -0.30170156515E+03  0.30170156515E+03  0.00000000000E+00 0. -1.
         23    2    1    2    0    0  0.21302962132E+02 -0.50369808623E+02  0.53694029223E+02  0.11866112645E+03  0.90589626009E+02 0.  0.
        -24    2    1    2    0    0 -0.21052928621E+02  0.85999301859E+02 -0.72378309178E+02  0.14065856191E+03  0.81896921035E+02 0.  0.
         13    1    4    4    0    0 -0.36375603193E+02  0.38783840407E+02 -0.73845418461E+02  0.90997343984E+02  0.00000000000E+00 0. -1.
        -14    1    4    4    0    0  0.15322674572E+02  0.47215461453E+02  0.14671092830E+01  0.49661217926E+02  0.00000000000E+00 0.  1.
        -13    1    3    3    0    0  0.50636084391E+02 -0.10212573680E+02  0.44304347919E+02  0.68052809994E+02  0.00000000000E+00 0. -1.
         13    1    3    3    0    0 -0.29333122259E+02 -0.40157234943E+02  0.93896813035E+01  0.50608316458E+02  0.00000000000E+00 0.  1.
         21    1    1    2  502  501 -0.25003351131E+00 -0.35629493236E+02 -0.16074886407E+03  0.16465029792E+03  0.00000000000E+00 0. -1.
<scales pt_clust_5="13000.00000" pt_clust_6="13000.00000" pt_clust_7="13000.00000" pt_clust_8="13000.00000" pt_clust_9="35.63037"></scales>
<clustering>
<clus scale="   35.630">  2  9  1 -1</clus>
<clus scale="   81.897">  5  6 -1 -1</clus>
<clus scale="   90.590">  7  8 -1 -1</clus>
<clus scale="  102.974">  2  5  1 -1</clus>
<clus scale="   35.630">  2  5  1 -1</clus>
</clustering>
</event>
<event>
 9    1  0.2674825E-005  0.1522376E+03  0.7546771E-02  0.1199356E+00
         -2   -1    0    0    0  501 -0.00000000000E+00  0.00000000000E+00  0.24296088054E+03  0.24296088054E+03  0.00000000000E+00 0.  1.
          1   -1    0    0  502    0  0.00000000000E+00 -0.00000000000E+00 -0.17913082584E+03  0.17913082584E+03  0.00000000000E+00 0. -1.
        -24    2    1    2    0    0  0.57990712478E+01  0.12471387440E+03  0.15190236671E+03  0.21382860424E+03  0.84030728204E+02 0.  0.
         23    2    1    2    0    0  0.32416570522E+02 -0.10441539537E+03 -0.79965644024E+02  0.16423831830E+03  0.92877942147E+02 0.  0.
         11    1    3    3    0    0  0.35206092667E+02  0.54769052936E+02  0.33553465023E+02  0.73245840397E+02  0.00000000000E+00 0. -1.
        -12    1    3    3    0    0 -0.29407021419E+02  0.69944821468E+02  0.11834890169E+03  0.14058276384E+03  0.00000000000E+00 0.  1.
        -13    1    4    4    0    0  0.37459741548E+02 -0.14155157715E+01 -0.36526241691E+02  0.52339299325E+02  0.00000000000E+00 0.  1.
         13    1    4    4    0    0 -0.50431710257E+01 -0.10299987960E+03 -0.43439402333E+02  0.11189901897E+03  0.00000000000E+00 0. -1.
         21    1    1    2  502  501 -0.38215641770E+02 -0.20298479032E+02 -0.81066679851E+01  0.44024783846E+02  0.00000000000E+00 0. -1.
<scales pt_clust_5="13000.00000" pt_clust_6="13000.00000" pt_clust_7="13000.00000" pt_clust_8="13000.00000" pt_clust_9="43.27197"></scales>
<clustering>
<clus scale="   43.272">  2  9  1 -1</clus>
<clus scale="   84.031">  5  6 -1 -1</clus>
<clus scale="   92.878">  7  8 -1 -1</clus>
<clus scale="  147.007">  1  5  2 -1</clus>
<clus scale="   43.272">  2  5  1 -1</clus>
</clustering>
</event>
<event>
 9    1  0.2674825E-005  0.1512267E+03  0.7546771E-02  0.1200884E+00
          1   -1    0    0  502    0  0.00000000000E+00  0.00000000000E+00  0.72970555289E+03  0.72970555289E+03  0.00000000000E+00 0. -1.
         -2   -1    0    0    0  501 -0.00000000000E+00 -0.00000000000E+00 -0.70880477445E+02  0.70880477445E+02  0.00000000000E+00 0.  1.
        -24    2    1    2    0    0 -0.61975522681E+02 -0.11637274282E+03  0.43737084652E+02  0.16029005561E+03  0.79977426007E+02 0.  0.
         23    2    1    2    0    0  0.51826645499E+02  0.60316982653E+02  0.39898726250E+03  0.41681270303E+03  0.90652381070E+02 0.  0.
         13    1    3    3    0    0  0.14426644423E+02 -0.22796101331E+02  0.27284538670E+02  0.38369732285E+02  0.00000000000E+00 0. -1.
        -14    1    3    3    0    0 -0.76402167104E+02 -0.93576641490E+02  0.16452545982E+02  0.12192032333E+03  0.00000000000E+00 0.  1.
        -13    1    4    4    0    0 -0.25675595102E+02  0.99930711075E+01  0.11071808739E+03  0.11409466477E+03  0.00000000000E+00 0.  1.
         13    1    4    4    0    0  0.77502240601E+02  0.50323911545E+02  0.28826917511E+03  0.30271803827E+03  0.00000000000E+00 0. -1.
         21    1    1    2  502  501  0.10148877181E+02  0.56055760169E+02  0.21610072830E+03  0.22348327169E+03  0.00000000000E+00 0. -1.
<scales pt_clust_5="13000.00000" pt_clust_6="13000.00000" pt_clust_7="13000.00000" pt_clust_8="13000.00000" pt_clust_9="56.96708"></scales>
<clustering>
<clus scale="   56.967">  1  9  2 -1</clus>
<clus scale="   79.977">  5  6 -1 -1</clus>
<clus scale="   90.652">  7  8 -1 -1</clus>
<clus scale="  145.079">  2  5  1 -1</clus>
<clus scale="   56.967">  1  5  2 -1</clus>
</clustering>
</event>
<event>
 9    1  0.2674825E-005  0.2895583E+03  0.7546771E-02  0.1091016E+00
         -2   -1    0    0    0  501 -0.00000000000E+00  0.00000000000E+00  0.33488271572E+03  0.33488271572E+03  0.00000000000E+00 0.  1.
          1   -1    0    0  502    0  0.00000000000E+00 -0.00000000000E+00 -0.89366099630E+03  0.89366099630E+03  0.00000000000E+00 0. -1.
         23    2    1    2    0    0 -0.25444451742E+03 -0.83357501468E+02  0.19674253006E+03  0.34413448460E+03  0.89612693623E+02 0.  0.
        -24    2    1    2    0    0  0.33964483793E+03  0.28816477539E+02 -0.50542485439E+03  0.61462819540E+03  0.78259375351E+02 0.  0.
         13    1    4    4    0    0  0.33017800116E+03  0.21061171754E+02 -0.45397115083E+03  0.56173916651E+03  0.00000000000E+00 0. -1.
        -14    1    4    4    0    0  0.94668367680E+01  0.77553057841E+01 -0.51453703567E+02  0.52889028890E+02  0.00000000000E+00 0.  1.
        -13    1    3    3    0    0 -0.86490497096E+02  0.11975573550E+02  0.80276496255E+02  0.11861001771E+03  0.00000000000E+00 0.  1.
         13    1    3    3    0    0 -0.16795402032E+03 -0.95333075017E+02  0.11646603381E+03  0.22552446689E+03  0.00000000000E+00 0. -1.
         21    1    1    2  502  501 -0.85200320509E+02  0.54541023929E+02 -0.25009595624E+03  0.26978103202E+03  0.00000000000E+00 0. -1.
<scales pt_clust_5="13000.00000" pt_clust_6="13000.00000" pt_clust_7="13000.00000" pt_clust_8="13000.00000" pt_clust_9="101.16233"></scales>
<clustering>
<clus scale="   78.259">  5  6 -1 -1</clus>
<clus scale="   89.613">  7  8 -1 -1</clus>
<clus scale="  101.162">  2  9  1 -1</clus>
<clus scale="  286.248">  2  5  1 -1</clus>
<clus scale="  101.162">  2  5  1 -1</clus>
</clustering>
</event>
<event>
 9    1  0.2674825E-005  0.9736858E+02  0.7546771E-02  0.1292386E+00
         -2   -1    0    0    0  501 -0.00000000000E+00  0.00000000000E+00  0.36808443028E+03  0.36808443028E+03  0.00000000000E+00 0.  1.
          1   -1    0    0  502    0  0.00000000000E+00 -0.00000000000E+00 -0.15030542843E+03  0.15030542843E+03  0.00000000000E+00 0. -1.
        -24    2    1    2    0    0  0.29550452725E+02  0.15224084073E+02  0.33986101267E+03  0.35071680391E+03  0.79948524806E+02 0.  0.
         23    2    1    2    0    0 -0.12618014718E+02 -0.33302663630E+01 -0.10932551013E+03  0.14336464749E+03  0.91820749363E+02 0.  0.
         13    1    3    3    0    0  0.19569789333E+01 -0.20443909506E+02  0.23719150310E+02  0.31374851296E+02  0.00000000000E+00 0. -1.
        -14    1    3    3    0    0  0.27593473792E+02  0.35667993578E+02  0.31614186236E+03  0.31934195262E+03  0.00000000000E+00 0.  1.
        -11    1    4    4    0    0 -0.45911414858E+02 -0.24439240324E+02 -0.50077939441E+02  0.72200654432E+02  0.00000000000E+00 0. -1.
         11    1    4    4    0    0  0.33293400139E+02  0.21108973961E+02 -0.59247570691E+02  0.71163993054E+02  0.00000000000E+00 0.  1.
         21    1    1    2  502  501 -0.16932438007E+02 -0.11893817710E+02 -0.12756500692E+02  0.24308407321E+02  0.00000000000E+00 0. -1.
<scales pt_clust_5="13000.00000" pt_clust_6="13000.00000" pt_clust_7="13000.00000" pt_clust_8="13000.00000" pt_clust_9="20.69228"></scales>
<clustering>
<clus scale="   20.692">  2  9  1 -1</clus>
<clus scale="   79.949">  5  6 -1 -1</clus>
<clus scale="   86.263">  1  5  2 -1</clus>
<clus scale="   91.821">  7  8 -1 -1</clus>
<clus scale="   20.692">  2  5  1 -1</clus>
</clustering>
</event>
<event>
 9    1  0.2674825E-005  0.1400035E+03  0.7546771E-02  0.1232376E+00
          1   -1    0    0  502    0  0.00000000000E+00  0.00000000000E+00  0.58422690541E+03  0.58422690541E+03  0.00000000000E+00 0. -1.
         -2   -1    0    0    0  501 -0.00000000000E+00 -0.00000000000E+00 -0.11238422338E+03  0.11238422338E+03  0.00000000000E+00 0.  1.
        -24    2    1    2    0    0  0.28339567541E+02  0.38083078971E+02 -0.57047718932E+02  0.10997545524E+03  0.81158527145E+02 0.  0.
         23    2    1    2    0    0  0.85857721610E+02 -0.59179327312E+02  0.30395688478E+03  0.33349310650E+03  0.89185890931E+02 0.  0.
         13    1    3    3    0    0  0.45502408387E+02 -0.54349400451E+01 -0.37745964081E+02  0.59369735949E+02  0.00000000000E+00 0. -1.
        -14    1    3    3    0    0 -0.17162840846E+02  0.43518019016E+02 -0.19301754851E+02  0.50605719294E+02  0.00000000000E+00 0.  1.
        -13    1    4    4    0    0  0.45376751272E+02 -0.63273851348E+02  0.26837467194E+03  0.27944157594E+03  0.00000000000E+00 0. -1.
         13    1    4    4    0    0  0.40480970339E+02  0.40945240358E+01  0.35582212831E+02  0.54051530566E+02  0.00000000000E+00 0.  1.
         21    1    1    2  502  501 -0.11419728915E+03  0.21096248342E+02  0.22493351619E+03  0.25314256704E+03  0.00000000000E+00 0.  1.
<scales pt_clust_5="13000.00000" pt_clust_6="13000.00000" pt_clust_7="13000.00000" pt_clust_8="13000.00000" pt_clust_9="107.92062"></scales>
<clustering>
<clus scale="   81.159">  5  6 -1 -1</clus>
<clus scale="   89.186">  7  8 -1 -1</clus>
<clus scale="   94.022">  2  5  1 -1</clus>
<clus scale="  107.921">  2  9  1 -1</clus>
<clus scale="  140.004">  1  5  2 -1</clus>
</clustering>
</event>
<event>
 9    1  0.2674825E-005  0.9213060E+02  0.7546771E-02  0.1304783E+00
         -2   -1    0    0    0  501 -0.00000000000E+00  0.00000000000E+00  0.54899697078E+02  0.54899697078E+02  0.00000000000E+00 0.  1.
          1   -1    0    0  502    0  0.00000000000E+00 -0.00000000000E+00 -0.42987467041E+03  0.42987467041E+03  0.00000000000E+00 0. -1.
         23    2    1    2    0    0  0.10137697121E+02  0.33241342461E+02 -0.11524437227E+02  0.97977323292E+02  0.90878949568E+02 0.  0.
        -24    2    1    2    0    0  0.87104091285E+01 -0.11333553015E+02 -0.34030077418E+03  0.34976849001E+03  0.79555383537E+02 0.  0.
         11    1    4    4    0    0 -0.28453757739E+02  0.64779445178E+01 -0.63102661213E+02  0.69523563968E+02  0.00000000000E+00 0. -1.
        -12    1    4    4    0    0  0.37164166868E+02 -0.17811497533E+02 -0.27719811297E+03  0.28024492605E+03  0.00000000000E+00 0.  1.
        -11    1    3    3    0    0 -0.36568912230E+02  0.17799987140E+02 -0.24003883277E+02  0.47226171729E+02  0.00000000000E+00 0. -1.
         11    1    3    3    0    0  0.46706609351E+02  0.15441355321E+02  0.12479446050E+02  0.50751151563E+02  0.00000000000E+00 0.  1.
         21    1    1    2  502  501 -0.18848106250E+02 -0.21907789445E+02 -0.23149761931E+02  0.37028554185E+02  0.00000000000E+00 0. -1.
<scales pt_clust_5="13000.00000" pt_clust_6="13000.00000" pt_clust_7="13000.00000" pt_clust_8="13000.00000" pt_clust_9="28.89987"></scales>
<clustering>
<clus scale="   28.900">  1  9  2 -1</clus>
<clus scale="   79.555">  5  6 -1 -1</clus>
<clus scale="   80.982">  2  5  1 -1</clus>
<clus scale="   90.879">  7  8 -1 -1</clus>
<clus scale="   80.982">  2  5  1 -1</clus>
</clustering>
</event>
<event>
 9    1  0.2674825E-005  0.1772676E+03  0.7546771E-02  0.1171523E+00
          1   -1    0    0  502    0  0.00000000000E+00  0.00000000000E+00  0.81558363587E+03  0.81558363587E+03  0.00000000000E+00 0. -1.
         -2   -1    0    0    0  501 -0.00000000000E+00 -0.00000000000E+00 -0.20528917930E+03  0.20528917930E+03  0.00000000000E+00 0.  1.
         23    2    1    2    0    0 -0.96294929001E+02 -0.12010071285E+03 -0.15314734626E+03  0.23479638484E+03  0.89321543246E+02 0.  0.
        -24    2    1    2    0    0  0.74256005389E+02  0.12035215902E+03  0.62334372079E+03  0.64425524019E+03  0.80677281491E+02 0.  0.
         13    1    4    4    0    0  0.76599479957E+02  0.11621908215E+03  0.45430726755E+03  0.47515202697E+03  0.00000000000E+00 0. -1.
        -14    1    4    4    0    0 -0.23434745679E+01  0.41330768674E+01  0.16903645324E+03  0.16910321322E+03  0.00000000000E+00 0.  1.
        -11    1    3    3    0    0 -0.99749608245E+02 -0.99779980072E+02 -0.87569818920E+02  0.16605571943E+03  0.00000000000E+00 0.  1.
         11    1    3    3    0    0  0.34546792435E+01 -0.20320732780E+02 -0.65577527341E+02  0.68740665414E+02  0.00000000000E+00 0. -1.
         21    1    1    2  502  501  0.22038923612E+02 -0.25144616694E+00  0.14009808204E+03  0.14182119013E+03  0.00000000000E+00 0. -1.
<scales pt_clust_5="13000.00000" pt_clust_6="13000.00000" pt_clust_7="13000.00000" pt_clust_8="13000.00000" pt_clust_9="22.04036"></scales>
<clustering>
<clus scale="   22.040">  1  9  2 -1</clus>
<clus scale="   80.677">  5  6 -1 -1</clus>
<clus scale="   89.322">  7  8 -1 -1</clus>
<clus scale="  173.073">  1  5  2 -1</clus>
<clus scale="   22.040">  1  5  2 -1</clus>
</clustering>
</event>
<event>
 9    1  0.2674825E-005  0.1607200E+03  0.7546771E-02  0.1189884E+00
         -2   -1    0    0    0  501 -0.00000000000E+00  0.00000000000E+00  0.32907323714E+03  0.32907323714E+03  0.00000000000E+00 0.  1.
          1   -1    0    0  502    0  0.00000000000E+00 -0.00000000000E+00 -0.11533384692E+03  0.11533384692E+03  0.00000000000E+00 0. -1.
         23    2    1    2    0    0 -0.11633052202E+03 -0.42662136991E+02  0.17969761142E+03  0.23751985746E+03  0.93656835576E+02 0.  0.
        -24    2    1    2    0    0  0.13176225026E+03  0.59740068947E+02  0.55999804623E+02  0.17507608242E+03  0.81151032567E+02 0.  0.
         11    1    4    4    0    0  0.43980492482E+02  0.52796611549E+02 -0.34972325738E+01  0.68804044545E+02  0.00000000000E+00 0. -1.
        -12    1    4    4    0    0  0.87781757774E+02  0.69434573979E+01  0.59497037197E+02  0.10627203787E+03  0.00000000000E+00 0.  1.
        -11    1    3    3    0    0 -0.10606924382E+03  0.37105746331E+01  0.13958835055E+03  0.17535495561E+03  0.00000000000E+00 0.  1.
         11    1    3    3    0    0 -0.10261278198E+02 -0.46372711624E+02  0.40109260872E+02  0.62164901845E+02  0.00000000000E+00 0. -1.
         21    1    1    2  502  501 -0.15431728234E+02 -0.17077931956E+02 -0.21958025826E+02  0.31811144185E+02  0.00000000000E+00 0.  1.
<scales pt_clust_5="13000.00000" pt_clust_6="13000.00000" pt_clust_7="13000.00000" pt_clust_8="13000.00000" pt_clust_9="23.01725"></scales>
<clustering>
<clus scale="   23.017">  2  9  1 -1</clus>
<clus scale="   81.151">  5  6 -1 -1</clus>
<clus scale="   93.657">  7  8 -1 -1</clus>
<clus scale="  153.769">  2  5  1 -1</clus>
<clus scale="   23.017">  2  5  1 -1</clus>
</clustering>
</event>
<event>
 9    1  0.2674825E-005  0.1025162E+03  0.7546771E-02  0.1280073E+00
         -2   -1    0    0    0  501 -0.00000000000E+00  0.00000000000E+00  0.82053196805E+02  0.82053196805E+02  0.00000000000E+00 0.  1.
          1   -1    0    0  502    0  0.00000000000E+00 -0.00000000000E+00 -0.29465542459E+03  0.29465542459E+03  0.00000000000E+00 0. -1.
        -24    2    1    2    0    0 -0.11215922608E+02  0.14529812839E+02  0.25180351152E+02  0.86147621182E+02  0.80314694609E+02 0.  0.
         23    2    1    2    0    0  0.28712695238E+02 -0.44835902930E+02 -0.23236864986E+03  0.25515045408E+03  0.90949918740E+02 0.  0.
         13    1    3    3    0    0  0.30484327557E+02 -0.12140301449E+02  0.82661264571E+01  0.33837996284E+02  0.00000000000E+00 0. -1.
        -14    1    3    3    0    0 -0.41700250166E+02  0.26670114287E+02  0.16914224695E+02  0.52309624898E+02  0.00000000000E+00 0.  1.
        -13    1    4    4    0    0  0.60545496533E+02 -0.40843499030E+02 -0.15278091078E+03  0.16933976279E+03  0.00000000000E+00 0. -1.
         13    1    4    4    0    0 -0.31832801295E+02 -0.39924039006E+01 -0.79587739083E+02  0.85810691289E+02  0.00000000000E+00 0.  1.
         21    1    1    2  502  501 -0.17496772630E+02  0.30306090092E+02 -0.54139290703E+01  0.35410546128E+02  0.00000000000E+00 0.  1.
<scales pt_clust_5="13000.00000" pt_clust_6="13000.00000" pt_clust_7="13000.00000" pt_clust_8="13000.00000" pt_clust_9="34.99423"></scales>
<clustering>
<clus scale="   34.994">  1  9  2 -1</clus>
<clus scale="   80.315">  5  6 -1 -1</clus>
<clus scale="   90.950">  7  8 -1 -1</clus>
<clus scale="   93.210">  1  5  2 -1</clus>
<clus scale="  102.516">  2  5  1 -1</clus>
</clustering>
</event>
<event>
 9    1  0.2674825E-005  0.9537376E+02  0.7546771E-02  0.1300800E+00
          1   -1    0    0  502    0  0.00000000000E+00  0.00000000000E+00  0.16184228135E+03  0.16184228135E+03  0.00000000000E+00 0. -1.
         -2   -1    0    0    0  501 -0.00000000000E+00 -0.00000000000E+00 -0.27820283020E+03  0.27820283020E+03  0.00000000000E+00 0.  1.
         23    2    1    2    0    0 -0.29633247808E+02 -0.98359619380E+01 -0.25052878011E+03  0.26816747372E+03  0.90411552233E+02 0.  0.
        -24    2    1    2    0    0  0.25809743494E+02 -0.18276982704E+02  0.97084077651E+02  0.12518511925E+03  0.72427929636E+02 0.  0.
         13    1    4    4    0    0  0.29565679320E+02 -0.29638090044E+02  0.10347273806E+03  0.11162057739E+03  0.00000000000E+00 0. -1.
        -14    1    4    4    0    0 -0.37559358268E+01  0.11361107340E+02 -0.63886604100E+01  0.13564541856E+02  0.00000000000E+00 0.  1.
        -13    1    3    3    0    0  0.10806259641E+02 -0.40846916169E+02 -0.14410368550E+03  0.15017029661E+03  0.00000000000E+00 0.  1.
         13    1    3    3    0    0 -0.40439507449E+02  0.31010954231E+02 -0.10642509461E+03  0.11799717711E+03  0.00000000000E+00 0. -1.
         21    1    1    2  502  501  0.38235043145E+01  0.28112944642E+02  0.37084153612E+02  0.46692518574E+02  0.00000000000E+00 0. -1.
<scales pt_clust_5="13000.00000" pt_clust_6="13000.00000" pt_clust_7="13000.00000" pt_clust_8="13000.00000" pt_clust_9="28.37176"></scales>
<clustering>
<clus scale="   28.372">  1  9  2 -1</clus>
<clus scale="   72.428">  5  6 -1 -1</clus>
<clus scale="   78.535">  1  5  2 -1</clus>
<clus scale="   90.412">  7  8 -1 -1</clus>
<clus scale="   28.372">  1  5  2 -1</clus>
</clustering>
</event>
<event>
 9    1  0.2674825E-005  0.1186263E+03  0.7546771E-02  0.1250920E+00
         -4   -1    0    0    0  501 -0.00000000000E+00  0.00000000000E+00  0.52760238420E+03  0.52760238420E+03  0.00000000000E+00 0.  1.
          3   -1    0    0  502    0  0.00000000000E+00 -0.00000000000E+00 -0.31868265004E+02  0.31868265004E+02  0.00000000000E+00 0. -1.
         23    2    1    2    0    0  0.71609613746E+02 -0.39930879988E+02  0.31956611761E+03  0.34322024794E+03  0.94632040632E+02 0.  0.
        -24    2    1    2    0    0 -0.51724119882E+02  0.42949666391E+02  0.13123827821E+03  0.16702412800E+03  0.78444344880E+02 0.  0.
         13    1    4    4    0    0 -0.33378338224E+02  0.12589108860E+02  0.51528666698E+01  0.36043739531E+02  0.00000000000E+00 0. -1.
        -14    1    4    4    0    0 -0.18345781658E+02  0.30360557530E+02  0.12608541154E+03  0.13098038846E+03  0.00000000000E+00 0.  1.
        -11    1    3    3    0    0  0.90793488088E+02 -0.13251666927E+02  0.24932412440E+03  0.26567194651E+03  0.00000000000E+00 0.  1.
         11    1    3    3    0    0 -0.19183874342E+02 -0.26679213060E+02  0.70241993211E+02  0.77548301429E+02  0.00000000000E+00 0. -1.
         21    1    1    2  502  501 -0.19885493864E+02 -0.30187864031E+01  0.44929723376E+02  0.49226273271E+02  0.00000000000E+00 0.  1.
<scales pt_clust_5="13000.00000" pt_clust_6="13000.00000" pt_clust_7="13000.00000" pt_clust_8="13000.00000" pt_clust_9="20.11333"></scales>
<clustering>
<clus scale="   20.113">  1  9  2 -1</clus>
<clus scale="   78.444">  5  6 -1 -1</clus>
<clus scale="   94.632">  7  8 -1 -1</clus>
<clus scale="  106.163">  2  5  1 -1</clus>
<clus scale="  106.163">  2  5  1 -1</clus>
</clustering>
</event>
<event>
 9    1  0.2674825E-005  0.1099999E+03  0.7546771E-02  0.1264503E+00
          1   -1    0    0  502    0  0.00000000000E+00  0.00000000000E+00  0.52915224492E+03  0.52915224492E+03  0.00000000000E+00 0. -1.
         -2   -1    0    0    0  501 -0.00000000000E+00 -0.00000000000E+00 -0.38717848364E+02  0.38717848364E+02  0.00000000000E+00 0.  1.
         23    2    1    2    0    0 -0.56901986325E+02 -0.39014425146E+02  0.98284396767E+02  0.15007040649E+03  0.90007459903E+02 0.  0.
        -24    2    1    2    0    0  0.62035478078E+02  0.10886466426E+02  0.36296861692E+03  0.37694521451E+03  0.79840855360E+02 0.  0.
         13    1    4    4    0    0  0.55013652065E+02 -0.26094098160E+02  0.17627371416E+03  0.18649350170E+03  0.00000000000E+00 0. -1.
        -14    1    4    4    0    0  0.70218260138E+01  0.36980564586E+02  0.18669490275E+03  0.19045171281E+03  0.00000000000E+00 0.  1.
        -13    1    3    3    0    0  0.13189873722E+02 -0.29149248921E+02  0.63715367445E+02  0.71297261729E+02  0.00000000000E+00 0. -1.
         13    1    3    3    0    0 -0.70091860047E+02 -0.98651762257E+01  0.34569029322E+02  0.78773144759E+02  0.00000000000E+00 0.  1.
         21    1    1    2  502  501 -0.51334917533E+01  0.28127958720E+02  0.29181382870E+02  0.40854472284E+02  0.00000000000E+00 0.  1.
<scales pt_clust_5="13000.00000" pt_clust_6="13000.00000" pt_clust_7="13000.00000" pt_clust_8="13000.00000" pt_clust_9="28.59257"></scales>
<clustering>
<clus scale="   28.593">  2  9  1 -1</clus>
<clus scale="   79.841">  5  6 -1 -1</clus>
<clus scale="   90.007">  7  8 -1 -1</clus>
<clus scale="  101.849">  1  5  2 -1</clus>
<clus scale="  101.849">  1  5  2 -1</clus>
</clustering>
</event>
<event>
 9    1  0.2674825E-005  0.1526171E+03  0.7546771E-02  0.1225364E+00
         -2   -1    0    0    0  501 -0.00000000000E+00  0.00000000000E+00  0.12187154325E+03  0.12187154325E+03  0.00000000000E+00 0.  1.
          1   -1    0    0  502    0  0.00000000000E+00 -0.00000000000E+00 -0.48714363909E+03  0.48714363909E+03  0.00000000000E+00 0. -1.
         23    2    1    2    0    0 -0.65383296588E+01 -0.12471357660E+03  0.23068810115E+02  0.15549037874E+03  0.89715449837E+02 0.  0.
        -24    2    1    2    0    0  0.10256648183E+02  0.39929547941E+01 -0.27637043594E+03  0.28882908241E+03  0.83189413191E+02 0.  0.
         13    1    4    4    0    0  0.94953932357E+01  0.41182730151E+02 -0.99747140065E+02  0.10833130529E+03  0.00000000000E+00 0. -1.
        -14    1    4    4    0    0  0.76125494771E+00 -0.37189775357E+02 -0.17662329587E+03  0.18049777712E+03  0.00000000000E+00 0.  1.
        -13    1    3    3    0    0 -0.34148226164E+02 -0.12132788126E+02  0.15226559930E+02  0.39308447250E+02  0.00000000000E+00 0.  1.
         13    1    3    3    0    0  0.27609896506E+02 -0.11258078847E+03  0.78422501842E+01  0.11618193149E+03  0.00000000000E+00 0. -1.
         21    1    1    2  502  501 -0.37183185246E+01  0.12072062180E+03 -0.11197047002E+03  0.16469572119E+03  0.00000000000E+00 0. -1.
<scales pt_clust_5="13000.00000" pt_clust_6="13000.00000" pt_clust_7="13000.00000" pt_clust_8="13000.00000" pt_clust_9="123.46301"></scales>
<clustering>
<clus scale="   83.189">  5  6 -1 -1</clus>
<clus scale="   83.914">  2  5  1 -1</clus>
<clus scale="   89.715">  7  8 -1 -1</clus>
<clus scale="  123.463">  2  9  1 -1</clus>
<clus scale="   83.914">  2  5  1 -1</clus>
</clustering>
</event>
<event>
 9    1  0.2674825E-005  0.9931120E+02  0.7546771E-02  0.1283289E+00
          1   -1    0    0  502    0  0.00000000000E+00  0.00000000000E+00  0.84941735467E+02  0.84941735467E+02  0.00000000000E+00 0. -1.
         -2   -1    0    0    0  501 -0.00000000000E+00 -0.00000000000E+00 -0.35247253834E+03  0.35247253834E+03  0.00000000000E+00 0.  1.
        -24    2    1    2    0    0 -0.19023981674E+02 -0.44208230180E+02 -0.27169439890E+03  0.28867669006E+03  0.84853435380E+02 0.  0.
         23    2    1    2    0    0  0.45006843908E+02  0.16351123323E+02 -0.21846479087E+02  0.10261111044E+03  0.88084028658E+02 0.  0.
         11    1    3    3    0    0 -0.26904313904E+02 -0.40145308572E+02 -0.61128433267E+02  0.77924150689E+02  0.00000000000E+00 0. -1.
        -12    1    3    3    0    0  0.78803322305E+01 -0.40629216080E+01 -0.21056596563E+03  0.21075253937E+03  0.00000000000E+00 0.  1.
        -13    1    4    4    0    0 -0.18905346616E+02 -0.71219259408E+01 -0.27687844580E+02  0.34274636355E+02  0.00000000000E+00 0.  1.
         13    1    4    4    0    0  0.63912190524E+02  0.23473049264E+02  0.58413654938E+01  0.68336474084E+02  0.00000000000E+00 0. -1.
         21    1    1    2  502  501 -0.25982862234E+02  0.27857106857E+02  0.26010075115E+02  0.46126473308E+02  0.00000000000E+00 0. -1.
<scales pt_clust_5="13000.00000" pt_clust_6="13000.00000" pt_clust_7="13000.00000" pt_clust_8="13000.00000" pt_clust_9="38.09367"></scales>
<clustering>
<clus scale="   38.094">  1  9  2 -1</clus>
<clus scale="   84.853">  5  6 -1 -1</clus>
<clus scale="   88.084">  7  8 -1 -1</clus>
<clus scale="   96.457">  2  5  1 -1</clus>
<clus scale="   38.094">  1  5  2 -1</clus>
</clustering>
</event>
<event>
 9    1  0.2674825E-005  0.9929588E+02  0.7546771E-02  0.1290076E+00
          1   -1    0    0  502    0  0.00000000000E+00  0.00000000000E+00  0.27666612608E+03  0.27666612608E+03  0.00000000000E+00 0. -1.
         -2   -1    0    0    0  501 -0.00000000000E+00 -0.00000000000E+00 -0.46279601629E+02  0.46279601629E+02  0.00000000000E+00 0.  1.
        -24    2    1    2    0    0 -0.46507427882E+02  0.48206597821E+02  0.53281203622E+02  0.11766298576E+03  0.80739548154E+02 0.  0.
         23    2    1    2    0    0  0.34455514197E+02 -0.29033959292E+02  0.10781001290E+03  0.13238090115E+03  0.62221787634E+02 0.  0.
         11    1    3    3    0    0 -0.22228213736E+02  0.60923520478E+02  0.61163005503E+02  0.89144164562E+02  0.00000000000E+00 0. -1.
        -12    1    3    3    0    0 -0.24279214145E+02 -0.12716922657E+02 -0.78818018816E+01  0.28518821194E+02  0.00000000000E+00 0.  1.
        -11    1    4    4    0    0  0.29851353873E+02  0.11611687055E+02  0.68640383690E+02  0.75745870365E+02  0.00000000000E+00 0. -1.
         11    1    4    4    0    0  0.46041603233E+01 -0.40645646346E+02  0.39169629209E+02  0.56635030781E+02  0.00000000000E+00 0.  1.
         21    1    1    2  502  501  0.12051913685E+02 -0.19172638529E+02  0.69295307929E+02  0.72901840804E+02  0.00000000000E+00 0. -1.
<scales pt_clust_5="13000.00000" pt_clust_6="13000.00000" pt_clust_7="13000.00000" pt_clust_8="13000.00000" pt_clust_9="22.64594"></scales>
<clustering>
<clus scale="   22.646">  1  9  2 -1</clus>
<clus scale="   62.222">  7  8 -1 -1</clus>
<clus scale="   80.740">  5  6 -1 -1</clus>
<clus scale="   84.926">  1  7  2 -1</clus>
<clus scale="   22.646">  1  5  2 -1</clus>
</clustering>
</event>
<event>
 9    1  0.2674825E-005  0.1271704E+03  0.7546771E-02  0.1233127E+00
          1   -1    0    0  502    0  0.00000000000E+00  0.00000000000E+00  0.71485507197E+02  0.71485507197E+02  0.00000000000E+00 0. -1.
         -2   -1    0    0    0  501 -0.00000000000E+00 -0.00000000000E+00 -0.61613173321E+03  0.61613173321E+03  0.00000000000E+00 0.  1.
        -24    2    1    2    0    0  0.70544310100E+02 -0.54145060273E+02 -0.40284386706E+03  0.42035259489E+03  0.80653180756E+02 0.  0.
         23    2    1    2    0    0 -0.96604974291E+02  0.47459968401E+02 -0.17612409837E+03  0.22365466424E+03  0.86120503664E+02 0.  0.
         11    1    3    3    0    0  0.66639881418E+02 -0.25418269518E+02 -0.15271441907E+03  0.16854867550E+03  0.00000000000E+00 0. -1.
        -12    1    3    3    0    0  0.39044286823E+01 -0.28726790755E+02 -0.25012944799E+03  0.25180391939E+03  0.00000000000E+00 0.  1.
        -11    1    4    4    0    0 -0.29327597262E+02 -0.21275154857E+02 -0.79268700637E+02  0.87156566454E+02  0.00000000000E+00 0.  1.
         11    1    4    4    0    0 -0.67277377029E+02  0.68735123258E+02 -0.96855397732E+02  0.13649809779E+03  0.00000000000E+00 0. -1.
         21    1    1    2  502  501  0.26060664191E+02  0.66850918725E+01  0.34321739408E+02  0.43609981282E+02  0.00000000000E+00 0. -1.
<scales pt_clust_5="13000.00000" pt_clust_6="13000.00000" pt_clust_7="13000.00000" pt_clust_8="13000.00000" pt_clust_9="26.90444"></scales>
<clustering>
<clus scale="   26.904">  1  9  2 -1</clus>
<clus scale="   80.653">  5  6 -1 -1</clus>
<clus scale="   86.121">  7  8 -1 -1</clus>
<clus scale="  123.533">  2  5  1 -1</clus>
<clus scale="   26.904">  1  5  2 -1</clus>
</clustering>
</event>
<event>
 9    1  0.2674825E-005  0.1022484E+03  0.7546771E-02  0.1278623E+00
         -2   -1    0    0    0  501 -0.00000000000E+00  0.00000000000E+00  0.10562546804E+04  0.10562546804E+04  0.00000000000E+00 0.  1.
          1   -1    0    0  502    0  0.00000000000E+00 -0.00000000000E+00 -0.37163843383E+02  0.37163843383E+02  0.00000000000E+00 0. -1.
        -24    2    1    2    0    0  0.66863831612E+02  0.15541765108E+02  0.89311967106E+03  0.89947198152E+03  0.81699328515E+02 0.  0.
         23    2    1    2    0    0 -0.44753212147E+02 -0.22584337782E+02  0.47512606960E+02  0.11212831200E+03  0.88331241473E+02 0.  0.
         11    1    3    3    0    0  0.21367922828E+02 -0.79547756677E+01  0.51805900021E+02  0.56601394496E+02  0.00000000000E+00 0. -1.
        -12    1    3    3    0    0  0.45495908784E+02  0.23496540776E+02  0.84131377103E+03  0.84287058703E+03  0.00000000000E+00 0.  1.
        -13    1    4    4    0    0 -0.54735796897E+02 -0.47992238206E+02  0.42740591460E+02  0.84415760070E+02  0.00000000000E+00 0. -1.
         13    1    4    4    0    0  0.99825847492E+01  0.25407900424E+02  0.47720155009E+01  0.27712551925E+02  0.00000000000E+00 0.  1.
         21    1    1    2  502  501 -0.22110619465E+02  0.70425726744E+01  0.78458558985E+02  0.81818230248E+02  0.00000000000E+00 0. -1.
<scales pt_clust_5="13000.00000" pt_clust_6="13000.00000" pt_clust_7="13000.00000" pt_clust_8="13000.00000" pt_clust_9="23.20511"></scales>
<clustering>
<clus scale="   23.205">  1  9  2 -1</clus>
<clus scale="   81.699">  5  6 -1 -1</clus>
<clus scale="   88.331">  7  8 -1 -1</clus>
<clus scale="   96.577">  1  5  2 -1</clus>
<clus scale="  102.248">  2  5  1 -1</clus>
</clustering>
</event>
<event>
 9    1  0.2674825E-005  0.2454430E+03  0.7546771E-02  0.1116946E+00
          1   -1    0    0  502    0  0.00000000000E+00  0.00000000000E+00  0.41354344186E+03  0.41354344186E+03  0.00000000000E+00 0. -1.
         -2   -1    0    0    0  501 -0.00000000000E+00 -0.00000000000E+00 -0.23424876480E+03  0.23424876480E+03  0.00000000000E+00 0.  1.
        -24    2    1    2    0    0 -0.60855963546E+02  0.23082701604E+03 -0.90752401984E+02  0.26712761922E+03  0.78336497546E+02 0.  0.
         23    2    1    2    0    0  0.46602958595E+02 -0.18630675362E+03  0.25407194623E+03  0.33126411391E+03  0.91111564106E+02 0.  0.
         11    1    3    3    0    0  0.82547178106E+01  0.10995854715E+03 -0.55766900187E+02  0.12356767220E+03  0.00000000000E+00 0. -1.
        -12    1    3    3    0    0 -0.69110681356E+02  0.12086846889E+03 -0.34985501797E+02  0.14355994701E+03  0.00000000000E+00 0.  1.
        -13    1    4    4    0    0  0.35880353145E+00 -0.11807783394E+03  0.92914271267E+02  0.15025167358E+03  0.00000000000E+00 0.  1.
         13    1    4    4    0    0  0.46244155064E+02 -0.68228919681E+02  0.16115767496E+03  0.18101244034E+03  0.00000000000E+00 0. -1.
         21    1    1    2  502  501  0.14253004950E+02 -0.44520262424E+02  0.15975132822E+02  0.49400473531E+02  0.00000000000E+00 0.  1.
<scales pt_clust_5="13000.00000" pt_clust_6="13000.00000" pt_clust_7="13000.00000" pt_clust_8="13000.00000" pt_clust_9="46.74614"></scales>
<clustering>
<clus scale="   46.746">  1  9  2 -1</clus>
<clus scale="   78.336">  5  6 -1 -1</clus>
<clus scale="   91.112">  7  8 -1 -1</clus>
<clus scale="  240.993">  2  5  1 -1</clus>
<clus scale="   46.746">  1  5  2 -1</clus>
</clustering>
</event>
<event>
 9    1  0.2674825E-005  0.1158562E+03  0.7546771E-02  0.1252930E+00
         -2   -1    0    0    0  501 -0.00000000000E+00  0.00000000000E+00  0.50458256283E+02  0.50458256283E+02  0.00000000000E+00 0.  1.
          1   -1    0    0  502    0  0.00000000000E+00 -0.00000000000E+00 -0.45760086151E+03  0.45760086151E+03  0.00000000000E+00 0. -1.
        -24    2    1    2    0    0 -0.91452175348E+01 -0.52813389496E+02 -0.55187714932E+02  0.12542885608E+03  0.99064751264E+02 0.  0.
         23    2    1    2    0    0  0.17345839076E+02  0.79215511222E+02 -0.27965188575E+03  0.30522195020E+03  0.91538441822E+02 0.  0.
         13    1    3    3    0    0 -0.24079776635E+01 -0.53236759588E+02  0.14647977171E+02  0.55267659286E+02  0.00000000000E+00 0. -1.
        -14    1    3    3    0    0 -0.67372398713E+01  0.42337009134E+00 -0.69835692103E+02  0.70161196789E+02  0.00000000000E+00 0.  1.
        -11    1    4    4    0    0 -0.17241948358E+02  0.65275257601E+02 -0.24564152429E+03  0.25475066731E+03  0.00000000000E+00 0. -1.
         11    1    4    4    0    0  0.34587787434E+02  0.13940253621E+02 -0.34010361460E+02  0.50471282896E+02  0.00000000000E+00 0.  1.
         21    1    1    2  502  501 -0.82006215410E+01 -0.26402121725E+02 -0.72303004544E+02  0.77408311513E+02  0.00000000000E+00 0. -1.
<scales pt_clust_5="13000.00000" pt_clust_6="13000.00000" pt_clust_7="13000.00000" pt_clust_8="13000.00000" pt_clust_9="27.64638"></scales>
<clustering>
<clus scale="   27.646">  2  9  1 -1</clus>
<clus scale="   91.538">  7  8 -1 -1</clus>
<clus scale="   99.065">  5  6 -1 -1</clus>
<clus scale="  109.490">  2  7  1 -1</clus>
<clus scale="   27.646">  2  5  1 -1</clus>
</clustering>
</event>
<event>
 9    1  0.2674825E-005  0.9431566E+02  0.7546771E-02  0.1297445E+00
         -4   -1    0    0    0  501 -0.00000000000E+00  0.00000000000E+00  0.23819497187E+03  0.23819497187E+03  0.00000000000E+00 0.  1.
          3   -1    0    0  502    0  0.00000000000E+00 -0.00000000000E+00 -0.15540161290E+03  0.15540161290E+03  0.00000000000E+00 0. -1.
         23    2    1    2    0    0  0.24603527423E+02  0.20039453616E+02  0.18716386980E+03  0.20961853782E+03  0.88897153924E+02 0.  0.
        -24    2    1    2    0    0 -0.49523502141E+02  0.20763936318E+02 -0.42145652849E+02  0.10550604736E+03  0.80445954900E+02 0.  0.
         13    1    4    4    0    0 -0.32751249034E+02  0.51542563967E+02 -0.21041119275E+02  0.64591090051E+02  0.00000000000E+00 0. -1.
        -14    1    4    4    0    0 -0.16772253107E+02 -0.30778627649E+02 -0.21104533574E+02  0.40914957309E+02  0.00000000000E+00 0.  1.
        -13    1    3    3    0    0  0.13712132472E+02  0.55102321452E+02  0.99239327950E+02  0.11433605126E+03  0.00000000000E+00 0.  1.
         13    1    3    3    0    0  0.10891394951E+02 -0.35062867835E+02  0.87924541847E+02  0.95282486554E+02  0.00000000000E+00 0. -1.
         21    1    1    2  502  501  0.24919974718E+02 -0.40803389935E+02 -0.62224857981E+02  0.78471999597E+02  0.00000000000E+00 0.  1.
<scales pt_clust_5="13000.00000" pt_clust_6="13000.00000" pt_clust_7="13000.00000" pt_clust_8="13000.00000" pt_clust_9="47.81131"></scales>
<clustering>
<clus scale="   47.811">  2  9  1 -1</clus>
<clus scale="   80.446">  5  6 -1 -1</clus>
<clus scale="   86.396">  2  5  1 -1</clus>
<clus scale="   88.897">  7  8 -1 -1</clus>
<clus scale="   47.811">  2  5  1 -1</clus>
</clustering>
</event>
<event>
 9    1  0.2674825E-005  0.1038317E+03  0.7546771E-02  0.1279837E+00
         -2   -1    0    0    0  501 -0.00000000000E+00  0.00000000000E+00  0.19835700226E+03  0.19835700226E+03  0.00000000000E+00 0.  1.
          1   -1    0    0  502    0  0.00000000000E+00 -0.00000000000E+00 -0.30186230789E+03  0.30186230789E+03  0.00000000000E+00 0. -1.
         23    2    1    2    0    0  0.43227403070E+02  0.14487505979E+02  0.16828363577E+03  0.19738672173E+03  0.92539935394E+02 0.  0.
        -24    2    1    2    0    0 -0.59514123913E+02 -0.27000789346E+02 -0.15977610970E+03  0.18895232672E+03  0.76834907253E+02 0.  0.
         13    1    4    4    0    0 -0.29535795800E+02 -0.95806635257E+00 -0.14269700422E+03  0.14572479590E+03  0.00000000000E+00 0. -1.
        -14    1    4    4    0    0 -0.29978328114E+02 -0.26042722994E+02 -0.17079105475E+02  0.43227530825E+02  0.00000000000E+00 0.  1.
        -11    1    3    3    0    0 -0.23167979966E+02 -0.17826576888E+02  0.51437810102E+02  0.59164097622E+02  0.00000000000E+00 0. -1.
         11    1    3    3    0    0  0.66395383037E+02  0.32314082867E+02  0.11684582567E+03  0.13822262411E+03  0.00000000000E+00 0.  1.
         21    1    1    2  502  501  0.16286720843E+02  0.12513283367E+02 -0.11201283171E+03  0.11388026169E+03  0.00000000000E+00 0.  1.
<scales pt_clust_5="13000.00000" pt_clust_6="13000.00000" pt_clust_7="13000.00000" pt_clust_8="13000.00000" pt_clust_9="20.53873"></scales>
<clustering>
<clus scale="   20.539">  2  9  1 -1</clus>
<clus scale="   76.835">  5  6 -1 -1</clus>
<clus scale="   90.117">  2  5  1 -1</clus>
<clus scale="   92.540">  7  8 -1 -1</clus>
<clus scale="   20.539">  2  5  1 -1</clus>
</clustering>
</event>
<event>
 9    1  0.2674825E-005  0.1060968E+03  0.7546771E-02  0.1281453E+00
          1   -1    0    0  502    0  0.00000000000E+00  0.00000000000E+00  0.45574626330E+03  0.45574626330E+03  0.00000000000E+00 0. -1.
         -2   -1    0    0    0  501 -0.00000000000E+00 -0.00000000000E+00 -0.18840780829E+03  0.18840780829E+03  0.00000000000E+00 0.  1.
         23    2    1    2    0    0  0.99272978975E+01  0.85172454062E+01 -0.16712720909E+03  0.18609738821E+03  0.80806182733E+02 0.  0.
        -24    2    1    2    0    0 -0.34790641313E+02  0.54356754266E+01  0.28400779316E+03  0.30492131590E+03  0.10524565085E+03 0.  0.
         11    1    4    4    0    0  0.33398657909E+02  0.20216231247E+02  0.13225525686E+03  0.13789713312E+03  0.00000000000E+00 0. -1.
        -12    1    4    4    0    0 -0.68189299222E+02 -0.14780555820E+02  0.15175253630E+03  0.16702418278E+03  0.00000000000E+00 0.  1.
        -11    1    3    3    0    0 -0.42103652696E+01  0.43513439913E+02 -0.98764081986E+02  0.10800690033E+03  0.00000000000E+00 0.  1.
         11    1    3    3    0    0  0.14137663167E+02 -0.34996194507E+02 -0.68363127106E+02  0.78090487881E+02  0.00000000000E+00 0. -1.
         21    1    1    2  502  501  0.24863343416E+02 -0.13952920833E+02  0.15045787095E+03  0.15313536749E+03  0.00000000000E+00 0. -1.
<scales pt_clust_5="13000.00000" pt_clust_6="13000.00000" pt_clust_7="13000.00000" pt_clust_8="13000.00000" pt_clust_9="28.51087"></scales>
<clustering>
<clus scale="   28.511">  1  9  2 -1</clus>
<clus scale="   80.806">  7  8 -1 -1</clus>
<clus scale="   81.912">  2  7  1 -1</clus>
<clus scale="  105.246">  5  6 -1 -1</clus>
<clus scale="   28.511">  1  5  2 -1</clus>
</clustering>
</event>
<event>
 9    1  0.2674825E-005  0.1273105E+03  0.7546771E-02  0.1234248E+00
          1   -1    0    0  502    0  0.00000000000E+00  0.00000000000E+00  0.14080764370E+03  0.14080764370E+03  0.00000000000E+00 0. -1.
         -2   -1    0    0    0  501 -0.00000000000E+00 -0.00000000000E+00 -0.21261737852E+03  0.21261737852E+03  0.00000000000E+00 0.  1.
         23    2    1    2    0    0 -0.60643225902E+02  0.65939127497E+02 -0.13430258303E+03  0.18558544069E+03  0.91537984486E+02 0.  0.
        -24    2    1    2    0    0  0.34841121309E+02 -0.80862877321E+02  0.67386419534E+02  0.13763339093E+03  0.81543314244E+02 0.  0.
         11    1    4    4    0    0  0.56789112479E+02 -0.70234077273E+02  0.34485494470E+02  0.96680288763E+02  0.00000000000E+00 0. -1.
        -12    1    4    4    0    0 -0.21947991170E+02 -0.10628800048E+02  0.32900925063E+02  0.40953102164E+02  0.00000000000E+00 0.  1.
        -13    1    3    3    0    0 -0.34143904971E+02  0.72864329905E+02 -0.13613126067E+03  0.15813518568E+03  0.00000000000E+00 0.  1.
         13    1    3    3    0    0 -0.26499320931E+02 -0.69252024086E+01  0.18286776345E+01  0.27450255010E+02  0.00000000000E+00 0. -1.
         21    1    1    2  502  501  0.25802104593E+02  0.14923749824E+02 -0.48935713187E+01  0.30206190599E+02  0.00000000000E+00 0. -1.
<scales pt_clust_5="13000.00000" pt_clust_6="13000.00000" pt_clust_7="13000.00000" pt_clust_8="13000.00000" pt_clust_9="29.80716"></scales>
<clustering>
<clus scale="   29.807">  1  9  2 -1</clus>
<clus scale="   81.543">  5  6 -1 -1</clus>
<clus scale="   91.538">  7  8 -1 -1</clus>
<clus scale="  120.325">  1  5  2 -1</clus>
<clus scale="   29.807">  1  5  2 -1</clus>
</clustering>
</event>
<event>
 9    1  0.2674825E-005  0.9001478E+02  0.7546771E-02  0.1309175E+00
         -2   -1    0    0    0  501 -0.00000000000E+00  0.00000000000E+00  0.55743764880E+02  0.55743764880E+02  0.00000000000E+00 0.  1.
          1   -1    0    0  502    0  0.00000000000E+00 -0.00000000000E+00 -0.29624504479E+03  0.29624504479E+03  0.00000000000E+00 0. -1.
        -24    2    1    2    0    0 -0.17156239838E+02 -0.22136978485E+01 -0.48605104569E+01  0.81985395330E+02  0.79992146252E+02 0.  0.
         23    2    1    2    0    0 -0.10010009979E+02 -0.43818167876E-01 -0.22159398835E+03  0.23933725112E+03  0.89878928999E+02 0.  0.
         11    1    3    3    0    0  0.15695615707E+01  0.21331618685E+02 -0.33957476219E+02  0.40132426670E+02  0.00000000000E+00 0. -1.
        -12    1    3    3    0    0 -0.18725801409E+02 -0.23545316534E+02  0.29096965763E+02  0.41852968660E+02  0.00000000000E+00 0.  1.
        -11    1    4    4    0    0 -0.49036803655E+02  0.16411024164E+00 -0.14978993500E+03  0.15761237157E+03  0.00000000000E+00 0. -1.
         11    1    4    4    0    0  0.39026793676E+02 -0.20792840952E+00 -0.71804053356E+02  0.81724879548E+02  0.00000000000E+00 0.  1.
         21    1    1    2  502  501  0.27166249818E+02  0.22575160164E+01 -0.14046781105E+02  0.30666163228E+02  0.00000000000E+00 0. -1.
<scales pt_clust_5="13000.00000" pt_clust_6="13000.00000" pt_clust_7="13000.00000" pt_clust_8="13000.00000" pt_clust_9="27.25989"></scales>
<clustering>
<clus scale="   27.260">  1  9  2 -1</clus>
<clus scale="   79.992">  5  6 -1 -1</clus>
<clus scale="   80.145">  1  5  2 -1</clus>
<clus scale="   89.879">  7  8 -1 -1</clus>
<clus scale="   90.015">  2  5  1 -1</clus>
</clustering>
</event>
<event>
 9    1  0.2674825E-005  0.1027252E+03  0.7546771E-02  0.1279839E+00
          1   -1    0    0  502    0  0.00000000000E+00  0.00000000000E+00  0.15812822426E+03  0.15812822426E+03  0.00000000000E+00 0. -1.
         -2   -1    0    0    0  501 -0.00000000000E+00 -0.00000000000E+00 -0.17438034326E+03  0.17438034326E+03  0.00000000000E+00 0.  1.
        -24    2    1    2    0    0  0.33367809423E+02  0.36497025666E+02 -0.13139980038E+03  0.16131267107E+03  0.79438194343E+02 0.  0.
         23    2    1    2    0    0 -0.43840285873E+02 -0.15126708807E+02  0.83695289703E+02  0.13175459642E+03  0.90573639518E+02 0.  0.
         13    1    3    3    0    0  0.10029801789E+02  0.57582454426E+02 -0.10533016242E+03  0.12046069523E+03  0.00000000000E+00 0. -1.
        -14    1    3    3    0    0  0.23338007634E+02 -0.21085428760E+02 -0.26069637964E+02  0.40851975838E+02  0.00000000000E+00 0.  1.
        -11    1    4    4    0    0 -0.67644199028E+02 -0.28976509912E+02  0.67182022412E+02  0.99643363673E+02  0.00000000000E+00 0. -1.
         11    1    4    4    0    0  0.23803913155E+02  0.13849801105E+02  0.16513267291E+02  0.32111232750E+02  0.00000000000E+00 0.  1.
         21    1    1    2  502  501  0.10472476450E+02 -0.21370316859E+02  0.31452391671E+02  0.39441300022E+02  0.00000000000E+00 0.  1.
<scales pt_clust_5="13000.00000" pt_clust_6="13000.00000" pt_clust_7="13000.00000" pt_clust_8="13000.00000" pt_clust_9="23.79839"></scales>
<clustering>
<clus scale="   23.798">  1  9  2 -1</clus>
<clus scale="   79.438">  5  6 -1 -1</clus>
<clus scale="   90.574">  7  8 -1 -1</clus>
<clus scale="   93.055">  2  5  1 -1</clus>
<clus scale="   23.798">  1  5  2 -1</clus>
</clustering>
</event>
<event>
 9    1  0.2674825E-005  0.1063388E+03  0.7546771E-02  0.1271682E+00
          3   -1    0    0  502    0  0.00000000000E+00  0.00000000000E+00  0.48079516990E+02  0.48079516990E+02  0.00000000000E+00 0. -1.
         -4   -1    0    0    0  501 -0.00000000000E+00 -0.00000000000E+00 -0.30697447024E+03  0.30697447024E+03  0.00000000000E+00 0.  1.
        -24    2    1    2    0    0 -0.48544363482E+02 -0.87058806138E+01 -0.12596436163E+03  0.15903943296E+03  0.83631173936E+02 0.  0.
         23    2    1    2    0    0  0.43062988112E+02  0.34704524057E+02 -0.73553775249E+02  0.13096394889E+03  0.93180325827E+02 0.  0.
         11    1    3    3    0    0 -0.61412874226E+01  0.34774179001E+02 -0.35441301885E+02  0.50030438892E+02  0.00000000000E+00 0. -1.
        -12    1    3    3    0    0 -0.42403076059E+02 -0.43480059615E+02 -0.90523059740E+02  0.10900899407E+03  0.00000000000E+00 0.  1.
        -11    1    4    4    0    0  0.65052770205E+02 -0.25279144505E+01 -0.43141856691E+02  0.78099123309E+02  0.00000000000E+00 0.  1.
         11    1    4    4    0    0 -0.21989782093E+02  0.37232438507E+02 -0.30411918558E+02  0.52864825584E+02  0.00000000000E+00 0. -1.
         21    1    1    2  502  501  0.54813753701E+01 -0.25998643443E+02 -0.59376816375E+02  0.65050605375E+02  0.00000000000E+00 0. -1.
<scales pt_clust_5="13000.00000" pt_clust_6="13000.00000" pt_clust_7="13000.00000" pt_clust_8="13000.00000" pt_clust_9="26.57019"></scales>
<clustering>
<clus scale="   26.570">  2  9  1 -1</clus>
<clus scale="   83.631">  5  6 -1 -1</clus>
<clus scale="   93.180">  7  8 -1 -1</clus>
<clus scale="   98.079">  2  5  1 -1</clus>
<clus scale="  106.339">  1  5  2 -1</clus>
</clustering>
</event>
<event>
 9    1  0.2674825E-005  0.2467281E+03  0.7546771E-02  0.1115919E+00
         -2   -1    0    0    0  501 -0.00000000000E+00  0.00000000000E+00  0.26244279281E+03  0.26244279281E+03  0.00000000000E+00 0.  1.
          1   -1    0    0  502    0  0.00000000000E+00 -0.00000000000E+00 -0.28964145468E+03  0.28964145468E+03  0.00000000000E+00 0. -1.
        -24    2    1    2    0    0 -0.10282278586E+03 -0.18265177825E+03  0.49457049513E+02  0.22974101044E+03  0.80004591993E+02 0.  0.
         23    2    1    2    0    0  0.14536598154E+03  0.19604309863E+03 -0.91138359348E+02  0.27544976147E+03  0.89455047044E+02 0.  0.
         11    1    3    3    0    0 -0.34053363020E+02 -0.20442267942E+02 -0.14535908384E+02  0.42294331584E+02  0.00000000000E+00 0. -1.
        -12    1    3    3    0    0 -0.68769422837E+02 -0.16220951031E+03  0.63992957898E+02  0.18744667885E+03  0.00000000000E+00 0.  1.
        -13    1    4    4    0    0  0.10176892752E+03  0.18604856552E+03 -0.58208567376E+02  0.21990730015E+03  0.00000000000E+00 0. -1.
         13    1    4    4    0    0  0.43597054018E+02  0.99945331110E+01 -0.32929791972E+02  0.55542461329E+02  0.00000000000E+00 0.  1.
         21    1    1    2  502  501 -0.42543195679E+02 -0.13391320382E+02  0.14482647963E+02  0.46893475582E+02  0.00000000000E+00 0.  1.
<scales pt_clust_5="13000.00000" pt_clust_6="13000.00000" pt_clust_7="13000.00000" pt_clust_8="13000.00000" pt_clust_9="44.60102"></scales>
<clustering>
<clus scale="   44.601">  1  9  2 -1</clus>
<clus scale="   80.005">  5  6 -1 -1</clus>
<clus scale="   89.455">  7  8 -1 -1</clus>
<clus scale="  243.461">  1  5  2 -1</clus>
<clus scale="  246.728">  2  5  1 -1</clus>
</clustering>
</event>
<event>
 9    1  0.2674825E-005  0.1172278E+03  0.7546771E-02  0.1252377E+00
         -2   -1    0    0    0  501 -0.00000000000E+00  0.00000000000E+00  0.11339817795E+03  0.11339817795E+03  0.00000000000E+00 0.  1.
          1   -1    0    0  502    0  0.00000000000E+00 -0.00000000000E+00 -0.41628382543E+03  0.41628382543E+03  0.00000000000E+00 0. -1.
        -24    2    1    2    0    0  0.47531773788E+02 -0.32324230192E+02  0.68617239986E+02  0.13621266641E+03  0.10267151256E+03 0.  0.
         23    2    1    2    0    0 -0.27553872055E+02  0.45311614705E+02 -0.28466832073E+03  0.30342473305E+03  0.90654054025E+02 0.  0.
         11    1    3    3    0    0 -0.13215791918E+02 -0.52088647869E+02  0.33254120305E+02  0.63195893142E+02  0.00000000000E+00 0. -1.
        -12    1    3    3    0    0  0.60747565706E+02  0.19764417677E+02  0.35363119682E+02  0.73016773271E+02  0.00000000000E+00 0.  1.
        -11    1    4    4    0    0  0.29218486110E+02  0.37774131451E+02 -0.12958189490E+03  0.13810167423E+03  0.00000000000E+00 0.  1.
         11    1    4    4    0    0 -0.56772358165E+02  0.75374832538E+01 -0.15508642582E+03  0.16532305883E+03  0.00000000000E+00 0. -1.
         21    1    1    2  502  501 -0.19977901733E+02 -0.12987384513E+02 -0.86834566733E+02  0.90044603913E+02  0.00000000000E+00 0. -1.
<scales pt_clust_5="13000.00000" pt_clust_6="13000.00000" pt_clust_7="13000.00000" pt_clust_8="13000.00000" pt_clust_9="23.82832"></scales>
<clustering>
<clus scale="   23.828">  2  9  1 -1</clus>
<clus scale="   90.654">  7  8 -1 -1</clus>
<clus scale="  102.672">  5  6 -1 -1</clus>
<clus scale="  106.860">  2  7  1 -1</clus>
<clus scale="   23.828">  2  5  1 -1</clus>
</clustering>
</event>
<event>
 9    1  0.2674825E-005  0.1156254E+03  0.7546771E-02  0.1252954E+00
         -2   -1    0    0    0  501 -0.00000000000E+00  0.00000000000E+00  0.17065416254E+03  0.17065416254E+03  0.00000000000E+00 0.  1.
          1   -1    0    0  502    0  0.00000000000E+00 -0.00000000000E+00 -0.52019519337E+03  0.52019519337E+03  0.00000000000E+00 0. -1.
        -24    2    1    2    0    0  0.17566315926E+02 -0.12110276957E+01  0.31397198403E+02  0.89430445514E+02  0.81865612280E+02 0.  0.
         23    2    1    2    0    0 -0.68531998567E+02 -0.43243844277E+02 -0.47248226583E+03  0.48760306314E+03  0.89166085293E+02 0.  0.
         11    1    3    3    0    0 -0.25344546933E+02  0.75678527664E+01  0.36777835397E+02  0.45301519083E+02  0.00000000000E+00 0. -1.
        -12    1    3    3    0    0  0.42910862859E+02 -0.87788804621E+01 -0.53806369945E+01  0.44128926431E+02  0.00000000000E+00 0.  1.
        -13    1    4    4    0    0 -0.11415341490E+02 -0.59909503311E+02 -0.23781522731E+03  0.24551077563E+03  0.00000000000E+00 0.  1.
         13    1    4    4    0    0 -0.57116657078E+02  0.16665659034E+02 -0.23466703852E+03  0.24209228752E+03  0.00000000000E+00 0. -1.
         21    1    1    2  502  501  0.50965682642E+02  0.44454871973E+02  0.91544036601E+02  0.11381584726E+03  0.00000000000E+00 0.  1.
<scales pt_clust_5="13000.00000" pt_clust_6="13000.00000" pt_clust_7="13000.00000" pt_clust_8="13000.00000" pt_clust_9="67.62941"></scales>
<clustering>
<clus scale="   67.629">  1  9  2 -1</clus>
<clus scale="   81.866">  5  6 -1 -1</clus>
<clus scale="   89.166">  7  8 -1 -1</clus>
<clus scale="  110.094">  1  5  2 -1</clus>
<clus scale="  115.625">  2  5  1 -1</clus>
</clustering>
</event>
<event>
 9    1  0.2674825E-005  0.1277543E+03  0.7546771E-02  0.1233196E+00
         -2   -1    0    0    0  501 -0.00000000000E+00  0.00000000000E+00  0.11948593796E+03  0.11948593796E+03  0.00000000000E+00 0.  1.
          1   -1    0    0  502    0  0.00000000000E+00 -0.00000000000E+00 -0.42109691051E+03  0.42109691051E+03  0.00000000000E+00 0. -1.
        -24    2    1    2    0    0  0.14604865330E+01  0.76300461237E+02  0.66578962561E+02  0.12941832574E+03  0.80575749299E+02 0.  0.
         23    2    1    2    0    0  0.23737070324E+02 -0.90116772809E+02 -0.35812029362E+03  0.38071448141E+03  0.89492404164E+02 0.  0.
         13    1    3    3    0    0  0.17636260932E+02  0.20644033987E+02 -0.13692797313E+02  0.30408987769E+02  0.00000000000E+00 0. -1.
        -14    1    3    3    0    0 -0.16175774399E+02  0.55656427250E+02  0.80271759874E+02  0.99009337968E+02  0.00000000000E+00 0.  1.
        -11    1    4    4    0    0  0.45224602231E+02 -0.12292654278E+02 -0.10386922146E+03  0.11395257419E+03  0.00000000000E+00 0.  1.
         11    1    4    4    0    0 -0.21487531907E+02 -0.77824118531E+02 -0.25425107215E+03  0.26676190722E+03  0.00000000000E+00 0. -1.
         21    1    1    2  502  501 -0.25197556857E+02  0.13816311572E+02 -0.10069641488E+02  0.30450041325E+02  0.00000000000E+00 0.  1.
<scales pt_clust_5="13000.00000" pt_clust_6="13000.00000" pt_clust_7="13000.00000" pt_clust_8="13000.00000" pt_clust_9="28.73686"></scales>
<clustering>
<clus scale="   28.737">  1  9  2 -1</clus>
<clus scale="   80.576">  5  6 -1 -1</clus>
<clus scale="   89.492">  7  8 -1 -1</clus>
<clus scale="  121.675">  1  5  2 -1</clus>
<clus scale="  127.754">  2  5  1 -1</clus>
</clustering>
</event>
<event>
 9    1  0.2674825E-005  0.9744098E+02  0.7546771E-02  0.1291676E+00
         -2   -1    0    0    0  501 -0.00000000000E+00  0.00000000000E+00  0.40622438266E+02  0.40622438266E+02  0.00000000000E+00 0.  1.
          1   -1    0    0  502    0  0.00000000000E+00 -0.00000000000E+00 -0.66249169721E+03  0.66249169721E+03  0.00000000000E+00 0. -1.
         23    2    1    2    0    0 -0.24146487016E+02 -0.94493125718E+01 -0.38115967464E+02  0.10363207330E+03  0.92813993009E+02 0.  0.
        -24    2    1    2    0    0  0.51875447758E+02  0.23033265606E+02 -0.50760606199E+03  0.51731260554E+03  0.82017219401E+02 0.  0.
         13    1    4    4    0    0  0.53165499341E+02  0.44047769530E+02 -0.26682102612E+03  0.27560884656E+03  0.00000000000E+00 0. -1.
        -14    1    4    4    0    0 -0.12900515828E+01 -0.21014503923E+02 -0.24078503587E+03  0.24170375899E+03  0.00000000000E+00 0.  1.
        -11    1    3    3    0    0 -0.32829904996E+02 -0.40602226637E+02 -0.46829795919E+02  0.70138243888E+02  0.00000000000E+00 0.  1.
         11    1    3    3    0    0  0.86834179803E+01  0.31152914065E+02  0.87138284547E+01  0.33493829415E+02  0.00000000000E+00 0. -1.
         21    1    1    2  502  501 -0.27728960742E+02 -0.13583953035E+02 -0.76147229488E+02  0.82169456628E+02  0.00000000000E+00 0.  1.
<scales pt_clust_5="13000.00000" pt_clust_6="13000.00000" pt_clust_7="13000.00000" pt_clust_8="13000.00000" pt_clust_9="30.87748"></scales>
<clustering>
<clus scale="   30.877">  2  9  1 -1</clus>
<clus scale="   82.017">  5  6 -1 -1</clus>
<clus scale="   87.219">  2  5  1 -1</clus>
<clus scale="   92.814">  7  8 -1 -1</clus>
<clus scale="   30.877">  2  5  1 -1</clus>
</clustering>
</event>
<event>
 9    1  0.2674825E-005  0.1369225E+03  0.7546771E-02  0.1220912E+00
          3   -1    0    0  502    0  0.00000000000E+00  0.00000000000E+00  0.48092779991E+02  0.48092779991E+02  0.00000000000E+00 0. -1.
         -4   -1    0    0    0  501 -0.00000000000E+00 -0.00000000000E+00 -0.50352767514E+03  0.50352767514E+03  0.00000000000E+00 0.  1.
        -24    2    1    2    0    0 -0.10393178212E+03 -0.27877771768E+02 -0.24565229751E+03  0.27978503449E+03  0.79722197413E+02 0.  0.
         23    2    1    2    0    0  0.80704102779E+02  0.52722156546E+02 -0.14025087214E+03  0.19443109651E+03  0.94023221383E+02 0.  0.
         13    1    3    3    0    0 -0.68543635148E+02 -0.90219812373E+01 -0.65540680243E+02  0.95263879994E+02  0.00000000000E+00 0. -1.
        -14    1    3    3    0    0 -0.35388146969E+02 -0.18855790530E+02 -0.18011161727E+03  0.18452115450E+03  0.00000000000E+00 0.  1.
        -13    1    4    4    0    0  0.46431094429E+01  0.51689632166E+02 -0.87941543487E+02  0.10211313143E+03  0.00000000000E+00 0.  1.
         13    1    4    4    0    0  0.76060993336E+02  0.10325243809E+01 -0.52309328653E+02  0.92317965088E+02  0.00000000000E+00 0. -1.
         21    1    1    2  502  501  0.23227679339E+02 -0.24844384779E+02 -0.69531725498E+02  0.77404324125E+02  0.00000000000E+00 0. -1.
<scales pt_clust_5="13000.00000" pt_clust_6="13000.00000" pt_clust_7="13000.00000" pt_clust_8="13000.00000" pt_clust_9="34.01130"></scales>
<clustering>
<clus scale="   34.011">  2  9  1 -1</clus>
<clus scale="   79.722">  5  6 -1 -1</clus>
<clus scale="   94.023">  7  8 -1 -1</clus>
<clus scale="  127.527">  2  5  1 -1</clus>
<clus scale="  136.922">  1  5  2 -1</clus>
</clustering>
</event>
<event>
 9    1  0.2674825E-005  0.9247477E+02  0.7546771E-02  0.1307647E+00
          3   -1    0    0  502    0  0.00000000000E+00  0.00000000000E+00  0.11476747957E+03  0.11476747957E+03  0.00000000000E+00 0. -1.
         -4   -1    0    0    0  501 -0.00000000000E+00 -0.00000000000E+00 -0.24763594122E+03  0.24763594122E+03  0.00000000000E+00 0.  1.
         23    2    1    2    0    0  0.12376613774E+02  0.11933762398E+02 -0.19811775218E+03  0.21858409636E+03  0.90734603101E+02 0.  0.
        -24    2    1    2    0    0  0.18975406458E+01 -0.27881178066E+02  0.41640991759E+01  0.79093192510E+02  0.73874438263E+02 0.  0.
         13    1    4    4    0    0 -0.33409956651E+02 -0.27894176886E+02 -0.14336259873E+00  0.43523911364E+02  0.00000000000E+00 0. -1.
        -14    1    4    4    0    0  0.35307497297E+02  0.12998819794E-01  0.43074617746E+01  0.35569281146E+02  0.00000000000E+00 0.  1.
        -13    1    3    3    0    0  0.41630304029E+02 -0.17794235374E+02 -0.13935198149E+03  0.14652198392E+03  0.00000000000E+00 0.  1.
         13    1    3    3    0    0 -0.29253690254E+02  0.29727997771E+02 -0.58765770682E+02  0.72062112437E+02  0.00000000000E+00 0. -1.
         21    1    1    2  502  501 -0.14274154420E+02  0.15947415669E+02  0.61085191356E+02  0.64726131924E+02  0.00000000000E+00 0. -1.
<scales pt_clust_5="13000.00000" pt_clust_6="13000.00000" pt_clust_7="13000.00000" pt_clust_8="13000.00000" pt_clust_9="21.40261"></scales>
<clustering>
<clus scale="   21.403">  1  9  2 -1</clus>
<clus scale="   73.874">  5  6 -1 -1</clus>
<clus scale="   76.002">  1  5  2 -1</clus>
<clus scale="   90.735">  7  8 -1 -1</clus>
<clus scale="   21.403">  1  5  2 -1</clus>
</clustering>
</event>
<event>
 9    1  0.2674825E-005  0.1624701E+03  0.7546771E-02  0.1188359E+00
          1   -1    0    0  502    0  0.00000000000E+00  0.00000000000E+00  0.54997454735E+03  0.54997454735E+03  0.00000000000E+00 0. -1.
         -2   -1    0    0    0  501 -0.00000000000E+00 -0.00000000000E+00 -0.13453013680E+03  0.13453013680E+03  0.00000000000E+00 0.  1.
         23    2    1    2    0    0 -0.11934373429E+03  0.35999595063E+02 -0.26554093116E+02  0.15924998990E+03  0.95480582659E+02 0.  0.
        -24    2    1    2    0    0  0.15336572930E+03 -0.88619522206E+01  0.14748138496E+03  0.22753959383E+03  0.80149402551E+02 0.  0.
         13    1    4    4    0    0  0.54566041645E+02 -0.36343838157E+02  0.31543689448E+02  0.72755287208E+02  0.00000000000E+00 0. -1.
        -14    1    4    4    0    0  0.98799687652E+02  0.27481885936E+02  0.11593769551E+03  0.15478430662E+03  0.00000000000E+00 0.  1.
        -11    1    3    3    0    0 -0.16358861670E+02  0.40308332796E+02 -0.34994529376E+02  0.55830020009E+02  0.00000000000E+00 0.  1.
         11    1    3    3    0    0 -0.10298487262E+03 -0.43087377331E+01  0.84404362594E+01  0.10341996990E+03  0.00000000000E+00 0. -1.
         21    1    1    2  502  501 -0.34021995008E+02 -0.27137642842E+02  0.29451711870E+03  0.29771510041E+03  0.00000000000E+00 0. -1.
<scales pt_clust_5="13000.00000" pt_clust_6="13000.00000" pt_clust_7="13000.00000" pt_clust_8="13000.00000" pt_clust_9="43.51951"></scales>
<clustering>
<clus scale="   43.520">  1  9  2 -1</clus>
<clus scale="   80.149">  5  6 -1 -1</clus>
<clus scale="   95.481">  7  8 -1 -1</clus>
<clus scale="  153.961">  1  5  2 -1</clus>
<clus scale="   43.520">  1  5  2 -1</clus>
</clustering>
</event>
<event>
 9    1  0.2674825E-005  0.8962647E+02  0.7546771E-02  0.1309426E+00
          1   -1    0    0  502    0  0.00000000000E+00  0.00000000000E+00  0.14610279157E+03  0.14610279157E+03  0.00000000000E+00 0. -1.
         -2   -1    0    0    0  501 -0.00000000000E+00 -0.00000000000E+00 -0.14379026360E+03  0.14379026360E+03  0.00000000000E+00 0.  1.
         23    2    1    2    0    0  0.10995394707E+02 -0.16252227424E+01 -0.99167890131E+02  0.13352490608E+03  0.88719163971E+02 0.  0.
        -24    2    1    2    0    0 -0.18292187617E+02 -0.21776356086E+02  0.47628132055E+02  0.97199358413E+02  0.79815177132E+02 0.  0.
         11    1    4    4    0    0 -0.24138818206E+02  0.23982292829E+02  0.50070604206E+01  0.34393365171E+02  0.00000000000E+00 0. -1.
        -12    1    4    4    0    0  0.58466305890E+01 -0.45758648915E+02  0.42621071635E+02  0.62805993242E+02  0.00000000000E+00 0.  1.
        -11    1    3    3    0    0 -0.35900452755E+02  0.41284219774E+01 -0.67749968784E+02  0.76785054837E+02  0.00000000000E+00 0.  1.
         11    1    3    3    0    0  0.46895847463E+02 -0.57536447198E+01 -0.31417921348E+02  0.56739851239E+02  0.00000000000E+00 0. -1.
         21    1    1    2  502  501  0.72967929098E+01  0.23401578828E+02  0.53852286045E+02  0.59168790682E+02  0.00000000000E+00 0. -1.
<scales pt_clust_5="13000.00000" pt_clust_6="13000.00000" pt_clust_7="13000.00000" pt_clust_8="13000.00000" pt_clust_9="24.51279"></scales>
<clustering>
<clus scale="   24.513">  1  9  2 -1</clus>
<clus scale="   79.815">  5  6 -1 -1</clus>
<clus scale="   80.822">  1  5  2 -1</clus>
<clus scale="   88.719">  7  8 -1 -1</clus>
<clus scale="   24.513">  1  5  2 -1</clus>
</clustering>
</event>
<event>
 9    1  0.2674825E-005  0.1038584E+03  0.7546771E-02  0.1281267E+00
          1   -1    0    0  502    0  0.00000000000E+00  0.00000000000E+00  0.50666620387E+03  0.50666620387E+03  0.00000000000E+00 0. -1.
         -2   -1    0    0    0  501 -0.00000000000E+00 -0.00000000000E+00 -0.24229792185E+02  0.24229792185E+02  0.00000000000E+00 0.  1.
        -24    2    1    2    0    0 -0.39777657547E+02  0.40722292558E+02  0.14963426783E+03  0.17613060445E+03  0.73423487812E+02 0.  0.
         23    2    1    2    0    0  0.21193539719E+02 -0.24054107361E+02  0.27484172973E+03  0.29165748847E+03  0.92186484754E+02 0.  0.
         13    1    3    3    0    0  0.12556143563E+02  0.36717567016E+02  0.47823293741E+02  0.61586556106E+02  0.00000000000E+00 0. -1.
        -14    1    3    3    0    0 -0.52333801110E+02  0.40047255415E+01  0.10181097409E+03  0.11454404834E+03  0.00000000000E+00 0.  1.
        -13    1    4    4    0    0 -0.36231837019E+02 -0.71477714335E+01  0.12361692605E+03  0.12901542953E+03  0.00000000000E+00 0.  1.
         13    1    4    4    0    0  0.57425376738E+02 -0.16906335927E+02  0.15122480368E+03  0.16264205894E+03  0.00000000000E+00 0. -1.
         21    1    1    2  502  501  0.18584117828E+02 -0.16668185197E+02  0.57960414121E+02  0.63107903136E+02  0.00000000000E+00 0. -1.
<scales pt_clust_5="13000.00000" pt_clust_6="13000.00000" pt_clust_7="13000.00000" pt_clust_8="13000.00000" pt_clust_9="24.96393"></scales>
<clustering>
<clus scale="   24.964">  1  9  2 -1</clus>
<clus scale="   73.423">  5  6 -1 -1</clus>
<clus scale="   87.631">  2  5  1 -1</clus>
<clus scale="   92.186">  7  8 -1 -1</clus>
<clus scale="   24.964">  1  5  2 -1</clus>
</clustering>
</event>
<event>
 9    1  0.2674825E-005  0.1668939E+03  0.7546771E-02  0.1186716E+00
          1   -1    0    0  502    0  0.00000000000E+00  0.00000000000E+00  0.18757159728E+04  0.18757159728E+04  0.00000000000E+00 0. -1.
         -2   -1    0    0    0  501 -0.00000000000E+00 -0.00000000000E+00 -0.96401817104E+02  0.96401817104E+02  0.00000000000E+00 0.  1.
        -24    2    1    2    0    0 -0.33550544409E+01 -0.12309465647E+03 -0.97609427613E+01  0.14763693294E+03  0.80856892850E+02 0.  0.
         23    2    1    2    0    0 -0.13381996557E+03  0.54248053700E+02  0.54126391013E+03  0.56726583855E+03  0.89293206114E+02 0.  0.
         13    1    3    3    0    0  0.26051102479E+02 -0.25269999615E+02 -0.25398549414E+02  0.44298071439E+02  0.00000000000E+00 0. -1.
        -14    1    3    3    0    0 -0.29406156920E+02 -0.97824656855E+02  0.15637606652E+02  0.10333886150E+03  0.00000000000E+00 0.  1.
        -13    1    4    4    0    0 -0.72377083011E+01  0.41979469373E+02  0.13467574786E+03  0.14125231797E+03  0.00000000000E+00 0. -1.
         13    1    4    4    0    0 -0.12658225727E+03  0.12268584327E+02  0.40658816227E+03  0.42601352058E+03  0.00000000000E+00 0.  1.
         21    1    1    2  502  501  0.13717502001E+03  0.68846602771E+02  0.12478111884E+04  0.12572150185E+04  0.00000000000E+00 0. -1.
<scales pt_clust_5="13000.00000" pt_clust_6="13000.00000" pt_clust_7="13000.00000" pt_clust_8="13000.00000" pt_clust_9="140.99753"></scales>
<clustering>
<clus scale="   80.857">  5  6 -1 -1</clus>
<clus scale="   89.293">  7  8 -1 -1</clus>
<clus scale="  147.314">  2  5  1 -1</clus>
<clus scale="  140.998">  1  9  2 -1</clus>
<clus scale="  140.998">  1  5  2 -1</clus>
</clustering>
</event>
<event>
 9    1  0.2674825E-005  0.9727034E+02  0.7546771E-02  0.1292470E+00
          1   -1    0    0  502    0  0.00000000000E+00  0.00000000000E+00  0.34699821964E+03  0.34699821964E+03  0.00000000000E+00 0. -1.
         -2   -1    0    0    0  501 -0.00000000000E+00 -0.00000000000E+00 -0.12346245116E+03  0.12346245116E+03  0.00000000000E+00 0.  1.
        -24    2    1    2    0    0 -0.30362665318E+02 -0.10904468901E+02 -0.91753407013E+02  0.12620916230E+03  0.80431747861E+02 0.  0.
         23    2    1    2    0    0  0.78305045007E+01  0.32781248260E+02  0.28174010542E+03  0.29829683682E+03  0.92019502368E+02 0.  0.
         13    1    3    3    0    0 -0.42176242262E+02  0.21214049460E+02 -0.73679592779E+02  0.87507449386E+02  0.00000000000E+00 0. -1.
        -14    1    3    3    0    0  0.11813576944E+02 -0.32118518361E+02 -0.18073814233E+02  0.38701712919E+02  0.00000000000E+00 0.  1.
        -13    1    4    4    0    0  0.21645622274E+02 -0.27486485954E+02  0.80549564838E+02  0.87819543778E+02  0.00000000000E+00 0.  1.
         13    1    4    4    0    0 -0.13815117774E+02  0.60267734214E+02  0.20119054058E+03  0.21047729304E+03  0.00000000000E+00 0. -1.
         21    1    1    2  502  501  0.22532160817E+02 -0.21876779359E+02  0.33549070071E+02  0.45954671676E+02  0.00000000000E+00 0.  1.
<scales pt_clust_5="13000.00000" pt_clust_6="13000.00000" pt_clust_7="13000.00000" pt_clust_8="13000.00000" pt_clust_9="31.40528"></scales>
<clustering>
<clus scale="   31.405">  1  9  2 -1</clus>
<clus scale="   80.432">  5  6 -1 -1</clus>
<clus scale="   86.390">  2  5  1 -1</clus>
<clus scale="   92.020">  7  8 -1 -1</clus>
<clus scale="   31.405">  1  5  2 -1</clus>
</clustering>
</event>
<event>
 9    1  0.2674825E-005  0.1134954E+03  0.7546771E-02  0.1261869E+00
         -2   -1    0    0    0  501 -0.00000000000E+00  0.00000000000E+00  0.12331863304E+03  0.12331863304E+03  0.00000000000E+00 0.  1.
          1   -1    0    0  502    0  0.00000000000E+00 -0.00000000000E+00 -0.13774672763E+03  0.13774672763E+03  0.00000000000E+00 0. -1.
        -24    2    1    2    0    0 -0.19669810450E+02 -0.28355193673E+02  0.25131496591E+02  0.90907984366E+02  0.80260519866E+02 0.  0.
         23    2    1    2    0    0  0.41995158038E+02  0.56017812808E+02 -0.52808250202E+02  0.13222100052E+03  0.98955005126E+02 0.  0.
         11    1    3    3    0    0  0.72192548918E+01 -0.48541044182E+02  0.29096511075E+02  0.57052235436E+02  0.00000000000E+00 0. -1.
        -12    1    3    3    0    0 -0.26889065342E+02  0.20185850509E+02 -0.39650144845E+01  0.33855748930E+02  0.00000000000E+00 0.  1.
        -11    1    4    4    0    0  0.10794361594E+02  0.65472528896E+02  0.42641175149E+01  0.66493255150E+02  0.00000000000E+00 0.  1.
         11    1    4    4    0    0  0.31200796444E+02 -0.94547160885E+01 -0.57072367717E+02  0.65727745373E+02  0.00000000000E+00 0. -1.
         21    1    1    2  502  501 -0.22325347587E+02 -0.27662619134E+02  0.13248659020E+02  0.37936375790E+02  0.00000000000E+00 0.  1.
<scales pt_clust_5="13000.00000" pt_clust_6="13000.00000" pt_clust_7="13000.00000" pt_clust_8="13000.00000" pt_clust_9="35.54774"></scales>
<clustering>
<clus scale="   35.548">  1  9  2 -1</clus>
<clus scale="   80.261">  5  6 -1 -1</clus>
<clus scale="   97.626">  1  5  2 -1</clus>
<clus scale="   98.955">  7  8 -1 -1</clus>
<clus scale="  113.495">  2  5  1 -1</clus>
</clustering>
</event>
<event>
 9    1  0.2674825E-005  0.9238598E+02  0.7546771E-02  0.1301469E+00
         -2   -1    0    0    0  501 -0.00000000000E+00  0.00000000000E+00  0.56639928080E+02  0.56639928080E+02  0.00000000000E+00 0.  1.
          1   -1    0    0  502    0  0.00000000000E+00 -0.00000000000E+00 -0.28591298312E+03  0.28591298312E+03  0.00000000000E+00 0. -1.
         23    2    1    2    0    0  0.23601073670E+02  0.14288143050E+02 -0.37807222514E+02  0.10180311210E+03  0.90406448047E+02 0.  0.
        -24    2    1    2    0    0  0.30775417830E+01  0.31244882655E+02 -0.14669797963E+03  0.17154600148E+03  0.83198674515E+02 0.  0.
         13    1    4    4    0    0  0.38054926932E+02  0.22016920986E+01 -0.96839200861E+02  0.10407139730E+03  0.00000000000E+00 0. -1.
        -14    1    4    4    0    0 -0.34977385149E+02  0.29043190556E+02 -0.49858778771E+02  0.67474604186E+02  0.00000000000E+00 0.  1.
        -13    1    3    3    0    0  0.50259644511E+02  0.80517912729E+01 -0.50432469446E+02  0.71654010240E+02  0.00000000000E+00 0. -1.
         13    1    3    3    0    0 -0.26658570841E+02  0.62363517773E+01  0.12625246932E+02  0.30149101858E+02  0.00000000000E+00 0.  1.
         21    1    1    2  502  501 -0.26678615453E+02 -0.45533025705E+02 -0.44767852898E+02  0.69203797623E+02  0.00000000000E+00 0. -1.
<scales pt_clust_5="13000.00000" pt_clust_6="13000.00000" pt_clust_7="13000.00000" pt_clust_8="13000.00000" pt_clust_9="52.77315"></scales>
<clustering>
<clus scale="   52.773">  1  9  2 -1</clus>
<clus scale="   83.199">  5  6 -1 -1</clus>
<clus scale="   85.346">  2  5  1 -1</clus>
<clus scale="   90.406">  7  8 -1 -1</clus>
<clus scale="   85.346">  2  5  1 -1</clus>
</clustering>
</event>
<event>
 9    1  0.2674825E-005  0.1200277E+03  0.7546771E-02  0.1248970E+00
         -2   -1    0    0    0  501 -0.00000000000E+00  0.00000000000E+00  0.20033482582E+03  0.20033482582E+03  0.00000000000E+00 0.  1.
          1   -1    0    0  502    0  0.00000000000E+00 -0.00000000000E+00 -0.17235787006E+03  0.17235787006E+03  0.00000000000E+00 0. -1.
         23    2    1    2    0    0 -0.63380702701E+02  0.24995322138E+02  0.13752202819E+03  0.18170455551E+03  0.97274650621E+02 0.  0.
        -24    2    1    2    0    0  0.81751194590E+02 -0.52295096668E+01 -0.48781996710E+02  0.12450270072E+03  0.80066433015E+02 0.  0.
         13    1    4    4    0    0  0.93460311258E+02  0.77329430292E+01 -0.51235964193E+02  0.10686324071E+03  0.00000000000E+00 0. -1.
        -14    1    4    4    0    0 -0.11709116669E+02 -0.12962452696E+02  0.24539674839E+01  0.17639460011E+02  0.00000000000E+00 0.  1.
        -13    1    3    3    0    0  0.11916434956E+02  0.24221723532E+02  0.25069519289E+01  0.27110479909E+02  0.00000000000E+00 0. -1.
         13    1    3    3    0    0 -0.75297137657E+02  0.77359860542E+00  0.13501507626E+03  0.15459407560E+03  0.00000000000E+00 0.  1.
         21    1    1    2  502  501 -0.18370491889E+02 -0.19765812471E+02 -0.60763075714E+02  0.66485439647E+02  0.00000000000E+00 0. -1.
<scales pt_clust_5="13000.00000" pt_clust_6="13000.00000" pt_clust_7="13000.00000" pt_clust_8="13000.00000" pt_clust_9="26.98448"></scales>
<clustering>
<clus scale="   26.984">  2  9  1 -1</clus>
<clus scale="   80.066">  5  6 -1 -1</clus>
<clus scale="   97.275">  7  8 -1 -1</clus>
<clus scale="  106.560">  2  5  1 -1</clus>
<clus scale="   26.984">  2  5  1 -1</clus>
</clustering>
</event>
<event>
 9    1  0.2674825E-005  0.1119719E+03  0.7546771E-02  0.1261019E+00
          3   -1    0    0  502    0  0.00000000000E+00  0.00000000000E+00  0.10473076226E+03  0.10473076226E+03  0.00000000000E+00 0. -1.
         -4   -1    0    0    0  501 -0.00000000000E+00 -0.00000000000E+00 -0.22623917850E+03  0.22623917850E+03  0.00000000000E+00 0.  1.
         23    2    1    2    0    0  0.22927132019E+02  0.62428399907E+02 -0.13941639148E+03  0.17882596371E+03  0.90104586928E+02 0.  0.
        -24    2    1    2    0    0  0.61392744310E+01 -0.70802826891E+02 -0.15007387735E+02  0.10744041868E+03  0.79167486339E+02 0.  0.
         13    1    4    4    0    0  0.11933154553E+02 -0.82680535690E+02  0.47482421658E+01  0.83672079950E+02  0.00000000000E+00 0. -1.
        -14    1    4    4    0    0 -0.57938801223E+01  0.11877708799E+02 -0.19755629901E+02  0.23768338730E+02  0.00000000000E+00 0.  1.
        -13    1    3    3    0    0 -0.24162915628E+02  0.36487609397E+02 -0.10806507261E+03  0.11659010271E+03  0.00000000000E+00 0.  1.
         13    1    3    3    0    0  0.47090047647E+02  0.25940790511E+02 -0.31351318870E+02  0.62235861002E+02  0.00000000000E+00 0. -1.
         21    1    1    2  502  501 -0.29066406450E+02  0.83744269834E+01  0.32915362981E+02  0.44703558375E+02  0.00000000000E+00 0. -1.
<scales pt_clust_5="13000.00000" pt_clust_6="13000.00000" pt_clust_7="13000.00000" pt_clust_8="13000.00000" pt_clust_9="30.24875"></scales>
<clustering>
<clus scale="   30.249">  1  9  2 -1</clus>
<clus scale="   79.167">  5  6 -1 -1</clus>
<clus scale="   90.105">  7  8 -1 -1</clus>
<clus scale="  103.375">  1  5  2 -1</clus>
<clus scale="   30.249">  1  5  2 -1</clus>
</clustering>
</event>
<event>
 9    1  0.2674825E-005  0.1189503E+03  0.7546771E-02  0.1261871E+00
         -2   -1    0    0    0  501 -0.00000000000E+00  0.00000000000E+00  0.41809114084E+03  0.41809114084E+03  0.00000000000E+00 0.  1.
          1   -1    0    0  502    0  0.00000000000E+00 -0.00000000000E+00 -0.31342673619E+03  0.31342673619E+03  0.00000000000E+00 0. -1.
        -24    2    1    2    0    0 -0.19282059783E+02 -0.24458483271E+01  0.24755566117E+02  0.88338734895E+02  0.82541589672E+02 0.  0.
         23    2    1    2    0    0 -0.54665953743E+02 -0.53571385077E+02 -0.26270158087E+03  0.28823106336E+03  0.90591199897E+02 0.  0.
         11    1    3    3    0    0 -0.60121795174E+01 -0.36781922058E+02 -0.90576072311E+01  0.38354873766E+02  0.00000000000E+00 0. -1.
        -12    1    3    3    0    0 -0.13269880265E+02  0.34336073731E+02  0.33813173348E+02  0.49983861129E+02  0.00000000000E+00 0.  1.
        -13    1    4    4    0    0  0.55151621312E+01 -0.53673164587E+02 -0.16380754881E+03  0.17246489109E+03  0.00000000000E+00 0. -1.
         13    1    4    4    0    0 -0.60181115874E+02  0.10177950917E+00 -0.98894032056E+02  0.11576617228E+03  0.00000000000E+00 0.  1.
         21    1    1    2  502  501  0.73948013526E+02  0.56017233404E+02  0.34261041940E+03  0.35494807877E+03  0.00000000000E+00 0.  1.
<scales pt_clust_5="13000.00000" pt_clust_6="13000.00000" pt_clust_7="13000.00000" pt_clust_8="13000.00000" pt_clust_9="77.08705"></scales>
<clustering>
<clus scale="   82.542">  5  6 -1 -1</clus>
<clus scale="   84.799">  1  5  2 -1</clus>
<clus scale="   77.087">  1  9  2 -1</clus>
<clus scale="   90.591">  7  8 -1 -1</clus>
<clus scale="  118.950">  2  5  1 -1</clus>
</clustering>
</event>
<event>
 9    1  0.2674825E-005  0.1240425E+03  0.7546771E-02  0.1240495E+00
          1   -1    0    0  502    0  0.00000000000E+00  0.00000000000E+00  0.40491216761E+03  0.40491216761E+03  0.00000000000E+00 0. -1.
         -2   -1    0    0    0  501 -0.00000000000E+00 -0.00000000000E+00 -0.65175972249E+02  0.65175972249E+02  0.00000000000E+00 0.  1.
         23    2    1    2    0    0  0.86598092297E+02  0.20181184044E+02  0.79085673438E+02  0.15044991348E+03  0.92054999562E+02 0.  0.
        -24    2    1    2    0    0 -0.49571918816E+02 -0.74343880335E+02  0.15935466539E+03  0.19895108646E+03  0.78760635737E+02 0.  0.
         11    1    4    4    0    0 -0.52944590813E+00 -0.68007437351E+02  0.75610677984E+02  0.10169693443E+03  0.00000000000E+00 0. -1.
        -12    1    4    4    0    0 -0.49042472908E+02 -0.63364429836E+01  0.83743987409E+02  0.97254152023E+02  0.00000000000E+00 0.  1.
        -13    1    3    3    0    0  0.49317769313E+02  0.27072318606E+02  0.94130655942E+02  0.10966190402E+03  0.00000000000E+00 0.  1.
         13    1    3    3    0    0  0.37280322983E+02 -0.68911345623E+01 -0.15044982505E+02  0.40788009462E+02  0.00000000000E+00 0. -1.
         21    1    1    2  502  501 -0.37026173481E+02  0.54162696291E+02  0.10129585653E+03  0.12068713992E+03  0.00000000000E+00 0.  1.
<scales pt_clust_5="13000.00000" pt_clust_6="13000.00000" pt_clust_7="13000.00000" pt_clust_8="13000.00000" pt_clust_9="65.60896"></scales>
<clustering>
<clus scale="   65.609">  1  9  2 -1</clus>
<clus scale="   78.761">  5  6 -1 -1</clus>
<clus scale="   92.055">  7  8 -1 -1</clus>
<clus scale="  114.524">  1  5  2 -1</clus>
<clus scale="   65.609">  1  5  2 -1</clus>
</clustering>
</event>
<event>
 9    1  0.2674825E-005  0.9287256E+02  0.7546771E-02  0.1301196E+00
         -2   -1    0    0    0  501 -0.00000000000E+00  0.00000000000E+00  0.11714746098E+03  0.11714746098E+03  0.00000000000E+00 0.  1.
          1   -1    0    0  502    0  0.00000000000E+00 -0.00000000000E+00 -0.28491921727E+03  0.28491921727E+03  0.00000000000E+00 0. -1.
         23    2    1    2    0    0  0.16508452020E+02  0.16198867442E+02  0.85077021892E+02  0.12627352041E+03  0.90398949147E+02 0.  0.
        -24    2    1    2    0    0  0.11494636842E+01 -0.17264448035E+01 -0.22720335455E+03  0.24145745111E+03  0.81707003972E+02 0.  0.
         11    1    4    4    0    0  0.31423596152E+02 -0.24235090052E+02 -0.15492101850E+03  0.15992280625E+03  0.00000000000E+00 0. -1.
        -12    1    4    4    0    0 -0.30274132467E+02  0.22508645248E+02 -0.72282336047E+02  0.81534644857E+02  0.00000000000E+00 0.  1.
        -13    1    3    3    0    0 -0.35618224456E+02  0.19076653104E+02  0.29544294588E+02  0.50054389916E+02  0.00000000000E+00 0. -1.
         13    1    3    3    0    0  0.52126676477E+02 -0.28777856619E+01  0.55532727304E+02  0.76219130490E+02  0.00000000000E+00 0.  1.
         21    1    1    2  502  501 -0.17657915704E+02 -0.14472422639E+02 -0.25645423626E+02  0.34335706736E+02  0.00000000000E+00 0. -1.
<scales pt_clust_5="13000.00000" pt_clust_6="13000.00000" pt_clust_7="13000.00000" pt_clust_8="13000.00000" pt_clust_9="22.83097"></scales>
<clustering>
<clus scale="   22.831">  2  9  1 -1</clus>
<clus scale="   81.707">  5  6 -1 -1</clus>
<clus scale="   84.436">  2  5  1 -1</clus>
<clus scale="   90.399">  7  8 -1 -1</clus>
<clus scale="   22.831">  2  5  1 -1</clus>
</clustering>
</event>
<event>
 9    1  0.2674825E-005  0.1552218E+03  0.7546771E-02  0.1202246E+00
         -2   -1    0    0    0  501 -0.00000000000E+00  0.00000000000E+00  0.12908183212E+03  0.12908183212E+03  0.00000000000E+00 0.  1.
          1   -1    0    0  502    0  0.00000000000E+00 -0.00000000000E+00 -0.25407882341E+03  0.25407882341E+03  0.00000000000E+00 0. -1.
         23    2    1    2    0    0 -0.82941148233E+02 -0.43662970781E+02 -0.12935768106E+02  0.15039168146E+03  0.11689582828E+03 0.  0.
        -24    2    1    2    0    0  0.90630429138E+02  0.63547729950E+02 -0.20316301785E+02  0.13857948797E+03  0.80866146816E+02 0.  0.
         11    1    4    4    0    0  0.10342564971E+03  0.66840009016E+02 -0.22516229468E+02  0.12518559187E+03  0.00000000000E+00 0. -1.
        -12    1    4    4    0    0 -0.12795220571E+02 -0.32922790661E+01  0.21999276836E+01  0.13393896100E+02  0.00000000000E+00 0.  1.
        -11    1    3    3    0    0  0.23372980221E+02 -0.16890497994E+02  0.20946786582E+02  0.35642011658E+02  0.00000000000E+00 0.  1.
         11    1    3    3    0    0 -0.10631412845E+03 -0.26772472787E+02 -0.33882554688E+02  0.11474966980E+03  0.00000000000E+00 0. -1.
         21    1    1    2  502  501 -0.76892809054E+01 -0.19884759169E+02 -0.91744921397E+02  0.94189486092E+02  0.00000000000E+00 0.  1.
<scales pt_clust_5="13000.00000" pt_clust_6="13000.00000" pt_clust_7="13000.00000" pt_clust_8="13000.00000" pt_clust_9="21.31968"></scales>
<clustering>
<clus scale="   21.320">  2  9  1 -1</clus>
<clus scale="   80.866">  5  6 -1 -1</clus>
<clus scale="  116.896">  7  8 -1 -1</clus>
<clus scale="  130.263">  2  5  1 -1</clus>
<clus scale="   21.320">  2  5  1 -1</clus>
</clustering>
</event>
<event>
 9    1  0.2674825E-005  0.1229690E+03  0.7546771E-02  0.1240414E+00
         -2   -1    0    0    0  501 -0.00000000000E+00  0.00000000000E+00  0.12864867029E+03  0.12864867029E+03  0.00000000000E+00 0.  1.
          1   -1    0    0  502    0  0.00000000000E+00 -0.00000000000E+00 -0.19217153464E+03  0.19217153464E+03  0.00000000000E+00 0. -1.
        -24    2    1    2    0    0  0.78706233846E+02  0.38755203418E+02  0.57323867845E+02  0.13176520498E+03  0.79871186172E+02 0.  0.
         23    2    1    2    0    0 -0.63596560115E+02 -0.55132191973E+02 -0.11186244554E+03  0.16502948433E+03  0.87392464923E+02 0.  0.
         11    1    3    3    0    0  0.30664337920E+02 -0.14836330366E+02 -0.75255716661E+01  0.34886280221E+02  0.00000000000E+00 0. -1.
        -12    1    3    3    0    0  0.48041895926E+02  0.53591533784E+02  0.64849439512E+02  0.96878924759E+02  0.00000000000E+00 0.  1.
        -13    1    4    4    0    0  0.55137440823E+01 -0.49571753400E+02 -0.62282239934E+02  0.79792465310E+02  0.00000000000E+00 0. -1.
         13    1    4    4    0    0 -0.69110304197E+02 -0.55604385734E+01 -0.49580205609E+02  0.85237019021E+02  0.00000000000E+00 0.  1.
         21    1    1    2  502  501 -0.15109673731E+02  0.16376988555E+02 -0.89842866461E+01  0.24025515622E+02  0.00000000000E+00 0.  1.
<scales pt_clust_5="13000.00000" pt_clust_6="13000.00000" pt_clust_7="13000.00000" pt_clust_8="13000.00000" pt_clust_9="22.28246"></scales>
<clustering>
<clus scale="   22.282">  2  9  1 -1</clus>
<clus scale="   79.871">  5  6 -1 -1</clus>
<clus scale="   87.392">  7  8 -1 -1</clus>
<clus scale="  117.743">  1  5  2 -1</clus>
<clus scale="   22.282">  2  5  1 -1</clus>
</clustering>
</event>
<event>
 9    1  0.2674825E-005  0.1507408E+03  0.7546771E-02  0.1199658E+00
         -2   -1    0    0    0  501 -0.00000000000E+00  0.00000000000E+00  0.20412874133E+03  0.20412874133E+03  0.00000000000E+00 0.  1.
          1   -1    0    0  502    0  0.00000000000E+00 -0.00000000000E+00 -0.91727165923E+03  0.91727165923E+03  0.00000000000E+00 0. -1.
        -24    2    1    2    0    0  0.12659819792E+03  0.78839952776E+01  0.16601467297E+03  0.22527701512E+03  0.84259128906E+02 0.  0.
         23    2    1    2    0    0 -0.85714771293E+02 -0.33425177445E+02 -0.58940213476E+03  0.60238535436E+03  0.83719616522E+02 0.  0.
         11    1    3    3    0    0  0.52855652256E+02  0.21045049139E+01  0.11737626311E+02  0.54184137788E+02  0.00000000000E+00 0. -1.
        -12    1    3    3    0    0  0.73742545660E+02  0.57794903637E+01  0.15427704665E+03  0.17109287733E+03  0.00000000000E+00 0.  1.
        -11    1    4    4    0    0  0.90849847709E+01 -0.25035621704E+02 -0.84698689988E+02  0.88787315468E+02  0.00000000000E+00 0.  1.
         11    1    4    4    0    0 -0.94799756064E+02 -0.83895557403E+01 -0.50470344477E+03  0.51359803889E+03  0.00000000000E+00 0. -1.
         21    1    1    2  502  501 -0.40883426624E+02  0.25541182167E+02 -0.28975545610E+03  0.29373803108E+03  0.00000000000E+00 0. -1.
<scales pt_clust_5="13000.00000" pt_clust_6="13000.00000" pt_clust_7="13000.00000" pt_clust_8="13000.00000" pt_clust_9="48.20588"></scales>
<clustering>
<clus scale="   48.206">  2  9  1 -1</clus>
<clus scale="   83.720">  7  8 -1 -1</clus>
<clus scale="   84.259">  5  6 -1 -1</clus>
<clus scale="  150.440">  2  7  1 -1</clus>
<clus scale="   48.206">  2  5  1 -1</clus>
</clustering>
</event>
<event>
 9    1  0.2674825E-005  0.2992511E+03  0.7546771E-02  0.1085961E+00
          1   -1    0    0  502    0  0.00000000000E+00  0.00000000000E+00  0.85707884395E+02  0.85707884395E+02  0.00000000000E+00 0. -1.
         -2   -1    0    0    0  501 -0.00000000000E+00 -0.00000000000E+00 -0.14085146900E+04  0.14085146900E+04  0.00000000000E+00 0.  1.
         23    2    1    2    0    0 -0.19903410055E+03  0.19746920512E+03 -0.74983478361E+03  0.80574321167E+03  0.91439927155E+02 0.  0.
        -24    2    1    2    0    0  0.22495076092E+03 -0.18563842504E+03 -0.58401467431E+03  0.65792480803E+03  0.82020994386E+02 0.  0.
         13    1    4    4    0    0  0.12348269703E+03 -0.12496286581E+03 -0.26730544643E+03  0.31986856049E+03  0.00000000000E+00 0. -1.
        -14    1    4    4    0    0  0.10146806389E+03 -0.60675559236E+02 -0.31670922788E+03  0.33805624755E+03  0.00000000000E+00 0.  1.
        -13    1    3    3    0    0 -0.16115846069E+03  0.18209545107E+03 -0.54379429539E+03  0.59568703062E+03  0.00000000000E+00 0.  1.
         13    1    3    3    0    0 -0.37875639866E+02  0.15373754053E+02 -0.20604048822E+03  0.21005618105E+03  0.00000000000E+00 0. -1.
         21    1    1    2  502  501 -0.25916660370E+02 -0.11830780075E+02  0.11042652325E+02  0.30554554690E+02  0.00000000000E+00 0.  1.
<scales pt_clust_5="13000.00000" pt_clust_6="13000.00000" pt_clust_7="13000.00000" pt_clust_8="13000.00000" pt_clust_9="28.48931"></scales>
<clustering>
<clus scale="   28.489">  1  9  2 -1</clus>
<clus scale="   82.021">  5  6 -1 -1</clus>
<clus scale="   91.440">  7  8 -1 -1</clus>
<clus scale="  296.509">  1  5  2 -1</clus>
<clus scale="   28.489">  1  5  2 -1</clus>
</clustering>
</event>
<event>
 9    1  0.2674825E-005  0.1430429E+03  0.7546771E-02  0.1210730E+00
          1   -1    0    0  502    0  0.00000000000E+00  0.00000000000E+00  0.20338194714E+03  0.20338194714E+03  0.00000000000E+00 0. -1.
         -2   -1    0    0    0  501 -0.00000000000E+00 -0.00000000000E+00 -0.45787519104E+03  0.45787519104E+03  0.00000000000E+00 0.  1.
         23    2    1    2    0    0  0.68782930412E+02  0.85960171255E+02 -0.39222341689E+03  0.41731975764E+03  0.90533578303E+02 0.  0.
        -24    2    1    2    0    0 -0.37287829674E+02 -0.12145606337E+03  0.11832961077E+03  0.19267061216E+03  0.83535085035E+02 0.  0.
         11    1    4    4    0    0 -0.44290963103E+02 -0.10914011010E+03  0.12918666013E+03  0.17482118350E+03  0.00000000000E+00 0. -1.
        -12    1    4    4    0    0  0.70031334281E+01 -0.12315953272E+02 -0.10857049353E+02  0.17849428660E+02  0.00000000000E+00 0.  1.
        -13    1    3    3    0    0  0.74125349746E+02  0.48001412911E+02 -0.34687829379E+03  0.35794308740E+03  0.00000000000E+00 0.  1.
         13    1    3    3    0    0 -0.53424193341E+01  0.37958758344E+02 -0.45345123097E+02  0.59376670233E+02  0.00000000000E+00 0. -1.
         21    1    1    2  502  501 -0.31495100738E+02  0.35495892117E+02  0.19400562213E+02  0.51266768397E+02  0.00000000000E+00 0. -1.
<scales pt_clust_5="13000.00000" pt_clust_6="13000.00000" pt_clust_7="13000.00000" pt_clust_8="13000.00000" pt_clust_9="47.45419"></scales>
<clustering>
<clus scale="   47.454">  1  9  2 -1</clus>
<clus scale="   83.535">  5  6 -1 -1</clus>
<clus scale="   90.534">  7  8 -1 -1</clus>
<clus scale="  138.719">  1  5  2 -1</clus>
<clus scale="   47.454">  1  5  2 -1</clus>
</clustering>
</event>
<event>
 9    1  0.2674825E-005  0.9625586E+02  0.7546771E-02  0.1293452E+00
          1   -1    0    0  502    0  0.00000000000E+00  0.00000000000E+00  0.64677551549E+03  0.64677551549E+03  0.00000000000E+00 0. -1.
         -2   -1    0    0    0  501 -0.00000000000E+00 -0.00000000000E+00 -0.21144404172E+03  0.21144404172E+03  0.00000000000E+00 0.  1.
         23    2    1    2    0    0 -0.27043339734E+02 -0.26393925113E+02 -0.17911473740E+03  0.20437333531E+03  0.90875681698E+02 0.  0.
        -24    2    1    2    0    0 -0.52952131173E+02 -0.46675543401E+01  0.13311804106E+03  0.16492813242E+03  0.81579174724E+02 0.  0.
         13    1    4    4    0    0 -0.18390940898E+02  0.20187457373E+02  0.11578893246E+03  0.11896569683E+03  0.00000000000E+00 0. -1.
        -14    1    4    4    0    0 -0.34561190275E+02 -0.24855011713E+02  0.17329108600E+02  0.45962435590E+02  0.00000000000E+00 0.  1.
        -13    1    3    3    0    0 -0.49114280888E+02 -0.43923710589E+02 -0.15008541524E+03  0.16391197884E+03  0.00000000000E+00 0.  1.
         13    1    3    3    0    0  0.22070941154E+02  0.17529785476E+02 -0.29029322162E+02  0.40461356471E+02  0.00000000000E+00 0. -1.
         21    1    1    2  502  501  0.79995470907E+02  0.31061479453E+02  0.48132817012E+03  0.48891808948E+03  0.00000000000E+00 0. -1.
<scales pt_clust_5="13000.00000" pt_clust_6="13000.00000" pt_clust_7="13000.00000" pt_clust_8="13000.00000" pt_clust_9="85.81428"></scales>
<clustering>
<clus scale="   81.579">  5  6 -1 -1</clus>
<clus scale="   85.814">  1  9  2 -1</clus>
<clus scale="   87.533">  1  5  2 -1</clus>
<clus scale="   90.876">  7  8 -1 -1</clus>
<clus scale="   85.814">  1  5  2 -1</clus>
</clustering>
</event>
<event>
 9    1  0.2674825E-005  0.1014951E+03  0.7546771E-02  0.1283774E+00
          1   -1    0    0  502    0  0.00000000000E+00  0.00000000000E+00  0.15590523344E+03  0.15590523344E+03  0.00000000000E+00 0. -1.
         -2   -1    0    0    0  501 -0.00000000000E+00 -0.00000000000E+00 -0.20129365037E+03  0.20129365037E+03  0.00000000000E+00 0.  1.
        -24    2    1    2    0    0  0.16118422302E+02  0.13688057035E+02 -0.16256666382E+03  0.18584537680E+03  0.87540947267E+02 0.  0.
         23    2    1    2    0    0  0.23357478200E+01  0.11680842391E+01  0.83076903406E+02  0.12983046574E+03  0.99736441771E+02 0.  0.
         11    1    3    3    0    0 -0.16441203911E+02 -0.17385543641E+02 -0.85867830281E+01  0.25422493121E+02  0.00000000000E+00 0. -1.
        -12    1    3    3    0    0  0.32559626213E+02  0.31073600676E+02 -0.15397988079E+03  0.16042288368E+03  0.00000000000E+00 0.  1.
        -13    1    4    4    0    0 -0.37564324710E+02 -0.20029130462E+02  0.97039899855E+01  0.43662477937E+02  0.00000000000E+00 0.  1.
         13    1    4    4    0    0  0.39900072530E+02  0.21197214701E+02  0.73372913420E+02  0.86167987807E+02  0.00000000000E+00 0. -1.
         21    1    1    2  502  501 -0.18454170122E+02 -0.14856141274E+02  0.34101343488E+02  0.41523041268E+02  0.00000000000E+00 0. -1.
<scales pt_clust_5="13000.00000" pt_clust_6="13000.00000" pt_clust_7="13000.00000" pt_clust_8="13000.00000" pt_clust_9="23.69095"></scales>
<clustering>
<clus scale="   23.691">  1  9  2 -1</clus>
<clus scale="   87.541">  5  6 -1 -1</clus>
<clus scale="   89.539">  2  5  1 -1</clus>
<clus scale="   99.736">  7  8 -1 -1</clus>
<clus scale="   23.691">  1  5  2 -1</clus>
</clustering>
</event>
<event>
 9    1  0.2674825E-005  0.1653007E+03  0.7546771E-02  0.1184551E+00
          1   -1    0    0  502    0  0.00000000000E+00  0.00000000000E+00  0.57281392436E+03  0.57281392436E+03  0.00000000000E+00 0. -1.
         -2   -1    0    0    0  501 -0.00000000000E+00 -0.00000000000E+00 -0.19432144730E+03  0.19432144730E+03  0.00000000000E+00 0.  1.
         23    2    1    2    0    0  0.93288768111E+02 -0.10388212616E+03 -0.13614172024E+03  0.21559488302E+03  0.91936364971E+02 0.  0.
        -24    2    1    2    0    0 -0.10952921909E+03  0.57531620374E+02  0.35173755362E+03  0.38140102186E+03  0.80255190947E+02 0.  0.
         13    1    4    4    0    0 -0.11975950527E+03  0.62802895073E+02  0.33301963465E+03  0.35942818447E+03  0.00000000000E+00 0. -1.
        -14    1    4    4    0    0  0.10230286182E+02 -0.52712746991E+01  0.18717918978E+02  0.21972837395E+02  0.00000000000E+00 0.  1.
        -11    1    3    3    0    0  0.22811183024E+02 -0.52600675597E+02 -0.11091557788E+03  0.12485770525E+03  0.00000000000E+00 0.  1.
         11    1    3    3    0    0  0.70477585087E+02 -0.51281450566E+02 -0.25226142361E+02  0.90737177773E+02  0.00000000000E+00 0. -1.
         21    1    1    2  502  501  0.16240450975E+02  0.46350505789E+02  0.16289664367E+03  0.17013946677E+03  0.00000000000E+00 0.  1.
<scales pt_clust_5="13000.00000" pt_clust_6="13000.00000" pt_clust_7="13000.00000" pt_clust_8="13000.00000" pt_clust_9="49.11335"></scales>
<clustering>
<clus scale="   49.113">  1  9  2 -1</clus>
<clus scale="   80.255">  5  6 -1 -1</clus>
<clus scale="   91.936">  7  8 -1 -1</clus>
<clus scale="  159.100">  1  5  2 -1</clus>
<clus scale="   49.113">  1  5  2 -1</clus>
</clustering>
</event>
<event>
 9    1  0.2674825E-005  0.1425332E+03  0.7546771E-02  0.1213208E+00
         -4   -1    0    0    0  501 -0.00000000000E+00  0.00000000000E+00  0.46821023326E+03  0.46821023326E+03  0.00000000000E+00 0.  1.
          3   -1    0    0  502    0  0.00000000000E+00 -0.00000000000E+00 -0.92507594976E+02  0.92507594976E+02  0.00000000000E+00 0. -1.
         23    2    1    2    0    0  0.10796346961E+03  0.85053144973E+02  0.31787307590E+03  0.35920491584E+03  0.95366298793E+02 0.  0.
        -24    2    1    2    0    0 -0.35374712558E+02 -0.54644729099E+02  0.65459067717E+02  0.12244326741E+03  0.80436605347E+02 0.  0.
         13    1    4    4    0    0 -0.17159666862E+02 -0.21632160937E+02  0.77972164123E+02  0.82716763305E+02  0.00000000000E+00 0. -1.
        -14    1    4    4    0    0 -0.18215045695E+02 -0.33012568163E+02 -0.12513096406E+02  0.39726504101E+02  0.00000000000E+00 0.  1.
        -13    1    3    3    0    0  0.63901597582E+02  0.71761009141E+02  0.10893471632E+03  0.14525780194E+03  0.00000000000E+00 0. -1.
         13    1    3    3    0    0  0.44061872030E+02  0.13292135831E+02  0.20893835958E+03  0.21394711390E+03  0.00000000000E+00 0.  1.
         21    1    1    2  502  501 -0.72588757054E+02 -0.30408415873E+02 -0.76295053311E+01  0.79069644986E+02  0.00000000000E+00 0.  1.
<scales pt_clust_5="13000.00000" pt_clust_6="13000.00000" pt_clust_7="13000.00000" pt_clust_8="13000.00000" pt_clust_9="78.70070"></scales>
<clustering>
<clus scale="   78.701">  2  9  1 -1</clus>
<clus scale="   80.437">  5  6 -1 -1</clus>
<clus scale="   95.366">  7  8 -1 -1</clus>
<clus scale="  133.008">  2  5  1 -1</clus>
<clus scale="   78.701">  2  5  1 -1</clus>
</clustering>
</event>
<event>
 9    1  0.2674825E-005  0.1072903E+03  0.7546771E-02  0.1271775E+00
         -2   -1    0    0    0  501 -0.00000000000E+00  0.00000000000E+00  0.53230280134E+03  0.53230280134E+03  0.00000000000E+00 0.  1.
          1   -1    0    0  502    0  0.00000000000E+00 -0.00000000000E+00 -0.76095117265E+02  0.76095117265E+02  0.00000000000E+00 0. -1.
         23    2    1    2    0    0 -0.53688429280E+02  0.21563081263E+02  0.46429291791E+03  0.47651979510E+03  0.90309399228E+02 0.  0.
        -24    2    1    2    0    0  0.41861137777E+02 -0.50331848387E+02 -0.15496242074E+01  0.10009383526E+03  0.75701550208E+02 0.  0.
         11    1    4    4    0    0  0.63279422317E+02 -0.45878259203E+02  0.26280396917E-01  0.78160735967E+02  0.00000000000E+00 0. -1.
        -12    1    4    4    0    0 -0.21418284540E+02 -0.44535891843E+01 -0.15759046043E+01  0.21933099293E+02  0.00000000000E+00 0.  1.
        -11    1    3    3    0    0  0.30100572822E+01 -0.30200521025E+02  0.12124559899E+03  0.12498650803E+03  0.00000000000E+00 0. -1.
         11    1    3    3    0    0 -0.56698486562E+02  0.51763602288E+02  0.34304731892E+03  0.35153328707E+03  0.00000000000E+00 0.  1.
         21    1    1    2  502  501  0.11827291503E+02  0.28768767124E+02 -0.65356096262E+01  0.31784288246E+02  0.00000000000E+00 0.  1.
<scales pt_clust_5="13000.00000" pt_clust_6="13000.00000" pt_clust_7="13000.00000" pt_clust_8="13000.00000" pt_clust_9="31.10509"></scales>
<clustering>
<clus scale="   31.105">  2  9  1 -1</clus>
<clus scale="   75.702">  5  6 -1 -1</clus>
<clus scale="   90.309">  7  8 -1 -1</clus>
<clus scale="   95.321">  2  5  1 -1</clus>
<clus scale="   31.105">  2  5  1 -1</clus>
</clustering>
</event>
<event>
 9    1  0.2674825E-005  0.1110697E+03  0.7546771E-02  0.1261918E+00
         -2   -1    0    0    0  501 -0.00000000000E+00  0.00000000000E+00  0.35469145271E+03  0.35469145271E+03  0.00000000000E+00 0.  1.
          1   -1    0    0  502    0  0.00000000000E+00 -0.00000000000E+00 -0.25556781559E+03  0.25556781559E+03  0.00000000000E+00 0. -1.
        -24    2    1    2    0    0  0.65554021986E+02  0.63632767764E+01  0.31822335842E+03  0.33542860190E+03  0.83116905851E+02 0.  0.
         23    2    1    2    0    0  0.22920510408E+01  0.14850747082E+01 -0.16027546413E+03  0.18469199834E+03  0.91735766772E+02 0.  0.
         11    1    3    3    0    0  0.61318408788E+02 -0.60082588881E+01  0.10453779203E+03  0.12134329975E+03  0.00000000000E+00 0. -1.
        -12    1    3    3    0    0  0.42356131978E+01  0.12371535664E+02  0.21368556639E+03  0.21408530215E+03  0.00000000000E+00 0.  1.
        -11    1    4    4    0    0 -0.30433198328E+02 -0.18589276867E+02 -0.23688909459E+02  0.42812442190E+02  0.00000000000E+00 0.  1.
         11    1    4    4    0    0  0.32725249369E+02  0.20074351575E+02 -0.13658655467E+03  0.14187955616E+03  0.00000000000E+00 0. -1.
         21    1    1    2  502  501 -0.67846073027E+02 -0.78483514847E+01 -0.58824257173E+02  0.90138668052E+02  0.00000000000E+00 0. -1.
<scales pt_clust_5="13000.00000" pt_clust_6="13000.00000" pt_clust_7="13000.00000" pt_clust_8="13000.00000" pt_clust_9="68.29851"></scales>
<clustering>
<clus scale="   68.299">  2  9  1 -1</clus>
<clus scale="   83.117">  5  6 -1 -1</clus>
<clus scale="   91.736">  7  8 -1 -1</clus>
<clus scale="  104.065">  1  5  2 -1</clus>
<clus scale="   68.299">  2  5  1 -1</clus>
</clustering>
</event>
<event>
 9    1  0.2674825E-005  0.2096860E+03  0.7546771E-02  0.1142781E+00
         -2   -1    0    0    0  501 -0.00000000000E+00  0.00000000000E+00  0.11489163025E+04  0.11489163025E+04  0.00000000000E+00 0.  1.
          1   -1    0    0  502    0  0.00000000000E+00 -0.00000000000E+00 -0.47975400766E+02  0.47975400766E+02  0.00000000000E+00 0. -1.
        -24    2    1    2    0    0  0.98971884473E+02 -0.16072517338E+03  0.75200163082E+03  0.77983273342E+03  0.83693632273E+02 0.  0.
         23    2    1    2    0    0 -0.11299239546E+03  0.14517176881E+03  0.32432440390E+03  0.38474218165E+03  0.94858333755E+02 0.  0.
         11    1    3    3    0    0  0.10714983212E+03 -0.10460535980E+03  0.55022461254E+03  0.57023722438E+03  0.00000000000E+00 0. -1.
        -12    1    3    3    0    0 -0.81779476498E+01 -0.56119813583E+02  0.20177701827E+03  0.20959550903E+03  0.00000000000E+00 0.  1.
        -13    1    4    4    0    0 -0.61599450039E+02  0.14073563144E+03  0.26325879639E+03  0.30480519037E+03  0.00000000000E+00 0. -1.
         13    1    4    4    0    0 -0.51392945416E+02  0.44361373732E+01  0.61065607508E+02  0.79936991272E+02  0.00000000000E+00 0.  1.
         21    1    1    2  502  501  0.14020510982E+02  0.15553404573E+02  0.24614867060E+02  0.32316788244E+02  0.00000000000E+00 0. -1.
<scales pt_clust_5="13000.00000" pt_clust_6="13000.00000" pt_clust_7="13000.00000" pt_clust_8="13000.00000" pt_clust_9="20.93999"></scales>
<clustering>
<clus scale="   20.940">  2  9  1 -1</clus>
<clus scale="   83.694">  5  6 -1 -1</clus>
<clus scale="   94.858">  7  8 -1 -1</clus>
<clus scale="  204.877">  1  5  2 -1</clus>
<clus scale="   20.940">  2  5  1 -1</clus>
</clustering>
</event>
<event>
 9    1  0.2674825E-005  0.1121323E+03  0.7546771E-02  0.1261885E+00
          1   -1    0    0  502    0  0.00000000000E+00  0.00000000000E+00  0.70375033528E+02  0.70375033528E+02  0.00000000000E+00 0. -1.
         -2   -1    0    0    0  501 -0.00000000000E+00 -0.00000000000E+00 -0.21179586293E+03  0.21179586293E+03  0.00000000000E+00 0.  1.
         23    2    1    2    0    0  0.16757929533E+02 -0.52922361552E+02 -0.85883662414E+02  0.13856640535E+03  0.93504228075E+02 0.  0.
        -24    2    1    2    0    0 -0.34532234913E+01  0.70687453013E+02 -0.57455092071E+02  0.12132687646E+03  0.80065489327E+02 0.  0.
         11    1    4    4    0    0 -0.31717244399E+02  0.49675358324E+01 -0.47159512686E+01  0.32448423704E+02  0.00000000000E+00 0. -1.
        -12    1    4    4    0    0  0.28264020907E+02  0.65719917180E+02 -0.52739140802E+02  0.88878452758E+02  0.00000000000E+00 0.  1.
        -11    1    3    3    0    0  0.52589275577E+02 -0.33458615651E+02 -0.29437478146E+02  0.68932401573E+02  0.00000000000E+00 0. -1.
         11    1    3    3    0    0 -0.35831346044E+02 -0.19463745901E+02 -0.56446184268E+02  0.69634003779E+02  0.00000000000E+00 0.  1.
         21    1    1    2  502  501 -0.13304706041E+02 -0.17765091461E+02  0.19179250854E+01  0.22277614641E+02  0.00000000000E+00 0. -1.
<scales pt_clust_5="13000.00000" pt_clust_6="13000.00000" pt_clust_7="13000.00000" pt_clust_8="13000.00000" pt_clust_9="22.19490"></scales>
<clustering>
<clus scale="   22.195">  1  9  2 -1</clus>
<clus scale="   80.065">  5  6 -1 -1</clus>
<clus scale="   93.504">  7  8 -1 -1</clus>
<clus scale="  101.198">  1  5  2 -1</clus>
<clus scale="   22.195">  1  5  2 -1</clus>
</clustering>
</event>
<event>
 9    1  0.2674825E-005  0.9795589E+02  0.7546771E-02  0.1290737E+00
         -2   -1    0    0    0  501 -0.00000000000E+00  0.00000000000E+00  0.14951433844E+03  0.14951433844E+03  0.00000000000E+00 0.  1.
          1   -1    0    0  502    0  0.00000000000E+00 -0.00000000000E+00 -0.11387336550E+03  0.11387336550E+03  0.00000000000E+00 0. -1.
        -24    2    1    2    0    0  0.45989417653E+02 -0.86577817716E+01  0.76747314328E+02  0.12005929783E+03  0.79587065648E+02 0.  0.
         23    2    1    2    0    0 -0.23730256413E+02  0.25584393084E+02 -0.55136937687E+02  0.11204201830E+03  0.91080435488E+02 0.  0.
         13    1    3    3    0    0  0.46227581894E+02  0.18664586544E+02  0.14249650457E+02  0.51849866506E+02  0.00000000000E+00 0. -1.
        -14    1    3    3    0    0 -0.23816424032E+00 -0.27322368316E+02  0.62497663872E+02  0.68209431327E+02  0.00000000000E+00 0.  1.
        -11    1    4    4    0    0 -0.57784499250E+02  0.21388976440E+02 -0.44885812636E+02  0.76231704971E+02  0.00000000000E+00 0. -1.
         11    1    4    4    0    0  0.34054242837E+02  0.41954166440E+01 -0.10251125051E+02  0.35810313331E+02  0.00000000000E+00 0.  1.
         21    1    1    2  502  501 -0.22259161240E+02 -0.16926611312E+02  0.14030596293E+02  0.31286387806E+02  0.00000000000E+00 0. -1.
<scales pt_clust_5="13000.00000" pt_clust_6="13000.00000" pt_clust_7="13000.00000" pt_clust_8="13000.00000" pt_clust_9="27.96391"></scales>
<clustering>
<clus scale="   27.964">  1  9  2 -1</clus>
<clus scale="   79.587">  5  6 -1 -1</clus>
<clus scale="   87.372">  1  5  2 -1</clus>
<clus scale="   91.080">  7  8 -1 -1</clus>
<clus scale="   97.956">  2  5  1 -1</clus>
</clustering>
</event>
<event>
 9    1  0.2674825E-005  0.1000765E+03  0.7546771E-02  0.1284652E+00
          1   -1    0    0  502    0  0.00000000000E+00  0.00000000000E+00  0.85333332611E+02  0.85333332611E+02  0.00000000000E+00 0. -1.
         -2   -1    0    0    0  501 -0.00000000000E+00 -0.00000000000E+00 -0.45597298945E+03  0.45597298945E+03  0.00000000000E+00 0.  1.
        -24    2    1    2    0    0  0.22142602225E+02  0.39776782755E+02 -0.38157515411E+03  0.39272034679E+03  0.80976448864E+02 0.  0.
         23    2    1    2    0    0 -0.38740473274E+02 -0.20400772329E+02  0.41734280059E+02  0.10859242423E+03  0.90186189005E+02 0.  0.
         13    1    3    3    0    0  0.23814478478E+02  0.35143963668E+02 -0.75588029482E+02  0.86693585509E+02  0.00000000000E+00 0. -1.
        -14    1    3    3    0    0 -0.16718762536E+01  0.46328190869E+01 -0.30598712463E+03  0.30602676129E+03  0.00000000000E+00 0.  1.
        -11    1    4    4    0    0  0.17668564737E+02 -0.33548810385E+02  0.12726457741E+01  0.37938377475E+02  0.00000000000E+00 0.  1.
         11    1    4    4    0    0 -0.56409038011E+02  0.13148038056E+02  0.40461634284E+02  0.70654046756E+02  0.00000000000E+00 0. -1.
         21    1    1    2  502  501  0.16597871049E+02 -0.19376010426E+02 -0.30798782785E+02  0.39993551035E+02  0.00000000000E+00 0. -1.
<scales pt_clust_5="13000.00000" pt_clust_6="13000.00000" pt_clust_7="13000.00000" pt_clust_8="13000.00000" pt_clust_9="25.51312"></scales>
<clustering>
<clus scale="   25.513">  2  9  1 -1</clus>
<clus scale="   80.976">  5  6 -1 -1</clus>
<clus scale="   90.186">  7  8 -1 -1</clus>
<clus scale="   91.864">  2  5  1 -1</clus>
<clus scale="  100.076">  1  5  2 -1</clus>
</clustering>
</event>
<event>
 9    1  0.2674825E-005  0.9353373E+02  0.7546771E-02  0.1297218E+00
         -4   -1    0    0    0  501 -0.00000000000E+00  0.00000000000E+00  0.67665484979E+03  0.67665484979E+03  0.00000000000E+00 0.  1.
          3   -1    0    0  502    0  0.00000000000E+00 -0.00000000000E+00 -0.40493599844E+02  0.40493599844E+02  0.00000000000E+00 0. -1.
         23    2    1    2    0    0  0.19164200435E+02  0.14933247016E+02  0.51054077077E+03  0.51908710307E+03  0.90605041359E+02 0.  0.
        -24    2    1    2    0    0 -0.35988929364E+02  0.29764800564E+02  0.53138776406E+02  0.11125936387E+03  0.85870659147E+02 0.  0.
         13    1    4    4    0    0 -0.54200254281E+02  0.43350359850E+02  0.22188031314E+02  0.72864463196E+02  0.00000000000E+00 0. -1.
        -14    1    4    4    0    0  0.18211324917E+02 -0.13585559286E+02  0.30950745092E+02  0.38394900678E+02  0.00000000000E+00 0.  1.
        -11    1    3    3    0    0  0.55275186039E+02  0.25137860500E+01  0.32171501065E+03  0.32643868244E+03  0.00000000000E+00 0.  1.
         11    1    3    3    0    0 -0.36110985603E+02  0.12419460966E+02  0.18882576011E+03  0.19264842064E+03  0.00000000000E+00 0. -1.
         21    1    1    2  502  501  0.16824728929E+02 -0.44698047580E+02  0.72481702778E+02  0.86801982688E+02  0.00000000000E+00 0.  1.
<scales pt_clust_5="13000.00000" pt_clust_6="13000.00000" pt_clust_7="13000.00000" pt_clust_8="13000.00000" pt_clust_9="47.75968"></scales>
<clustering>
<clus scale="   47.760">  2  9  1 -1</clus>
<clus scale="   85.871">  5  6 -1 -1</clus>
<clus scale="   88.955">  2  5  1 -1</clus>
<clus scale="   90.605">  7  8 -1 -1</clus>
<clus scale="   47.760">  2  5  1 -1</clus>
</clustering>
</event>
<event>
 9    1  0.2674825E-005  0.1713977E+03  0.7546771E-02  0.1201510E+00
          1   -1    0    0  502    0  0.00000000000E+00  0.00000000000E+00  0.10186916137E+03  0.10186916137E+03  0.00000000000E+00 0. -1.
         -2   -1    0    0    0  501 -0.00000000000E+00 -0.00000000000E+00 -0.57011713377E+03  0.57011713377E+03  0.00000000000E+00 0.  1.
        -24    2    1    2    0    0 -0.10447850220E+02  0.53734493392E+02 -0.22045418480E+03  0.24138036707E+03  0.81657091893E+02 0.  0.
         23    2    1    2    0    0 -0.60172035925E+02  0.87591619816E+02 -0.23269254718E+03  0.27189774915E+03  0.92139018388E+02 0.  0.
         11    1    3    3    0    0  0.80081533402E+01  0.49422747925E+02 -0.53195778703E+02  0.73051553058E+02  0.00000000000E+00 0. -1.
        -12    1    3    3    0    0 -0.18456003561E+02  0.43117454672E+01 -0.16725840610E+03  0.16832881401E+03  0.00000000000E+00 0.  1.
        -13    1    4    4    0    0 -0.51202778769E+02  0.29232740972E+02 -0.19026445768E+03  0.19919046552E+03  0.00000000000E+00 0.  1.
         13    1    4    4    0    0 -0.89692571558E+01  0.58358878844E+02 -0.42428089501E+02  0.72707283628E+02  0.00000000000E+00 0. -1.
         21    1    1    2  502  501  0.70619886145E+02 -0.14132611321E+03 -0.15101240419E+02  0.15870817892E+03  0.00000000000E+00 0. -1.
<scales pt_clust_5="13000.00000" pt_clust_6="13000.00000" pt_clust_7="13000.00000" pt_clust_8="13000.00000" pt_clust_9="144.52536"></scales>
<clustering>
<clus scale="   81.657">  5  6 -1 -1</clus>
<clus scale="   92.139">  7  8 -1 -1</clus>
<clus scale="   98.308">  2  5  1 -1</clus>
<clus scale="  144.525">  1  9  2 -1</clus>
<clus scale="  144.525">  1  5  2 -1</clus>
</clustering>
</event>
<event>
 9    1  0.2674825E-005  0.1203418E+03  0.7546771E-02  0.1246636E+00
          1   -1    0    0  502    0  0.00000000000E+00  0.00000000000E+00  0.31274796840E+03  0.31274796840E+03  0.00000000000E+00 0. -1.
         -2   -1    0    0    0  501 -0.00000000000E+00 -0.00000000000E+00 -0.12218834164E+03  0.12218834164E+03  0.00000000000E+00 0.  1.
        -24    2    1    2    0    0  0.61337449694E+02  0.31657254275E+02 -0.49039217683E+02  0.11629983410E+03  0.79726670925E+02 0.  0.
         23    2    1    2    0    0 -0.11561968957E+03 -0.40931681588E+02  0.15981180122E+03  0.22169036291E+03  0.92539126999E+02 0.  0.
         11    1    3    3    0    0  0.19587712372E+02 -0.14236625424E+02  0.13901043796E+02  0.27921300078E+02  0.00000000000E+00 0. -1.
        -12    1    3    3    0    0  0.41749737321E+02  0.45893879699E+02 -0.62940261479E+02  0.88378534019E+02  0.00000000000E+00 0.  1.
        -11    1    4    4    0    0 -0.45901035852E+01 -0.39156660059E+02  0.23591344177E+02  0.45944146504E+02  0.00000000000E+00 0. -1.
         11    1    4    4    0    0 -0.11102958598E+03 -0.17750215289E+01  0.13622045704E+03  0.17574621641E+03  0.00000000000E+00 0.  1.
         21    1    1    2  502  501  0.54282239872E+02  0.92744273133E+01  0.79787043221E+02  0.96946113039E+02  0.00000000000E+00 0.  1.
<scales pt_clust_5="13000.00000" pt_clust_6="13000.00000" pt_clust_7="13000.00000" pt_clust_8="13000.00000" pt_clust_9="55.06883"></scales>
<clustering>
<clus scale="   55.069">  1  9  2 -1</clus>
<clus scale="   79.727">  5  6 -1 -1</clus>
<clus scale="   92.539">  7  8 -1 -1</clus>
<clus scale="  110.793">  2  5  1 -1</clus>
<clus scale="   55.069">  1  5  2 -1</clus>
</clustering>
</event>
<event>
 9    1  0.2674825E-005  0.2200273E+03  0.7546771E-02  0.1134818E+00
          1   -1    0    0  502    0  0.00000000000E+00  0.00000000000E+00  0.49620833318E+03  0.49620833318E+03  0.00000000000E+00 0. -1.
         -2   -1    0    0    0  501 -0.00000000000E+00 -0.00000000000E+00 -0.25093564831E+03  0.25093564831E+03  0.00000000000E+00 0.  1.
         23    2    1    2    0    0  0.74413255866E+02 -0.16915683775E+03 -0.48705016468E+02  0.21272791576E+03  0.93432430713E+02 0.  0.
        -24    2    1    2    0    0 -0.21543659266E+03  0.14239415726E+03  0.90330544243E+02  0.28526553457E+03  0.80794780232E+02 0.  0.
         13    1    4    4    0    0 -0.21422790754E+03  0.11630996960E+03  0.87528016659E+02  0.25900339592E+03  0.00000000000E+00 0. -1.
        -14    1    4    4    0    0 -0.12086851156E+01  0.26084187660E+02  0.28025275844E+01  0.26262138650E+02  0.00000000000E+00 0.  1.
        -11    1    3    3    0    0  0.76954919386E+01 -0.12804751479E+03 -0.23540534971E+02  0.13042064034E+03  0.00000000000E+00 0. -1.
         11    1    3    3    0    0  0.66717763928E+02 -0.41109322951E+02 -0.25164481496E+02  0.82307275413E+02  0.00000000000E+00 0.  1.
         21    1    1    2  502  501  0.14102333679E+03  0.26762680488E+02  0.20364715710E+03  0.24915053117E+03  0.00000000000E+00 0.  1.
<scales pt_clust_5="13000.00000" pt_clust_6="13000.00000" pt_clust_7="13000.00000" pt_clust_8="13000.00000" pt_clust_9="143.54032"></scales>
<clustering>
<clus scale="   80.795">  5  6 -1 -1</clus>
<clus scale="   93.432">  7  8 -1 -1</clus>
<clus scale="  143.540">  1  9  2 -1</clus>
<clus scale="  214.966">  1  5  2 -1</clus>
<clus scale="  143.540">  1  5  2 -1</clus>
</clustering>
</event>
<event>
 9    1  0.2674825E-005  0.1520343E+03  0.7546771E-02  0.1201186E+00
         -4   -1    0    0    0  501 -0.00000000000E+00  0.00000000000E+00  0.33505631322E+03  0.33505631322E+03  0.00000000000E+00 0.  1.
          3   -1    0    0  502    0  0.00000000000E+00 -0.00000000000E+00 -0.11818904484E+03  0.11818904484E+03  0.00000000000E+00 0. -1.
         23    2    1    2    0    0  0.10278628475E+03  0.18869077430E+02  0.14631304692E+03  0.20504335532E+03  0.98560679008E+02 0.  0.
        -24    2    1    2    0    0 -0.11805757836E+03 -0.71515614277E+02  0.96758511384E+02  0.18744399866E+03  0.81981511405E+02 0.  0.
         11    1    4    4    0    0 -0.94948337287E+02 -0.11000075179E+02  0.61989867315E+02  0.11392511601E+03  0.00000000000E+00 0. -1.
        -12    1    4    4    0    0 -0.23109241077E+02 -0.60515539098E+02  0.34768644069E+02  0.73518882648E+02  0.00000000000E+00 0.  1.
        -13    1    3    3    0    0 -0.46210544688E+01  0.34549242942E+02  0.30534464315E+02  0.46339592610E+02  0.00000000000E+00 0.  1.
         13    1    3    3    0    0  0.10740733922E+03 -0.15680165513E+02  0.11577858260E+03  0.15870376271E+03  0.00000000000E+00 0. -1.
         21    1    1    2  502  501  0.15271293615E+02  0.52646536847E+02 -0.26204289925E+02  0.60758004091E+02  0.00000000000E+00 0. -1.
<scales pt_clust_5="13000.00000" pt_clust_6="13000.00000" pt_clust_7="13000.00000" pt_clust_8="13000.00000" pt_clust_9="54.81670"></scales>
<clustering>
<clus scale="   54.817">  2  9  1 -1</clus>
<clus scale="   81.982">  5  6 -1 -1</clus>
<clus scale="   98.561">  7  8 -1 -1</clus>
<clus scale="  141.849">  2  5  1 -1</clus>
<clus scale="   54.817">  2  5  1 -1</clus>
</clustering>
</event>
<event>
 9    1  0.2674825E-005  0.9575382E+02  0.7546771E-02  0.1297250E+00
          3   -1    0    0  502    0  0.00000000000E+00  0.00000000000E+00  0.29028443144E+03  0.29028443144E+03  0.00000000000E+00 0. -1.
         -4   -1    0    0    0  501 -0.00000000000E+00 -0.00000000000E+00 -0.43687610498E+02  0.43687610498E+02  0.00000000000E+00 0.  1.
         23    2    1    2    0    0 -0.90408149613E+01  0.20569383319E+02  0.51331206569E+02  0.10698575374E+03  0.91138481825E+02 0.  0.
        -24    2    1    2    0    0  0.32356083373E+02 -0.30182750050E+02  0.13695803384E+03  0.16345840056E+03  0.77480521081E+02 0.  0.
         13    1    4    4    0    0  0.48493752384E+02 -0.33686310421E+02  0.13433351029E+03  0.14673753275E+03  0.00000000000E+00 0. -1.
        -14    1    4    4    0    0 -0.16137669011E+02  0.35035603713E+01  0.26245235508E+01  0.16720867808E+02  0.00000000000E+00 0.  1.
        -13    1    3    3    0    0  0.29915877597E+02  0.28222042263E+02  0.53196549835E+02  0.67240734055E+02  0.00000000000E+00 0. -1.
         13    1    3    3    0    0 -0.38956692558E+02 -0.76526589438E+01 -0.18653432665E+01  0.39745019681E+02  0.00000000000E+00 0.  1.
         21    1    1    2  502  501 -0.23315268412E+02  0.96133667310E+01  0.58307580530E+02  0.63527887642E+02  0.00000000000E+00 0. -1.
<scales pt_clust_5="13000.00000" pt_clust_6="13000.00000" pt_clust_7="13000.00000" pt_clust_8="13000.00000" pt_clust_9="25.21941"></scales>
<clustering>
<clus scale="   25.219">  1  9  2 -1</clus>
<clus scale="   77.481">  5  6 -1 -1</clus>
<clus scale="   82.860">  1  5  2 -1</clus>
<clus scale="   91.138">  7  8 -1 -1</clus>
<clus scale="   25.219">  1  5  2 -1</clus>
</clustering>
</event>
<event>
 9    1  0.2674825E-005  0.9891480E+02  0.7546771E-02  0.1288725E+00
          1   -1    0    0  502    0  0.00000000000E+00  0.00000000000E+00  0.17028041135E+03  0.17028041135E+03  0.00000000000E+00 0. -1.
         -2   -1    0    0    0  501 -0.00000000000E+00 -0.00000000000E+00 -0.10992306944E+03  0.10992306944E+03  0.00000000000E+00 0.  1.
         23    2    1    2    0    0 -0.95169639002E+01 -0.26028427409E+02 -0.43344235739E+02  0.10532696888E+03  0.91907540311E+02 0.  0.
        -24    2    1    2    0    0  0.17138424906E+02  0.56582256500E+02  0.47281665909E+02  0.11026359075E+03  0.80169982888E+02 0.  0.
         11    1    4    4    0    0 -0.31685904266E+02  0.14395263333E+02  0.12639300667E+02  0.37026639828E+02  0.00000000000E+00 0. -1.
        -12    1    4    4    0    0  0.48824329172E+02  0.42186993167E+02  0.34642365242E+02  0.73236950927E+02  0.00000000000E+00 0.  1.
        -13    1    3    3    0    0  0.40037405175E+02 -0.23392599131E+02 -0.20808275520E+02  0.50825110304E+02  0.00000000000E+00 0.  1.
         13    1    3    3    0    0 -0.49554369075E+02 -0.26358282776E+01 -0.22535960219E+02  0.54501858575E+02  0.00000000000E+00 0. -1.
         21    1    1    2  502  501 -0.76214610053E+01 -0.30553829091E+02  0.56419911736E+02  0.64612921156E+02  0.00000000000E+00 0. -1.
<scales pt_clust_5="13000.00000" pt_clust_6="13000.00000" pt_clust_7="13000.00000" pt_clust_8="13000.00000" pt_clust_9="31.49005"></scales>
<clustering>
<clus scale="   31.490">  1  9  2 -1</clus>
<clus scale="   80.170">  5  6 -1 -1</clus>
<clus scale="   88.116">  1  5  2 -1</clus>
<clus scale="   91.908">  7  8 -1 -1</clus>
<clus scale="   31.490">  1  5  2 -1</clus>
</clustering>
</event>
<event>
 9    1  0.2674825E-005  0.1035044E+03  0.7546771E-02  0.1277996E+00
          1   -1    0    0  502    0  0.00000000000E+00  0.00000000000E+00  0.78842882999E+03  0.78842882999E+03  0.00000000000E+00 0. -1.
         -2   -1    0    0    0  501 -0.00000000000E+00 -0.00000000000E+00 -0.66774020711E+02  0.66774020711E+02  0.00000000000E+00 0.  1.
         23    2    1    2    0    0  0.46487825876E+02 -0.17629254468E+02 -0.19294295970E+02  0.10574032823E+03  0.91306289972E+02 0.  0.
        -24    2    1    2    0    0 -0.39493980590E+02 -0.38346482678E+01  0.57348071116E+03  0.58047945820E+03  0.80633716839E+02 0.  0.
         13    1    4    4    0    0 -0.42789325976E+02 -0.32804666352E+02  0.25335097951E+03  0.25902469259E+03  0.00000000000E+00 0. -1.
        -14    1    4    4    0    0  0.32953453863E+01  0.28970018084E+02  0.32012973165E+03  0.32145476561E+03  0.00000000000E+00 0.  1.
        -13    1    3    3    0    0  0.37053389555E+01 -0.21086410414E+02  0.32222147748E+02  0.38686341859E+02  0.00000000000E+00 0. -1.
         13    1    3    3    0    0  0.42782486920E+02  0.34571559461E+01 -0.51516443718E+02  0.67053986367E+02  0.00000000000E+00 0.  1.
         21    1    1    2  502  501 -0.69938452864E+01  0.21463902736E+02  0.16746839408E+03  0.16898306427E+03  0.00000000000E+00 0. -1.
<scales pt_clust_5="13000.00000" pt_clust_6="13000.00000" pt_clust_7="13000.00000" pt_clust_8="13000.00000" pt_clust_9="22.57461"></scales>
<clustering>
<clus scale="   22.575">  1  9  2 -1</clus>
<clus scale="   80.634">  5  6 -1 -1</clus>
<clus scale="   91.306">  7  8 -1 -1</clus>
<clus scale="   94.224">  1  5  2 -1</clus>
<clus scale="   22.575">  1  5  2 -1</clus>
</clustering>
</event>
<event>
 9    1  0.2674825E-005  0.9924765E+02  0.7546771E-02  0.1286967E+00
          3   -1    0    0  502    0  0.00000000000E+00  0.00000000000E+00  0.10430738600E+03  0.10430738600E+03  0.00000000000E+00 0. -1.
         -4   -1    0    0    0  501 -0.00000000000E+00 -0.00000000000E+00 -0.26455371885E+03  0.26455371885E+03  0.00000000000E+00 0.  1.
        -24    2    1    2    0    0 -0.38013999530E+02  0.22320112225E+02 -0.20914471090E+03  0.22857165359E+03  0.80995303310E+02 0.  0.
         23    2    1    2    0    0  0.14569912473E+02  0.87089363370E+01  0.35821242419E+02  0.99259723639E+02  0.91001117613E+02 0.  0.
         11    1    3    3    0    0 -0.27648002402E+02 -0.25815970792E+02 -0.12971409084E+03  0.13511706683E+03  0.00000000000E+00 0. -1.
        -12    1    3    3    0    0 -0.10365997128E+02  0.48136083017E+02 -0.79430620053E+02  0.93454586761E+02  0.00000000000E+00 0.  1.
        -11    1    4    4    0    0  0.32006200892E+02 -0.48678466388E+01  0.58960048261E+02  0.67263512526E+02  0.00000000000E+00 0. -1.
         11    1    4    4    0    0 -0.17436288419E+02  0.13576782976E+02 -0.23138805842E+02  0.31996211113E+02  0.00000000000E+00 0.  1.
         21    1    1    2  502  501  0.23444087056E+02 -0.31029048562E+02  0.13077135624E+02  0.41029727622E+02  0.00000000000E+00 0.  1.
<scales pt_clust_5="13000.00000" pt_clust_6="13000.00000" pt_clust_7="13000.00000" pt_clust_8="13000.00000" pt_clust_9="38.88994"></scales>
<clustering>
<clus scale="   38.890">  1  9  2 -1</clus>
<clus scale="   80.995">  5  6 -1 -1</clus>
<clus scale="   90.162">  2  5  1 -1</clus>
<clus scale="   91.001">  7  8 -1 -1</clus>
<clus scale="   38.890">  1  5  2 -1</clus>
</clustering>
</event>
<event>
 9    1  0.2674825E-005  0.9124278E+02  0.7546771E-02  0.1306157E+00
         -2   -1    0    0    0  501 -0.00000000000E+00  0.00000000000E+00  0.82275244832E+02  0.82275244832E+02  0.00000000000E+00 0.  1.
          1   -1    0    0  502    0  0.00000000000E+00 -0.00000000000E+00 -0.27797705176E+03  0.27797705176E+03  0.00000000000E+00 0. -1.
         23    2    1    2    0    0  0.20437666189E+02 -0.19071725140E+02  0.34909906634E+02  0.97140020002E+02  0.86232551892E+02 0.  0.
        -24    2    1    2    0    0 -0.48318897219E+02  0.84824242803E+01 -0.20443240775E+03  0.22342786669E+03  0.75635540081E+02 0.  0.
         13    1    4    4    0    0 -0.43122123790E+02  0.48787438014E+01 -0.21034217981E+03  0.21477232668E+03  0.00000000000E+00 0. -1.
        -14    1    4    4    0    0 -0.51967734296E+01  0.36036804789E+01  0.59097720561E+01  0.86555400078E+01  0.00000000000E+00 0.  1.
        -13    1    3    3    0    0 -0.30410796126E+02 -0.23842968777E+02  0.81934460604E+01  0.39502357391E+02  0.00000000000E+00 0. -1.
         13    1    3    3    0    0  0.50848462315E+02  0.47712436365E+01  0.26716460574E+02  0.57637662611E+02  0.00000000000E+00 0.  1.
         21    1    1    2  502  501  0.27881231030E+02  0.10589300860E+02 -0.26179305806E+02  0.39684409897E+02  0.00000000000E+00 0. -1.
<scales pt_clust_5="13000.00000" pt_clust_6="13000.00000" pt_clust_7="13000.00000" pt_clust_8="13000.00000" pt_clust_9="29.82443"></scales>
<clustering>
<clus scale="   29.824">  2  9  1 -1</clus>
<clus scale="   75.636">  5  6 -1 -1</clus>
<clus scale="   81.301">  2  5  1 -1</clus>
<clus scale="   86.233">  7  8 -1 -1</clus>
<clus scale="   29.824">  2  5  1 -1</clus>
</clustering>
</event>
<event>
 9    1  0.2674825E-005  0.1697105E+03  0.7546771E-02  0.1220131E+00
          1   -1    0    0  502    0  0.00000000000E+00  0.00000000000E+00  0.52288160114E+03  0.52288160114E+03  0.00000000000E+00 0. -1.
         -2   -1    0    0    0  501 -0.00000000000E+00 -0.00000000000E+00 -0.12392591289E+03  0.12392591289E+03  0.00000000000E+00 0.  1.
        -24    2    1    2    0    0 -0.23466975424E+01 -0.19710226435E+02 -0.54708059684E+02  0.87337319314E+02  0.65121697882E+02 0.  0.
         23    2    1    2    0    0  0.12746546542E+03 -0.54938007338E+02  0.15469523857E+03  0.22689052837E+03  0.91011348195E+02 0.  0.
         13    1    3    3    0    0 -0.27182411870E+02 -0.22770902911E+02 -0.11271121452E+02  0.37208006037E+02  0.00000000000E+00 0. -1.
        -14    1    3    3    0    0  0.24835714328E+02  0.30606764762E+01 -0.43436938232E+02  0.50129313277E+02  0.00000000000E+00 0.  1.
        -13    1    4    4    0    0  0.12911138634E+03 -0.26704197993E+02  0.14724072456E+03  0.19764284769E+03  0.00000000000E+00 0.  1.
         13    1    4    4    0    0 -0.16459209236E+01 -0.28233809344E+02  0.74545140119E+01  0.29247680676E+02  0.00000000000E+00 0. -1.
         21    1    1    2  502  501 -0.12511876788E+03  0.74648233772E+02  0.29896850936E+03  0.33257966635E+03  0.00000000000E+00 0. -1.
<scales pt_clust_5="13000.00000" pt_clust_6="13000.00000" pt_clust_7="13000.00000" pt_clust_8="13000.00000" pt_clust_9="143.24309"></scales>
<clustering>
<clus scale="   65.122">  5  6 -1 -1</clus>
<clus scale="   68.080">  2  5  1 -1</clus>
<clus scale="   91.011">  7  8 -1 -1</clus>
<clus scale="  143.243">  1  9  2 -1</clus>
<clus scale="  143.243">  1  5  2 -1</clus>
</clustering>
</event>
<event>
 9    1  0.2674825E-005  0.1525053E+03  0.7546771E-02  0.1198335E+00
          3   -1    0    0  502    0  0.00000000000E+00  0.00000000000E+00  0.66523530456E+03  0.66523530456E+03  0.00000000000E+00 0. -1.
         -4   -1    0    0    0  501 -0.00000000000E+00 -0.00000000000E+00 -0.62828805750E+02  0.62828805750E+02  0.00000000000E+00 0.  1.
        -24    2    1    2    0    0  0.12420840373E+03  0.90723588887E+01  0.11365722827E+03  0.18953899223E+03  0.86585384354E+02 0.  0.
         23    2    1    2    0    0 -0.11444252427E+03  0.49732598738E+02  0.41947483332E+03  0.44713396372E+03  0.91647274833E+02 0.  0.
         11    1    3    3    0    0  0.17948778716E+02 -0.94806364208E+01 -0.12277698612E+02  0.23723048024E+02  0.00000000000E+00 0. -1.
        -12    1    3    3    0    0  0.10625962502E+03  0.18552995309E+02  0.12593492689E+03  0.16581594421E+03  0.00000000000E+00 0.  1.
        -11    1    4    4    0    0 -0.10377701286E+03  0.12919988456E+02  0.21484121830E+03  0.23894213438E+03  0.00000000000E+00 0. -1.
         11    1    4    4    0    0 -0.10665511414E+02  0.36812610281E+02  0.20463361502E+03  0.20819182934E+03  0.00000000000E+00 0.  1.
         21    1    1    2  502  501 -0.97658794592E+01 -0.58804957626E+02  0.69274437214E+02  0.91391154355E+02  0.00000000000E+00 0.  1.
<scales pt_clust_5="13000.00000" pt_clust_6="13000.00000" pt_clust_7="13000.00000" pt_clust_8="13000.00000" pt_clust_9="59.61036"></scales>
<clustering>
<clus scale="   59.610">  2  9  1 -1</clus>
<clus scale="   86.585">  5  6 -1 -1</clus>
<clus scale="   91.647">  7  8 -1 -1</clus>
<clus scale="  149.518">  2  5  1 -1</clus>
<clus scale="  152.505">  1  5  2 -1</clus>
</clustering>
</event>
<event>
 9    1  0.2674825E-005  0.1059290E+03  0.7546771E-02  0.1272596E+00
          1   -1    0    0  502    0  0.00000000000E+00  0.00000000000E+00  0.83306778554E+02  0.83306778554E+02  0.00000000000E+00 0. -1.
         -2   -1    0    0    0  501 -0.00000000000E+00 -0.00000000000E+00 -0.49692446338E+03  0.49692446338E+03  0.00000000000E+00 0.  1.
         23    2    1    2    0    0  0.16732144542E+02 -0.11355239085E+02 -0.75493070600E+02  0.11918780537E+03  0.89986794162E+02 0.  0.
        -24    2    1    2    0    0 -0.71766756627E+02  0.21293426423E+02  0.86239417206E+01  0.10981397148E+03  0.79880276639E+02 0.  0.
         11    1    4    4    0    0 -0.86359799369E+02  0.29212416672E+02  0.14270364668E+02  0.92276885202E+02  0.00000000000E+00 0. -1.
        -12    1    4    4    0    0  0.14593042742E+02 -0.79189902484E+01 -0.56464229477E+01  0.17537086278E+02  0.00000000000E+00 0.  1.
        -13    1    3    3    0    0 -0.18784295601E+02 -0.32856889493E+02 -0.66789223078E+02  0.76767345062E+02  0.00000000000E+00 0.  1.
         13    1    3    3    0    0  0.35516440143E+02  0.21501650408E+02 -0.87038475217E+01  0.42420460304E+02  0.00000000000E+00 0. -1.
         21    1    1    2  502  501  0.55034612085E+02 -0.99381873381E+01 -0.34674855595E+03  0.35122946509E+03  0.00000000000E+00 0. -1.
<scales pt_clust_5="13000.00000" pt_clust_6="13000.00000" pt_clust_7="13000.00000" pt_clust_8="13000.00000" pt_clust_9="55.92474"></scales>
<clustering>
<clus scale="   55.925">  2  9  1 -1</clus>
<clus scale="   79.880">  5  6 -1 -1</clus>
<clus scale="   89.987">  7  8 -1 -1</clus>
<clus scale="   97.489">  1  5  2 -1</clus>
<clus scale="   97.489">  1  5  2 -1</clus>
</clustering>
</event>
<event>
 9    1  0.2674825E-005  0.1331395E+03  0.7546771E-02  0.1224798E+00
         -4   -1    0    0    0  501 -0.00000000000E+00  0.00000000000E+00  0.84718970968E+03  0.84718970968E+03  0.00000000000E+00 0.  1.
          3   -1    0    0  502    0  0.00000000000E+00 -0.00000000000E+00 -0.46626263235E+02  0.46626263235E+02  0.00000000000E+00 0. -1.
        -24    2    1    2    0    0 -0.74681880580E+02 -0.78208699503E+02  0.67194201259E+03  0.68528512939E+03  0.80097792199E+02 0.  0.
         23    2    1    2    0    0  0.50327381887E+02  0.52135105040E+02  0.12975049533E+03  0.17283422303E+03  0.88235837772E+02 0.  0.
         11    1    3    3    0    0 -0.44975738988E+02 -0.36027087429E+02  0.14822042917E+03  0.15902849981E+03  0.00000000000E+00 0. -1.
        -12    1    3    3    0    0 -0.29706141592E+02 -0.42181612074E+02  0.52372158341E+03  0.52625662958E+03  0.00000000000E+00 0.  1.
        -13    1    4    4    0    0  0.68714034558E+02  0.29778881494E+02  0.55714401987E+02  0.93340746285E+02  0.00000000000E+00 0. -1.
         13    1    4    4    0    0 -0.18386652671E+02  0.22356223546E+02  0.74036093344E+02  0.79493476747E+02  0.00000000000E+00 0.  1.
         21    1    1    2  502  501  0.24354498694E+02  0.26073594462E+02 -0.11290614753E+01  0.35696620493E+02  0.00000000000E+00 0.  1.
<scales pt_clust_5="13000.00000" pt_clust_6="13000.00000" pt_clust_7="13000.00000" pt_clust_8="13000.00000" pt_clust_9="35.67876"></scales>
<clustering>
<clus scale="   35.679">  2  9  1 -1</clus>
<clus scale="   80.098">  5  6 -1 -1</clus>
<clus scale="   88.236">  7  8 -1 -1</clus>
<clus scale="  127.891">  1  5  2 -1</clus>
<clus scale="   35.679">  2  5  1 -1</clus>
</clustering>
</event>
<event>
 9    1  0.2674825E-005  0.2683749E+03  0.7546771E-02  0.1102838E+00
         -2   -1    0    0    0  501 -0.00000000000E+00  0.00000000000E+00  0.27339936398E+03  0.27339936398E+03  0.00000000000E+00 0.  1.
          1   -1    0    0  502    0  0.00000000000E+00 -0.00000000000E+00 -0.84364986614E+03  0.84364986614E+03  0.00000000000E+00 0. -1.
         23    2    1    2    0    0 -0.21326286050E+03  0.13831913416E+03  0.17246216565E+03  0.32032568410E+03  0.90841151278E+02 0.  0.
        -24    2    1    2    0    0  0.20846762129E+03 -0.11782320341E+03 -0.57427314117E+03  0.62697387258E+03  0.77236907230E+02 0.  0.
         13    1    4    4    0    0  0.19526000761E+03 -0.10950531674E+03 -0.45939033283E+03  0.51103557886E+03  0.00000000000E+00 0. -1.
        -14    1    4    4    0    0  0.13207613688E+02 -0.83178866674E+01 -0.11488280834E+03  0.11593829372E+03  0.00000000000E+00 0.  1.
        -13    1    3    3    0    0 -0.32727621036E+02  0.32916030175E+02 -0.42240064680E+01  0.46609059761E+02  0.00000000000E+00 0. -1.
         13    1    3    3    0    0 -0.18053523947E+03  0.10540310399E+03  0.17668617212E+03  0.27371662434E+03  0.00000000000E+00 0.  1.
         21    1    1    2  502  501  0.47952392094E+01 -0.20495930754E+02 -0.16843952664E+03  0.16974967344E+03  0.00000000000E+00 0. -1.
<scales pt_clust_5="13000.00000" pt_clust_6="13000.00000" pt_clust_7="13000.00000" pt_clust_8="13000.00000" pt_clust_9="21.04941"></scales>
<clustering>
<clus scale="   21.049">  2  9  1 -1</clus>
<clus scale="   77.237">  5  6 -1 -1</clus>
<clus scale="   90.841">  7  8 -1 -1</clus>
<clus scale="  264.080">  2  5  1 -1</clus>
<clus scale="   21.049">  2  5  1 -1</clus>
</clustering>
</event>
<event>
 9    1  0.2674825E-005  0.1696085E+03  0.7546771E-02  0.1202677E+00
          1   -1    0    0  502    0  0.00000000000E+00  0.00000000000E+00  0.69375042542E+03  0.69375042542E+03  0.00000000000E+00 0. -1.
         -2   -1    0    0    0  501 -0.00000000000E+00 -0.00000000000E+00 -0.65664380467E+02  0.65664380467E+02  0.00000000000E+00 0.  1.
         23    2    1    2    0    0 -0.39374393155E+02  0.11849121113E+03  0.18288553301E+03  0.23971255577E+03  0.91784972947E+02 0.  0.
        -24    2    1    2    0    0 -0.16962999863E+02  0.35364845978E+02  0.21988708847E+03  0.24111343670E+03  0.90812675252E+02 0.  0.
         11    1    4    4    0    0 -0.52486449027E+01  0.41853428440E+02  0.32502645078E+02  0.53251100294E+02  0.00000000000E+00 0. -1.
        -12    1    4    4    0    0 -0.11714354960E+02 -0.64885824621E+01  0.18738444339E+03  0.18786233641E+03  0.00000000000E+00 0.  1.
        -11    1    3    3    0    0 -0.16715431749E+01  0.54633732586E+02  0.14797810207E+03  0.15775030106E+03  0.00000000000E+00 0. -1.
         11    1    3    3    0    0 -0.37702849980E+02  0.63857478546E+02  0.34907430946E+02  0.81962254716E+02  0.00000000000E+00 0.  1.
         21    1    1    2  502  501  0.56337393018E+02 -0.15385605711E+03  0.22531342347E+03  0.27858881341E+03  0.00000000000E+00 0. -1.
<scales pt_clust_5="13000.00000" pt_clust_6="13000.00000" pt_clust_7="13000.00000" pt_clust_8="13000.00000" pt_clust_9="142.62737"></scales>
<clustering>
<clus scale="   90.813">  5  6 -1 -1</clus>
<clus scale="   91.785">  7  8 -1 -1</clus>
<clus scale="   98.921">  1  5  2 -1</clus>
<clus scale="  142.627">  1  9  2 -1</clus>
<clus scale="   98.921">  1  5  2 -1</clus>
</clustering>
</event>
<event>
 9    1  0.2674825E-005  0.1310938E+03  0.7546771E-02  0.1228359E+00
         -4   -1    0    0    0  501 -0.00000000000E+00  0.00000000000E+00  0.13108069817E+03  0.13108069817E+03  0.00000000000E+00 0.  1.
          3   -1    0    0  502    0  0.00000000000E+00 -0.00000000000E+00 -0.29939241547E+03  0.29939241547E+03  0.00000000000E+00 0. -1.
        -24    2    1    2    0    0  0.23246205420E+02 -0.90729636536E+02  0.70102864247E+02  0.14230215899E+03  0.81013825149E+02 0.  0.
         23    2    1    2    0    0 -0.25192815162E+01  0.10170986279E+03 -0.21742202999E+03  0.25669305822E+03  0.90927135906E+02 0.  0.
         13    1    3    3    0    0 -0.11216772484E+02 -0.49383252378E+02 -0.39039323049E+01  0.50791360366E+02  0.00000000000E+00 0. -1.
        -14    1    3    3    0    0  0.34462977904E+02 -0.41346384158E+02  0.74006796552E+02  0.91510798624E+02  0.00000000000E+00 0.  1.
        -11    1    4    4    0    0  0.11204002544E+02  0.19699845011E+02  0.12985212149E+01  0.22700214180E+02  0.00000000000E+00 0.  1.
         11    1    4    4    0    0 -0.13723284061E+02  0.82010017784E+02 -0.21872055121E+03  0.23399284404E+03  0.00000000000E+00 0. -1.
         21    1    1    2  502  501 -0.20726923904E+02 -0.10980226258E+02 -0.20992551552E+02  0.31477896433E+02  0.00000000000E+00 0.  1.
<scales pt_clust_5="13000.00000" pt_clust_6="13000.00000" pt_clust_7="13000.00000" pt_clust_8="13000.00000" pt_clust_9="23.45572"></scales>
<clustering>
<clus scale="   23.456">  2  9  1 -1</clus>
<clus scale="   81.014">  5  6 -1 -1</clus>
<clus scale="   90.927">  7  8 -1 -1</clus>
<clus scale="  124.423">  1  5  2 -1</clus>
<clus scale="   23.456">  2  5  1 -1</clus>
</clustering>
</event>
<event>
 9    1  0.2674825E-005  0.9404576E+02  0.7546771E-02  0.1297452E+00
          1   -1    0    0  502    0  0.00000000000E+00  0.00000000000E+00  0.71890100719E+03  0.71890100719E+03  0.00000000000E+00 0. -1.
         -2   -1    0    0    0  501 -0.00000000000E+00 -0.00000000000E+00 -0.57302698833E+02  0.57302698833E+02  0.00000000000E+00 0.  1.
        -24    2    1    2    0    0 -0.38278147186E+02  0.37599361384E+01  0.35761035938E+01  0.89131909206E+02  0.80326552585E+02 0.  0.
         23    2    1    2    0    0  0.24009809062E+01  0.65480548523E+02  0.27155692756E+03  0.29281702353E+03  0.87779139994E+02 0.  0.
         11    1    3    3    0    0  0.20047342234E+02 -0.16939754254E+02  0.69490320350E+01  0.27150326905E+02  0.00000000000E+00 0. -1.
        -12    1    3    3    0    0 -0.58325489419E+02  0.20699690392E+02 -0.33729284412E+01  0.61981582302E+02  0.00000000000E+00 0.  1.
        -13    1    4    4    0    0 -0.38799336391E+02  0.10325660584E+02  0.86318996294E+02  0.95199668550E+02  0.00000000000E+00 0.  1.
         13    1    4    4    0    0  0.41200317297E+02  0.55154887938E+02  0.18523793127E+03  0.19761735498E+03  0.00000000000E+00 0. -1.
         21    1    1    2  502  501  0.35877166279E+02 -0.69240484661E+02  0.38646527720E+03  0.39425477328E+03  0.00000000000E+00 0. -1.
<scales pt_clust_5="13000.00000" pt_clust_6="13000.00000" pt_clust_7="13000.00000" pt_clust_8="13000.00000" pt_clust_9="77.98343"></scales>
<clustering>
<clus scale="   77.983">  1  9  2 -1</clus>
<clus scale="   80.327">  5  6 -1 -1</clus>
<clus scale="   87.131">  2  5  1 -1</clus>
<clus scale="   87.779">  7  8 -1 -1</clus>
<clus scale="   77.983">  1  5  2 -1</clus>
</clustering>
</event>
<event>
 9    1  0.2674825E-005  0.1011579E+03  0.7546771E-02  0.1281479E+00
          1   -1    0    0  502    0  0.00000000000E+00  0.00000000000E+00  0.45933615627E+03  0.45933615627E+03  0.00000000000E+00 0. -1.
         -2   -1    0    0    0  501 -0.00000000000E+00 -0.00000000000E+00 -0.51018678484E+02  0.51018678484E+02  0.00000000000E+00 0.  1.
        -24    2    1    2    0    0  0.19011325419E+02  0.44076626120E+02  0.22579887836E+02  0.98020117565E+02  0.82425194259E+02 0.  0.
         23    2    1    2    0    0 -0.39423304128E+02 -0.24305626437E+02  0.19721810773E+03  0.22168546731E+03  0.90025018823E+02 0.  0.
         11    1    3    3    0    0 -0.22478989059E+02  0.47969898898E+02  0.65848144308E+01  0.53383292616E+02  0.00000000000E+00 0. -1.
        -12    1    3    3    0    0  0.41490314477E+02 -0.38932727787E+01  0.15995073405E+02  0.44636824950E+02  0.00000000000E+00 0.  1.
        -13    1    4    4    0    0  0.26080453523E+02 -0.14214058805E+02  0.97720379836E+02  0.10213472553E+03  0.00000000000E+00 0. -1.
         13    1    4    4    0    0 -0.65503757651E+02 -0.10091567631E+02  0.99497727894E+02  0.11955074178E+03  0.00000000000E+00 0.  1.
         21    1    1    2  502  501  0.20411978709E+02 -0.19770999683E+02  0.18851948222E+03  0.19064924988E+03  0.00000000000E+00 0.  1.
<scales pt_clust_5="13000.00000" pt_clust_6="13000.00000" pt_clust_7="13000.00000" pt_clust_8="13000.00000" pt_clust_9="28.41727"></scales>
<clustering>
<clus scale="   28.417">  1  9  2 -1</clus>
<clus scale="   82.425">  5  6 -1 -1</clus>
<clus scale="   90.025">  7  8 -1 -1</clus>
<clus scale="   94.458">  2  5  1 -1</clus>
<clus scale="   28.417">  1  5  2 -1</clus>
</clustering>
</event>
<event>
 9    1  0.2674825E-005  0.4062365E+03  0.7546771E-02  0.1070391E+00
          1   -1    0    0  502    0  0.00000000000E+00  0.00000000000E+00  0.18841686954E+04  0.18841686954E+04  0.00000000000E+00 0. -1.
         -2   -1    0    0    0  501 -0.00000000000E+00 -0.00000000000E+00 -0.16449563062E+03  0.16449563062E+03  0.00000000000E+00 0.  1.
         23    2    1    2    0    0 -0.58144493739E+02 -0.33926173894E+03  0.33840241516E+03  0.49100603176E+03  0.89952314997E+02 0.  0.
        -24    2    1    2    0    0  0.15101818296E+02 -0.16077281866E+03  0.62065285664E+03  0.64638080759E+03  0.80760236679E+02 0.  0.
         13    1    4    4    0    0  0.10302502196E+02 -0.15647740365E+03  0.62042461897E+03  0.63993595557E+03  0.00000000000E+00 0. -1.
        -14    1    4    4    0    0  0.47993160996E+01 -0.42954150132E+01  0.22823767072E+00  0.64448520226E+01  0.00000000000E+00 0.  1.
        -13    1    3    3    0    0 -0.68627763198E+02 -0.23148718598E+03  0.27322493244E+03  0.36462028312E+03  0.00000000000E+00 0. -1.
         13    1    3    3    0    0  0.10483269458E+02 -0.10777455297E+03  0.65177482716E+02  0.12638574864E+03  0.00000000000E+00 0.  1.
         21    1    1    2  502  501  0.43042675443E+02  0.50003455761E+03  0.76061779293E+03  0.91127748662E+03  0.00000000000E+00 0.  1.
<scales pt_clust_5="13000.00000" pt_clust_6="13000.00000" pt_clust_7="13000.00000" pt_clust_8="13000.00000" pt_clust_9="396.15234"></scales>
<clustering>
<clus scale="   80.760">  5  6 -1 -1</clus>
<clus scale="   89.952">  7  8 -1 -1</clus>
<clus scale="  180.550">  1  5  2 -1</clus>
<clus scale="  396.152">  1  9  2 -1</clus>
<clus scale="  180.550">  1  5  2 -1</clus>
</clustering>
</event>
<event>
 9    1  0.2674825E-005  0.1185824E+03  0.7546771E-02  0.1249184E+00
          1   -1    0    0  502    0  0.00000000000E+00  0.00000000000E+00  0.17730947371E+02  0.17730947371E+02  0.00000000000E+00 0. -1.
         -2   -1    0    0    0  501 -0.00000000000E+00 -0.00000000000E+00 -0.24935413128E+04  0.24935413128E+04  0.00000000000E+00 0.  1.
        -24    2    1    2    0    0 -0.64479575548E+02  0.37662970836E+02 -0.17589953299E+04  0.17624098600E+04  0.80298375232E+02 0.  0.
         23    2    1    2    0    0  0.31357302039E+02 -0.96717687757E+02 -0.34940399725E+03  0.37526446701E+03  0.91666108196E+02 0.  0.
         13    1    3    3    0    0 -0.16595157993E+02  0.20046219140E+02 -0.12810521466E+03  0.13072182753E+03  0.00000000000E+00 0. -1.
        -14    1    3    3    0    0 -0.47884417555E+02  0.17616751696E+02 -0.16308901152E+04  0.16316880325E+04  0.00000000000E+00 0.  1.
        -11    1    4    4    0    0 -0.13209810664E+02 -0.89600910110E+02 -0.25550742751E+03  0.27108461355E+03  0.00000000000E+00 0. -1.
         11    1    4    4    0    0  0.44567112703E+02 -0.71167776469E+01 -0.93896569740E+02  0.10417985346E+03  0.00000000000E+00 0.  1.
         21    1    1    2  502  501  0.33122273508E+02  0.59054716920E+02 -0.36741103831E+03  0.37359793317E+03  0.00000000000E+00 0. -1.
<scales pt_clust_5="13000.00000" pt_clust_6="13000.00000" pt_clust_7="13000.00000" pt_clust_8="13000.00000" pt_clust_9="67.70927"></scales>
<clustering>
<clus scale="   67.709">  1  9  2 -1</clus>
<clus scale="   80.298">  5  6 -1 -1</clus>
<clus scale="   91.666">  7  8 -1 -1</clus>
<clus scale="  110.032">  2  5  1 -1</clus>
<clus scale="   67.709">  1  5  2 -1</clus>
</clustering>
</event>
<event>
 9    1  0.2674825E-005  0.1599947E+03  0.7546771E-02  0.1205735E+00
          1   -1    0    0  502    0  0.00000000000E+00  0.00000000000E+00  0.10378875775E+04  0.10378875775E+04  0.00000000000E+00 0. -1.
         -2   -1    0    0    0  501 -0.00000000000E+00 -0.00000000000E+00 -0.27328202466E+03  0.27328202466E+03  0.00000000000E+00 0.  1.
         23    2    1    2    0    0 -0.11610674723E+03  0.58476951866E+02 -0.21798825884E+03  0.26944384545E+03  0.90447632379E+02 0.  0.
        -24    2    1    2    0    0 -0.43551039645E+02  0.61013272606E+02  0.15380277958E+03  0.18928039333E+03  0.80947265568E+02 0.  0.
         11    1    4    4    0    0  0.21281466607E+02  0.16838020823E+02  0.18383208080E+02  0.32777463378E+02  0.00000000000E+00 0. -1.
        -12    1    4    4    0    0 -0.64832506252E+02  0.44175251784E+02  0.13541957150E+03  0.15650292995E+03  0.00000000000E+00 0.  1.
        -11    1    3    3    0    0 -0.87968628773E+02  0.60266911633E+02 -0.21635040214E+03  0.24120132005E+03  0.00000000000E+00 0.  1.
         11    1    3    3    0    0 -0.28138118459E+02 -0.17899597666E+01 -0.16378567033E+01  0.28242525400E+02  0.00000000000E+00 0. -1.
         21    1    1    2  502  501  0.15965778688E+03 -0.11949022447E+03  0.82879103207E+03  0.85244536335E+03  0.00000000000E+00 0. -1.
<scales pt_clust_5="13000.00000" pt_clust_6="13000.00000" pt_clust_7="13000.00000" pt_clust_8="13000.00000" pt_clust_9="131.97547"></scales>
<clustering>
<clus scale="   80.947">  5  6 -1 -1</clus>
<clus scale="   90.448">  7  8 -1 -1</clus>
<clus scale="  110.326">  1  5  2 -1</clus>
<clus scale="  131.975">  1  9  2 -1</clus>
<clus scale="  110.326">  1  5  2 -1</clus>
</clustering>
</event>
<event>
 9    1  0.2674825E-005  0.2199461E+03  0.7546771E-02  0.1134735E+00
         -4   -1    0    0    0  501 -0.00000000000E+00  0.00000000000E+00  0.33345022986E+03  0.33345022986E+03  0.00000000000E+00 0.  1.
          3   -1    0    0  502    0  0.00000000000E+00 -0.00000000000E+00 -0.60515185447E+03  0.60515185447E+03  0.00000000000E+00 0. -1.
        -24    2    1    2    0    0  0.16963999228E+03  0.11268936725E+03  0.26377791195E+03  0.34241453594E+03  0.78691213750E+02 0.  0.
         23    2    1    2    0    0 -0.15170320251E+03 -0.90208264518E+02 -0.30328282584E+03  0.36221652267E+03  0.89827302116E+02 0.  0.
         11    1    3    3    0    0  0.47632313969E+02  0.35117672329E+02  0.27140797742E+02  0.65105384923E+02  0.00000000000E+00 0. -1.
        -12    1    3    3    0    0  0.12200767831E+03  0.77571694919E+02  0.23663711421E+03  0.27730915102E+03  0.00000000000E+00 0.  1.
        -13    1    4    4    0    0 -0.15367477493E+03 -0.62760840286E+02 -0.28277490198E+03  0.32789709470E+03  0.00000000000E+00 0. -1.
         13    1    4    4    0    0  0.19715724265E+01 -0.27447424232E+02 -0.20507923860E+02  0.34319427965E+02  0.00000000000E+00 0.  1.
         21    1    1    2  502  501 -0.17936789774E+02 -0.22481102730E+02 -0.23219671072E+03  0.23397102572E+03  0.00000000000E+00 0. -1.
<scales pt_clust_5="13000.00000" pt_clust_6="13000.00000" pt_clust_7="13000.00000" pt_clust_8="13000.00000" pt_clust_9="28.75984"></scales>
<clustering>
<clus scale="   28.760">  2  9  1 -1</clus>
<clus scale="   78.691">  5  6 -1 -1</clus>
<clus scale="   89.827">  7  8 -1 -1</clus>
<clus scale="  215.638">  1  5  2 -1</clus>
<clus scale="   28.760">  2  5  1 -1</clus>
</clustering>
</event>
<event>
 9    1  0.2674825E-005  0.4363047E+03  0.7546771E-02  0.1032098E+00
          1   -1    0    0  502    0  0.00000000000E+00  0.00000000000E+00  0.82871014639E+03  0.82871014639E+03  0.00000000000E+00 0. -1.
         -2   -1    0    0    0  501 -0.00000000000E+00 -0.00000000000E+00 -0.28057755863E+03  0.28057755863E+03  0.00000000000E+00 0.  1.
         23    2    1    2    0    0  0.20138983024E+03 -0.37614681459E+03  0.71277924996E+02  0.44266230597E+03  0.93941921855E+02 0.  0.
        -24    2    1    2    0    0 -0.21901846805E+03  0.36451482197E+03  0.40866941006E+03  0.59524402328E+03  0.80402834192E+02 0.  0.
         13    1    4    4    0    0 -0.19329792704E+03  0.25333655454E+03  0.29882186726E+03  0.43685009651E+03  0.00000000000E+00 0. -1.
        -14    1    4    4    0    0 -0.25720541004E+02  0.11117826743E+03  0.10984754280E+03  0.15839392677E+03  0.00000000000E+00 0.  1.
        -11    1    3    3    0    0  0.13250734220E+03 -0.15429946397E+03  0.49666574612E+02  0.20936401064E+03  0.00000000000E+00 0. -1.
         11    1    3    3    0    0  0.68882488040E+02 -0.22184735062E+03  0.21611350385E+02  0.23329829533E+03  0.00000000000E+00 0.  1.
         21    1    1    2  502  501  0.17628637803E+02  0.11631992620E+02  0.68185252698E+02  0.71381375782E+02  0.00000000000E+00 0.  1.
<scales pt_clust_5="13000.00000" pt_clust_6="13000.00000" pt_clust_7="13000.00000" pt_clust_8="13000.00000" pt_clust_9="21.12042"></scales>
<clustering>
<clus scale="   21.120">  1  9  2 -1</clus>
<clus scale="   80.403">  5  6 -1 -1</clus>
<clus scale="   93.942">  7  8 -1 -1</clus>
<clus scale="  433.591">  1  5  2 -1</clus>
<clus scale="   21.120">  1  5  2 -1</clus>
</clustering>
</event>
<event>
 9    1  0.2674825E-005  0.1156073E+03  0.7546771E-02  0.1255031E+00
         -2   -1    0    0    0  501 -0.00000000000E+00  0.00000000000E+00  0.33160361645E+03  0.33160361645E+03  0.00000000000E+00 0.  1.
          1   -1    0    0  502    0  0.00000000000E+00 -0.00000000000E+00 -0.52681190231E+02  0.52681190231E+02  0.00000000000E+00 0. -1.
         23    2    1    2    0    0  0.22588315477E+02  0.69286056583E+02  0.21470567923E+03  0.24531842293E+03  0.93657943086E+02 0.  0.
        -24    2    1    2    0    0 -0.37678782644E+01 -0.59473510075E+02  0.60459821039E+02  0.11741158339E+03  0.81109769125E+02 0.  0.
         11    1    4    4    0    0  0.55775091291E+01 -0.62339075814E+02  0.69002157410E+01  0.62967308651E+02  0.00000000000E+00 0. -1.
        -12    1    4    4    0    0 -0.93453873935E+01  0.28655657391E+01  0.53559605297E+02  0.54444274742E+02  0.00000000000E+00 0.  1.
        -11    1    3    3    0    0 -0.18828815897E+02  0.17220450777E+02  0.15122282267E+03  0.15336039361E+03  0.00000000000E+00 0.  1.
         11    1    3    3    0    0  0.41417131375E+02  0.52065605806E+02  0.63482856565E+02  0.91958029322E+02  0.00000000000E+00 0. -1.
         21    1    1    2  502  501 -0.18820437213E+02 -0.98125465081E+01  0.37569259498E+01  0.21554800357E+02  0.00000000000E+00 0. -1.
<scales pt_clust_5="13000.00000" pt_clust_6="13000.00000" pt_clust_7="13000.00000" pt_clust_8="13000.00000" pt_clust_9="21.22487"></scales>
<clustering>
<clus scale="   21.225">  2  9  1 -1</clus>
<clus scale="   81.110">  5  6 -1 -1</clus>
<clus scale="   93.658">  7  8 -1 -1</clus>
<clus scale="  105.698">  2  5  1 -1</clus>
<clus scale="   21.225">  2  5  1 -1</clus>
</clustering>
</event>
<event>
 9    1  0.2674825E-005  0.1606059E+03  0.7546771E-02  0.1189235E+00
         -2   -1    0    0    0  501 -0.00000000000E+00  0.00000000000E+00  0.52053418621E+03  0.52053418621E+03  0.00000000000E+00 0.  1.
          1   -1    0    0  502    0  0.00000000000E+00 -0.00000000000E+00 -0.23889368793E+03  0.23889368793E+03  0.00000000000E+00 0. -1.
         23    2    1    2    0    0 -0.11522387342E+03 -0.76651553688E+02  0.39234908413E+03  0.42502369936E+03  0.86921455983E+02 0.  0.
        -24    2    1    2    0    0  0.92031828259E+02  0.86362182141E+02  0.61069343296E+02  0.16079592553E+03  0.78724716959E+02 0.  0.
         13    1    4    4    0    0  0.89533849741E+02  0.47031794276E+02  0.66462678232E+02  0.12101895521E+03  0.00000000000E+00 0. -1.
        -14    1    4    4    0    0  0.24979785185E+01  0.39330387866E+02 -0.53933349367E+01  0.39776970323E+02  0.00000000000E+00 0.  1.
        -11    1    3    3    0    0 -0.53575419957E+02 -0.53926493815E+02  0.31252486768E+03  0.32163672875E+03  0.00000000000E+00 0.  1.
         11    1    3    3    0    0 -0.61648453467E+02 -0.22725059872E+02  0.79824216447E+02  0.10338697061E+03  0.00000000000E+00 0. -1.
         21    1    1    2  502  501  0.23192045164E+02 -0.97106284536E+01 -0.17177792915E+03  0.17360824925E+03  0.00000000000E+00 0. -1.
<scales pt_clust_5="13000.00000" pt_clust_6="13000.00000" pt_clust_7="13000.00000" pt_clust_8="13000.00000" pt_clust_9="25.14294"></scales>
<clustering>
<clus scale="   25.143">  2  9  1 -1</clus>
<clus scale="   78.725">  5  6 -1 -1</clus>
<clus scale="   86.921">  7  8 -1 -1</clus>
<clus scale="  156.322">  2  5  1 -1</clus>
<clus scale="   25.143">  2  5  1 -1</clus>
</clustering>
</event>
<event>
 9    1  0.2674825E-005  0.1234435E+03  0.7546771E-02  0.1240583E+00
          1   -1    0    0  502    0  0.00000000000E+00  0.00000000000E+00  0.27760593312E+03  0.27760593312E+03  0.00000000000E+00 0. -1.
         -2   -1    0    0    0  501 -0.00000000000E+00 -0.00000000000E+00 -0.34364229185E+03  0.34364229185E+03  0.00000000000E+00 0.  1.
         23    2    1    2    0    0 -0.52680073993E+02 -0.67480332232E+02 -0.30726865892E+03  0.33144557821E+03  0.90074175687E+02 0.  0.
        -24    2    1    2    0    0  0.63316545304E+02  0.28111449257E+02  0.21963815524E+03  0.24365776010E+03  0.79554675109E+02 0.  0.
         11    1    4    4    0    0  0.74353653705E+02  0.43418389206E+02  0.17018612391E+03  0.19072739476E+03  0.00000000000E+00 0. -1.
        -12    1    4    4    0    0 -0.11037108401E+02 -0.15306939949E+02  0.49452031329E+02  0.52930365340E+02  0.00000000000E+00 0.  1.
        -11    1    3    3    0    0 -0.32650572017E+02 -0.86592143962E+02 -0.26695979053E+03  0.28254519817E+03  0.00000000000E+00 0.  1.
         11    1    3    3    0    0 -0.20029501977E+02  0.19111811731E+02 -0.40308868388E+02  0.48900380037E+02  0.00000000000E+00 0. -1.
         21    1    1    2  502  501 -0.10636471311E+02  0.39368882975E+02  0.21594144959E+02  0.46144886663E+02  0.00000000000E+00 0.  1.
<scales pt_clust_5="13000.00000" pt_clust_6="13000.00000" pt_clust_7="13000.00000" pt_clust_8="13000.00000" pt_clust_9="40.78043"></scales>
<clustering>
<clus scale="   40.780">  1  9  2 -1</clus>
<clus scale="   79.555">  5  6 -1 -1</clus>
<clus scale="   90.074">  7  8 -1 -1</clus>
<clus scale="  115.991">  1  5  2 -1</clus>
<clus scale="   40.780">  1  5  2 -1</clus>
</clustering>
</event>
<event>
 9    1  0.2674825E-005  0.1020770E+03  0.7546771E-02  0.1282135E+00
         -2   -1    0    0    0  501 -0.00000000000E+00  0.00000000000E+00  0.37996817595E+03  0.37996817595E+03  0.00000000000E+00 0.  1.
          1   -1    0    0  502    0  0.00000000000E+00 -0.00000000000E+00 -0.10753796373E+03  0.10753796373E+03  0.00000000000E+00 0. -1.
        -24    2    1    2    0    0 -0.33192347277E+02 -0.32304802016E+02  0.26702984848E+03  0.28240847675E+03  0.79399468575E+02 0.  0.
         23    2    1    2    0    0 -0.39885533127E+02  0.65192993746E+02 -0.19344238331E+02  0.12122689871E+03  0.92091146310E+02 0.  0.
         11    1    3    3    0    0 -0.45908005630E+02  0.10637883087E+02  0.13915451883E+03  0.14691728846E+03  0.00000000000E+00 0. -1.
        -12    1    3    3    0    0  0.12715658353E+02 -0.42942685104E+02  0.12787532965E+03  0.13549118829E+03  0.00000000000E+00 0.  1.
        -11    1    4    4    0    0  0.30098082443E+01  0.73381831644E+02  0.51153006712E-01  0.73443548238E+02  0.00000000000E+00 0.  1.
         11    1    4    4    0    0 -0.42895341372E+02 -0.81888378981E+01 -0.19395391338E+02  0.47783350476E+02  0.00000000000E+00 0. -1.
         21    1    1    2  502  501  0.73077880405E+02 -0.32888191730E+02  0.24744602073E+02  0.83870764224E+02  0.00000000000E+00 0.  1.
<scales pt_clust_5="13000.00000" pt_clust_6="13000.00000" pt_clust_7="13000.00000" pt_clust_8="13000.00000" pt_clust_9="80.13744"></scales>
<clustering>
<clus scale="   79.399">  5  6 -1 -1</clus>
<clus scale="   80.137">  2  9  1 -1</clus>
<clus scale="   90.792">  1  5  2 -1</clus>
<clus scale="   92.091">  7  8 -1 -1</clus>
<clus scale="   80.137">  2  5  1 -1</clus>
</clustering>
</event>
<event>
 9    1  0.2674825E-005  0.1285281E+03  0.7546771E-02  0.1244051E+00
          1   -1    0    0  502    0  0.00000000000E+00  0.00000000000E+00  0.13316842879E+03  0.13316842879E+03  0.00000000000E+00 0. -1.
         -2   -1    0    0    0  501 -0.00000000000E+00 -0.00000000000E+00 -0.33630128792E+03  0.33630128792E+03  0.00000000000E+00 0.  1.
        -24    2    1    2    0    0 -0.54855995561E+02  0.71056025010E+02 -0.17677723986E+03  0.21435263699E+03  0.81478349958E+02 0.  0.
         23    2    1    2    0    0 -0.34405220383E+02  0.32647840424E+01  0.57615610625E+02  0.11179117564E+03  0.89349484378E+02 0.  0.
         11    1    3    3    0    0 -0.75439905861E+02  0.61945106551E+02 -0.13130196691E+03  0.16361106972E+03  0.00000000000E+00 0. -1.
        -12    1    3    3    0    0  0.20583910301E+02  0.91109184599E+01 -0.45475272952E+02  0.50741567265E+02  0.00000000000E+00 0.  1.
        -11    1    4    4    0    0 -0.36040420300E+01 -0.32413702268E+02 -0.54418727970E+01  0.33064349279E+02  0.00000000000E+00 0.  1.
         11    1    4    4    0    0 -0.30801178353E+02  0.35678486310E+02  0.63057483422E+02  0.78726826361E+02  0.00000000000E+00 0. -1.
         21    1    1    2  502  501  0.89261215943E+02 -0.74320809053E+02 -0.83971229898E+02  0.14332590408E+03  0.00000000000E+00 0.  1.
<scales pt_clust_5="13000.00000" pt_clust_6="13000.00000" pt_clust_7="13000.00000" pt_clust_8="13000.00000" pt_clust_9="99.40196"></scales>
<clustering>
<clus scale="   81.478">  5  6 -1 -1</clus>
<clus scale="   89.349">  7  8 -1 -1</clus>
<clus scale="   95.800">  1  7  2 -1</clus>
<clus scale="   99.402">  1  9  2 -1</clus>
<clus scale="   95.800">  1  5  2 -1</clus>
</clustering>
</event>
<event>
 9    1  0.2674825E-005  0.2317390E+03  0.7546771E-02  0.1126223E+00
         -2   -1    0    0    0  501 -0.00000000000E+00  0.00000000000E+00  0.10334501130E+04  0.10334501130E+04  0.00000000000E+00 0.  1.
          1   -1    0    0  502    0  0.00000000000E+00 -0.00000000000E+00 -0.69947171811E+02  0.69947171811E+02  0.00000000000E+00 0. -1.
        -24    2    1    2    0    0  0.21034493493E+03  0.50804641026E+02  0.72660069894E+03  0.76226575217E+03  0.79211097864E+02 0.  0.
         23    2    1    2    0    0 -0.20168897910E+03 -0.31210600046E+02  0.21039399212E+03  0.30705016915E+03  0.91441941194E+02 0.  0.
         13    1    3    3    0    0  0.14579710730E+03  0.71854007066E+02  0.51179267870E+03  0.53698374352E+03  0.00000000000E+00 0. -1.
        -14    1    3    3    0    0  0.64547827636E+02 -0.21049366040E+02  0.21480802024E+03  0.22528200865E+03  0.00000000000E+00 0.  1.
        -11    1    4    4    0    0 -0.14621187513E+03 -0.62811451105E+02  0.16054751389E+03  0.22605020467E+03  0.00000000000E+00 0. -1.
         11    1    4    4    0    0 -0.55477103972E+02  0.31600851059E+02  0.49846478236E+02  0.80999964477E+02  0.00000000000E+00 0.  1.
         21    1    1    2  502  501 -0.86559558326E+01 -0.19594040979E+02  0.26508250160E+02  0.34081363526E+02  0.00000000000E+00 0. -1.
<scales pt_clust_5="13000.00000" pt_clust_6="13000.00000" pt_clust_7="13000.00000" pt_clust_8="13000.00000" pt_clust_9="21.42083"></scales>
<clustering>
<clus scale="   21.421">  2  9  1 -1</clus>
<clus scale="   79.211">  5  6 -1 -1</clus>
<clus scale="   91.442">  7  8 -1 -1</clus>
<clus scale="  227.191">  1  5  2 -1</clus>
<clus scale="   21.421">  2  5  1 -1</clus>
</clustering>
</event>
<event>
 9    1  0.2674825E-005  0.1355526E+03  0.7546771E-02  0.1221835E+00
          1   -1    0    0  502    0  0.00000000000E+00  0.00000000000E+00  0.42031268671E+03  0.42031268671E+03  0.00000000000E+00 0. -1.
         -2   -1    0    0    0  501 -0.00000000000E+00 -0.00000000000E+00 -0.70673641550E+02  0.70673641550E+02  0.00000000000E+00 0.  1.
        -24    2    1    2    0    0 -0.92306158736E+02  0.18998745960E+02  0.54874495220E+02  0.13553568336E+03  0.80481873426E+02 0.  0.
         23    2    1    2    0    0  0.11224835926E+03 -0.13094333129E+02  0.14771792519E+03  0.20694049945E+03  0.90733836968E+02 0.  0.
         11    1    3    3    0    0 -0.64065020047E+01  0.26127303242E+02 -0.88751958294E+01  0.28327519193E+02  0.00000000000E+00 0. -1.
        -12    1    3    3    0    0 -0.85899656731E+02 -0.71285572825E+01  0.63749691049E+02  0.10720816417E+03  0.00000000000E+00 0.  1.
        -11    1    4    4    0    0  0.64205905235E+02  0.26327977733E+02  0.12058955803E+03  0.13913088149E+03  0.00000000000E+00 0. -1.
         11    1    4    4    0    0  0.48042454026E+02 -0.39422310861E+02  0.27128367165E+02  0.67809617958E+02  0.00000000000E+00 0.  1.
         21    1    1    2  502  501 -0.19942200526E+02 -0.59044128308E+01  0.14704662475E+03  0.14851014545E+03  0.00000000000E+00 0. -1.
<scales pt_clust_5="13000.00000" pt_clust_6="13000.00000" pt_clust_7="13000.00000" pt_clust_8="13000.00000" pt_clust_9="20.79792"></scales>
<clustering>
<clus scale="   20.798">  1  9  2 -1</clus>
<clus scale="   80.482">  5  6 -1 -1</clus>
<clus scale="   90.734">  7  8 -1 -1</clus>
<clus scale="  128.916">  2  5  1 -1</clus>
<clus scale="   20.798">  1  5  2 -1</clus>
</clustering>
</event>
<event>
 9    1  0.2674825E-005  0.9935437E+02  0.7546771E-02  0.1288585E+00
          3   -1    0    0  502    0  0.00000000000E+00  0.00000000000E+00  0.20550891768E+03  0.20550891768E+03  0.00000000000E+00 0. -1.
         -4   -1    0    0    0  501 -0.00000000000E+00 -0.00000000000E+00 -0.13608019854E+03  0.13608019854E+03  0.00000000000E+00 0.  1.
         23    2    1    2    0    0  0.13765537115E+02  0.35604126872E+02 -0.97601829583E+02  0.14004058330E+03  0.92887587819E+02 0.  0.
        -24    2    1    2    0    0  0.59902287407E+01 -0.16892065392E+02  0.14538347580E+03  0.16677746312E+03  0.79731690399E+02 0.  0.
         13    1    4    4    0    0 -0.31040454505E+02 -0.20935381108E+02  0.39009914107E+02  0.54070078571E+02  0.00000000000E+00 0. -1.
        -14    1    4    4    0    0  0.37030683246E+02  0.40433157155E+01  0.10637356170E+03  0.11270738455E+03  0.00000000000E+00 0.  1.
        -11    1    3    3    0    0  0.75431882729E+01  0.67099687973E+02 -0.57628294643E+02  0.88770987146E+02  0.00000000000E+00 0.  1.
         11    1    3    3    0    0  0.62223488426E+01 -0.31495561102E+02 -0.39973534941E+02  0.51269596155E+02  0.00000000000E+00 0. -1.
         21    1    1    2  502  501 -0.19755765856E+02 -0.18712061480E+02  0.21647072920E+02  0.34771069805E+02  0.00000000000E+00 0. -1.
<scales pt_clust_5="13000.00000" pt_clust_6="13000.00000" pt_clust_7="13000.00000" pt_clust_8="13000.00000" pt_clust_9="27.21087"></scales>
<clustering>
<clus scale="   27.211">  1  9  2 -1</clus>
<clus scale="   79.732">  5  6 -1 -1</clus>
<clus scale="   87.180">  1  5  2 -1</clus>
<clus scale="   92.888">  7  8 -1 -1</clus>
<clus scale="   27.211">  1  5  2 -1</clus>
</clustering>
</event>
<event>
 9    1  0.2674825E-005  0.9803237E+02  0.7546771E-02  0.1288702E+00
          1   -1    0    0  502    0  0.00000000000E+00  0.00000000000E+00  0.29751679733E+03  0.29751679733E+03  0.00000000000E+00 0. -1.
         -2   -1    0    0    0  501 -0.00000000000E+00 -0.00000000000E+00 -0.18885571976E+03  0.18885571976E+03  0.00000000000E+00 0.  1.
        -24    2    1    2    0    0 -0.14046331209E+02 -0.33895034388E+02 -0.13545207950E+03  0.16246565630E+03  0.81863611319E+02 0.  0.
         23    2    1    2    0    0  0.41447615200E+02  0.34788314877E+02  0.31723953832E+02  0.10975550785E+03  0.90065146421E+02 0.  0.
         11    1    3    3    0    0  0.35147453054E+01 -0.26005344615E+02 -0.60245914260E+00  0.26248701685E+02  0.00000000000E+00 0. -1.
        -12    1    3    3    0    0 -0.17561076515E+02 -0.78896897730E+01 -0.13484962036E+03  0.13621695461E+03  0.00000000000E+00 0.  1.
        -13    1    4    4    0    0  0.52417513006E+01  0.60010203166E+02  0.24559119567E+02  0.65052677075E+02  0.00000000000E+00 0. -1.
         13    1    4    4    0    0  0.36205863900E+02 -0.25221888289E+02  0.71648342656E+01  0.44702830779E+02  0.00000000000E+00 0.  1.
         21    1    1    2  502  501 -0.27401283991E+02 -0.89328048874E+00  0.21238920324E+03  0.21415135294E+03  0.00000000000E+00 0. -1.
<scales pt_clust_5="13000.00000" pt_clust_6="13000.00000" pt_clust_7="13000.00000" pt_clust_8="13000.00000" pt_clust_9="27.41584"></scales>
<clustering>
<clus scale="   27.416">  1  9  2 -1</clus>
<clus scale="   81.864">  5  6 -1 -1</clus>
<clus scale="   90.065">  7  8 -1 -1</clus>
<clus scale="   90.555">  2  5  1 -1</clus>
<clus scale="   27.416">  1  5  2 -1</clus>
</clustering>
</event>
<event>
 9    1  0.2674825E-005  0.9165605E+02  0.7546771E-02  0.1314120E+00
         -2   -1    0    0    0  501 -0.00000000000E+00  0.00000000000E+00  0.98502616670E+02  0.98502616670E+02  0.00000000000E+00 0.  1.
          1   -1    0    0  502    0  0.00000000000E+00 -0.00000000000E+00 -0.21770722342E+03  0.21770722342E+03  0.00000000000E+00 0. -1.
         23    2    1    2    0    0  0.83374550738E+00 -0.80452767857E+01  0.43725874021E+02  0.10124722357E+03  0.90959477855E+02 0.  0.
        -24    2    1    2    0    0 -0.48827888612E+02  0.29356664718E+01 -0.13531418675E+03  0.15935501286E+03  0.68493139381E+02 0.  0.
         11    1    4    4    0    0 -0.43976190560E+02  0.31686487598E+02 -0.98105005543E+02  0.11208269690E+03  0.00000000000E+00 0. -1.
        -12    1    4    4    0    0 -0.48516980528E+01 -0.28750821126E+02 -0.37209181209E+02  0.47272315954E+02  0.00000000000E+00 0.  1.
        -11    1    3    3    0    0 -0.37612224309E+02  0.13053178433E+02  0.41240263388E+02  0.57322109251E+02  0.00000000000E+00 0.  1.
         11    1    3    3    0    0  0.38445969817E+02 -0.21098455218E+02  0.24856106328E+01  0.43925114319E+02  0.00000000000E+00 0. -1.
         21    1    1    2  502  501  0.47994143105E+02  0.51096103139E+01 -0.27616294022E+02  0.55607603666E+02  0.00000000000E+00 0.  1.
<scales pt_clust_5="13000.00000" pt_clust_6="13000.00000" pt_clust_7="13000.00000" pt_clust_8="13000.00000" pt_clust_9="48.26537"></scales>
<clustering>
<clus scale="   48.265">  2  9  1 -1</clus>
<clus scale="   68.493">  5  6 -1 -1</clus>
<clus scale="   69.416">  2  5  1 -1</clus>
<clus scale="   90.959">  7  8 -1 -1</clus>
<clus scale="   48.265">  2  5  1 -1</clus>
</clustering>
</event>
<event>
 9    1  0.2674825E-005  0.1320514E+03  0.7546771E-02  0.1231566E+00
          1   -1    0    0  502    0  0.00000000000E+00  0.00000000000E+00  0.15014657100E+03  0.15014657100E+03  0.00000000000E+00 0. -1.
         -2   -1    0    0    0  501 -0.00000000000E+00 -0.00000000000E+00 -0.14233785574E+03  0.14233785574E+03  0.00000000000E+00 0.  1.
         23    2    1    2    0    0  0.55908172350E+02 -0.71312097835E+02 -0.44003295906E+02  0.13676400428E+03  0.92503858201E+02 0.  0.
        -24    2    1    2    0    0 -0.80576903937E+02  0.63657602091E+02  0.42464145371E+02  0.12825189105E+03  0.64034491978E+02 0.  0.
         11    1    4    4    0    0 -0.78574164995E+02  0.31270560880E+02  0.44832314486E+02  0.95716685090E+02  0.00000000000E+00 0. -1.
        -12    1    4    4    0    0 -0.20027389420E+01  0.32387041211E+02 -0.23681691148E+01  0.32535205957E+02  0.00000000000E+00 0.  1.
        -11    1    3    3    0    0  0.25897423229E+02 -0.82102595936E+02 -0.55988249079E+02  0.10269467768E+03  0.00000000000E+00 0.  1.
         11    1    3    3    0    0  0.30010749121E+02  0.10790498101E+02  0.11984953173E+02  0.34069326595E+02  0.00000000000E+00 0. -1.
         21    1    1    2  502  501  0.24668731586E+02  0.76544957437E+01  0.93478657902E+01  0.27468531413E+02  0.00000000000E+00 0. -1.
<scales pt_clust_5="13000.00000" pt_clust_6="13000.00000" pt_clust_7="13000.00000" pt_clust_8="13000.00000" pt_clust_9="25.82901"></scales>
<clustering>
<clus scale="   25.829">  1  9  2 -1</clus>
<clus scale="   64.034">  5  6 -1 -1</clus>
<clus scale="   92.504">  7  8 -1 -1</clus>
<clus scale="  113.934">  1  5  2 -1</clus>
<clus scale="   25.829">  1  5  2 -1</clus>
</clustering>
</event>
<event>
 9    1  0.2674825E-005  0.9880237E+02  0.7546771E-02  0.1291165E+00
         -2   -1    0    0    0  501 -0.00000000000E+00  0.00000000000E+00  0.86104804185E+03  0.86104804185E+03  0.00000000000E+00 0.  1.
          1   -1    0    0  502    0  0.00000000000E+00 -0.00000000000E+00 -0.71758461348E+02  0.71758461348E+02  0.00000000000E+00 0. -1.
        -24    2    1    2    0    0  0.45850164744E+01  0.38015448891E+02  0.80708898304E+03  0.81154183190E+03  0.75771509481E+02 0.  0.
         23    2    1    2    0    0  0.46284520164E+01 -0.17502157948E+02 -0.11116266970E+01  0.93261725575E+02  0.91480957813E+02 0.  0.
         13    1    3    3    0    0 -0.46539886633E+01  0.46995241000E+02  0.25705709205E+03  0.26135906500E+03  0.00000000000E+00 0. -1.
        -14    1    3    3    0    0  0.92390051377E+01 -0.89797921090E+01  0.55003189099E+03  0.55018276690E+03  0.00000000000E+00 0.  1.
        -11    1    4    4    0    0  0.44601212079E+02 -0.18077262807E+02 -0.15829082998E+02  0.50661774723E+02  0.00000000000E+00 0.  1.
         11    1    4    4    0    0 -0.39972760063E+02  0.57510485961E+00  0.14717456301E+02  0.42599950852E+02  0.00000000000E+00 0. -1.
         21    1    1    2  502  501 -0.92134684907E+01 -0.20513290944E+02 -0.16687775838E+02  0.28002945727E+02  0.00000000000E+00 0. -1.
<scales pt_clust_5="13000.00000" pt_clust_6="13000.00000" pt_clust_7="13000.00000" pt_clust_8="13000.00000" pt_clust_9="22.48740"></scales>
<clustering>
<clus scale="   22.487">  2  9  1 -1</clus>
<clus scale="   75.772">  5  6 -1 -1</clus>
<clus scale="   84.466">  1  5  2 -1</clus>
<clus scale="   91.481">  7  8 -1 -1</clus>
<clus scale="   22.487">  2  5  1 -1</clus>
</clustering>
</event>
<event>
 9    1  0.2674825E-005  0.1156408E+03  0.7546771E-02  0.1253423E+00
         -2   -1    0    0    0  501 -0.00000000000E+00  0.00000000000E+00  0.52153978379E+02  0.52153978379E+02  0.00000000000E+00 0.  1.
          1   -1    0    0  502    0  0.00000000000E+00 -0.00000000000E+00 -0.75508293629E+03  0.75508293629E+03  0.00000000000E+00 0. -1.
         23    2    1    2    0    0  0.63221823788E+02  0.37573722428E+02 -0.51597550075E+02  0.12815168949E+03  0.91387990051E+02 0.  0.
        -24    2    1    2    0    0 -0.96374355439E+01 -0.85500356672E+02 -0.43611970698E+03  0.45218364934E+03  0.82864122255E+02 0.  0.
         11    1    4    4    0    0 -0.36904518552E+02 -0.57427322632E+02 -0.36186195421E+03  0.36824436829E+03  0.00000000000E+00 0. -1.
        -12    1    4    4    0    0  0.27267083008E+02 -0.28073034040E+02 -0.74257752770E+02  0.83939281046E+02  0.00000000000E+00 0.  1.
        -11    1    3    3    0    0  0.34512179755E+02  0.49899222240E+02 -0.69408729420E+02  0.92187822684E+02  0.00000000000E+00 0.  1.
         11    1    3    3    0    0  0.28709644032E+02 -0.12325499811E+02  0.17811179345E+02  0.35963866807E+02  0.00000000000E+00 0. -1.
         21    1    1    2  502  501 -0.53584388244E+02  0.47926634244E+02 -0.21521170085E+03  0.22690157584E+03  0.00000000000E+00 0.  1.
<scales pt_clust_5="13000.00000" pt_clust_6="13000.00000" pt_clust_7="13000.00000" pt_clust_8="13000.00000" pt_clust_9="71.89053"></scales>
<clustering>
<clus scale="   71.891">  2  9  1 -1</clus>
<clus scale="   82.864">  5  6 -1 -1</clus>
<clus scale="   91.388">  7  8 -1 -1</clus>
<clus scale="  109.030">  2  5  1 -1</clus>
<clus scale="   71.891">  2  5  1 -1</clus>
</clustering>
</event>
<event>
 9    1  0.2674825E-005  0.1836120E+03  0.7546771E-02  0.1164360E+00
         -2   -1    0    0    0  501 -0.00000000000E+00  0.00000000000E+00  0.40475354448E+02  0.40475354448E+02  0.00000000000E+00 0.  1.
          1   -1    0    0  502    0  0.00000000000E+00 -0.00000000000E+00 -0.11209684035E+04  0.11209684035E+04  0.00000000000E+00 0. -1.
        -24    2    1    2    0    0  0.12548634443E+03 -0.70157873505E+02 -0.39381702925E+03  0.42747335277E+03  0.83502484671E+02 0.  0.
         23    2    1    2    0    0 -0.15416079639E+03  0.10895097677E+03 -0.49519611957E+03  0.53650729154E+03  0.83576375559E+02 0.  0.
         13    1    3    3    0    0  0.94301025208E+02 -0.68914731453E+02 -0.37061465428E+03  0.38858351166E+03  0.00000000000E+00 0. -1.
        -14    1    3    3    0    0  0.31185319225E+02 -0.12431420519E+01 -0.23202374971E+02  0.38889841111E+02  0.00000000000E+00 0.  1.
        -11    1    4    4    0    0 -0.21646241561E+02  0.49826037101E+02 -0.80142616332E+02  0.96819588408E+02  0.00000000000E+00 0.  1.
         11    1    4    4    0    0 -0.13251455483E+03  0.59124939673E+02 -0.41505350324E+03  0.43968770313E+03  0.00000000000E+00 0. -1.
         21    1    1    2  502  501  0.28674451960E+02 -0.38793103269E+02 -0.19147990023E+03  0.19746311364E+03  0.00000000000E+00 0. -1.
<scales pt_clust_5="13000.00000" pt_clust_6="13000.00000" pt_clust_7="13000.00000" pt_clust_8="13000.00000" pt_clust_9="48.24033"></scales>
<clustering>
<clus scale="   48.240">  2  9  1 -1</clus>
<clus scale="   83.502">  5  6 -1 -1</clus>
<clus scale="   83.576">  7  8 -1 -1</clus>
<clus scale="  183.578">  1  5  2 -1</clus>
<clus scale="   48.240">  2  5  1 -1</clus>
</clustering>
</event>
<event>
 9    1  0.2674825E-005  0.1015949E+03  0.7546771E-02  0.1281317E+00
          1   -1    0    0  502    0  0.00000000000E+00  0.00000000000E+00  0.29227159444E+03  0.29227159444E+03  0.00000000000E+00 0. -1.
         -2   -1    0    0    0  501 -0.00000000000E+00 -0.00000000000E+00 -0.60825426146E+02  0.60825426146E+02  0.00000000000E+00 0.  1.
        -24    2    1    2    0    0  0.29345485994E+02 -0.38578525054E+02  0.16968090549E+02  0.97398254051E+02  0.82758949073E+02 0.  0.
         23    2    1    2    0    0 -0.39649082413E+02  0.17974206984E+01  0.16839776871E+03  0.19584554091E+03  0.91773563358E+02 0.  0.
         13    1    3    3    0    0  0.18828106689E+02 -0.44218987059E+02  0.45679278262E+02  0.66305451364E+02  0.00000000000E+00 0. -1.
        -14    1    3    3    0    0  0.10517379305E+02  0.56404620051E+01 -0.28711187713E+02  0.31092802687E+02  0.00000000000E+00 0.  1.
        -11    1    4    4    0    0 -0.26549371114E+02 -0.44496491138E+02  0.83881601014E+02  0.98594775819E+02  0.00000000000E+00 0.  1.
         11    1    4    4    0    0 -0.13099711299E+02  0.46293911836E+02  0.84516167697E+02  0.97250765094E+02  0.00000000000E+00 0. -1.
         21    1    1    2  502  501  0.10303596418E+02  0.36781104356E+02  0.46080309037E+02  0.59853225625E+02  0.00000000000E+00 0. -1.
<scales pt_clust_5="13000.00000" pt_clust_6="13000.00000" pt_clust_7="13000.00000" pt_clust_8="13000.00000" pt_clust_9="38.19704"></scales>
<clustering>
<clus scale="   38.197">  1  9  2 -1</clus>
<clus scale="   82.759">  5  6 -1 -1</clus>
<clus scale="   91.774">  7  8 -1 -1</clus>
<clus scale="   93.532">  2  5  1 -1</clus>
<clus scale="   38.197">  1  5  2 -1</clus>
</clustering>
</event>
<event>
 9    1  0.2674825E-005  0.9335859E+02  0.7546771E-02  0.1303055E+00
          1   -1    0    0  502    0  0.00000000000E+00  0.00000000000E+00  0.40052112607E+03  0.40052112607E+03  0.00000000000E+00 0. -1.
         -2   -1    0    0    0  501 -0.00000000000E+00 -0.00000000000E+00 -0.51781565890E+02  0.51781565890E+02  0.00000000000E+00 0.  1.
        -24    2    1    2    0    0 -0.16362593529E+02  0.10763976524E+02  0.19728010228E+01  0.80720773979E+02  0.78283802605E+02 0.  0.
         23    2    1    2    0    0  0.17924843133E+02  0.10559297823E+02  0.17615258562E+03  0.19963332432E+03  0.91602030457E+02 0.  0.
         13    1    3    3    0    0  0.19940881944E+02 -0.14164687069E+02  0.21482610856E+02  0.32554257812E+02  0.00000000000E+00 0. -1.
        -14    1    3    3    0    0 -0.36303475473E+02  0.24928663593E+02 -0.19509809834E+02  0.48166516167E+02  0.00000000000E+00 0.  1.
        -11    1    4    4    0    0  0.44881655227E+02  0.35363717044E+02  0.11300000900E+03  0.12662526404E+03  0.00000000000E+00 0. -1.
         11    1    4    4    0    0 -0.26956812094E+02 -0.24804419221E+02  0.63152576628E+02  0.73008060280E+02  0.00000000000E+00 0.  1.
         21    1    1    2  502  501 -0.15622496035E+01 -0.21323274348E+02  0.17061417353E+03  0.17194859366E+03  0.00000000000E+00 0. -1.
<scales pt_clust_5="13000.00000" pt_clust_6="13000.00000" pt_clust_7="13000.00000" pt_clust_8="13000.00000" pt_clust_9="21.38043"></scales>
<clustering>
<clus scale="   21.380">  1  9  2 -1</clus>
<clus scale="   78.284">  5  6 -1 -1</clus>
<clus scale="   80.332">  2  5  1 -1</clus>
<clus scale="   91.602">  7  8 -1 -1</clus>
<clus scale="   21.380">  1  5  2 -1</clus>
</clustering>
</event>
<event>
 9    1  0.2674825E-005  0.2466802E+03  0.7546771E-02  0.1115680E+00
          3   -1    0    0  502    0  0.00000000000E+00  0.00000000000E+00  0.24299613091E+03  0.24299613091E+03  0.00000000000E+00 0. -1.
         -4   -1    0    0    0  501 -0.00000000000E+00 -0.00000000000E+00 -0.30824174371E+03  0.30824174371E+03  0.00000000000E+00 0.  1.
         23    2    1    2    0    0  0.16067580320E+03  0.15343896138E+03 -0.12929630322E+03  0.27216259159E+03  0.89413162510E+02 0.  0.
        -24    2    1    2    0    0 -0.18072320891E+03 -0.14826919833E+03  0.68372391464E+02  0.25792576707E+03  0.84889834449E+02 0.  0.
         11    1    4    4    0    0 -0.13283038142E+03 -0.85145408056E+02  0.81542073615E+02  0.17760281673E+03  0.00000000000E+00 0. -1.
        -12    1    4    4    0    0 -0.47892827490E+02 -0.63123790274E+02 -0.13169682151E+02  0.80322950341E+02  0.00000000000E+00 0.  1.
        -13    1    3    3    0    0  0.90080010996E+02  0.88962640665E+02 -0.12273226804E+03  0.17632915083E+03  0.00000000000E+00 0.  1.
         13    1    3    3    0    0  0.70595792208E+02  0.64476320714E+02 -0.65640351882E+01  0.95833440762E+02  0.00000000000E+00 0. -1.
         21    1    1    2  502  501  0.20047405704E+02 -0.51697630486E+01 -0.43217010334E+01  0.21149515958E+02  0.00000000000E+00 0.  1.
<scales pt_clust_5="13000.00000" pt_clust_6="13000.00000" pt_clust_7="13000.00000" pt_clust_8="13000.00000" pt_clust_9="20.70326"></scales>
<clustering>
<clus scale="   20.703">  2  9  1 -1</clus>
<clus scale="   84.890">  5  6 -1 -1</clus>
<clus scale="   89.413">  7  8 -1 -1</clus>
<clus scale="  245.077">  1  5  2 -1</clus>
<clus scale="  245.077">  1  5  2 -1</clus>
</clustering>
</event>
<event>
 9    1  0.2674825E-005  0.8969137E+02  0.7546771E-02  0.1308163E+00
          1   -1    0    0  502    0  0.00000000000E+00  0.00000000000E+00  0.15567745476E+03  0.15567745476E+03  0.00000000000E+00 0. -1.
         -2   -1    0    0    0  501 -0.00000000000E+00 -0.00000000000E+00 -0.15426307880E+03  0.15426307880E+03  0.00000000000E+00 0.  1.
         23    2    1    2    0    0  0.48767044162E+01  0.14929912191E+02 -0.90094896371E+02  0.12699409049E+03  0.88111997723E+02 0.  0.
        -24    2    1    2    0    0 -0.45227350113E+02  0.13315543353E+02  0.19269562783E+02  0.95513291446E+02  0.80800098391E+02 0.  0.
         13    1    4    4    0    0 -0.20645130779E+02 -0.14447598233E+02  0.44166123994E+02  0.50848805574E+02  0.00000000000E+00 0. -1.
        -14    1    4    4    0    0 -0.24582219334E+02  0.27763141586E+02 -0.24896561211E+02  0.44664485872E+02  0.00000000000E+00 0.  1.
        -13    1    3    3    0    0 -0.40204519330E+02 -0.43715148227E+01 -0.39384406453E+02  0.56450376332E+02  0.00000000000E+00 0.  1.
         13    1    3    3    0    0  0.45081223746E+02  0.19301427013E+02 -0.50710489918E+02  0.70543714156E+02  0.00000000000E+00 0. -1.
         21    1    1    2  502  501  0.40350645697E+02 -0.28245455544E+02  0.72239709552E+02  0.87433151626E+02  0.00000000000E+00 0. -1.
<scales pt_clust_5="13000.00000" pt_clust_6="13000.00000" pt_clust_7="13000.00000" pt_clust_8="13000.00000" pt_clust_9="49.25424"></scales>
<clustering>
<clus scale="   49.254">  1  9  2 -1</clus>
<clus scale="   80.800">  5  6 -1 -1</clus>
<clus scale="   82.520">  1  5  2 -1</clus>
<clus scale="   88.112">  7  8 -1 -1</clus>
<clus scale="   49.254">  1  5  2 -1</clus>
</clustering>
</event>
<event>
 9    1  0.2674825E-005  0.8812732E+02  0.7546771E-02  0.1311423E+00
         -2   -1    0    0    0  501 -0.00000000000E+00  0.00000000000E+00  0.80388125278E+02  0.80388125278E+02  0.00000000000E+00 0.  1.
          1   -1    0    0  502    0  0.00000000000E+00 -0.00000000000E+00 -0.50414942236E+03  0.50414942236E+03  0.00000000000E+00 0. -1.
        -24    2    1    2    0    0  0.39784497351E+01  0.15769312461E+02  0.50566233187E+02  0.96146518544E+02  0.80141810634E+02 0.  0.
         23    2    1    2    0    0 -0.97977848547E+00 -0.37183290594E+02 -0.40434058231E+03  0.41513993099E+03  0.86407746962E+02 0.  0.
         11    1    3    3    0    0 -0.28457233047E+02 -0.95358918948E+01 -0.11850463936E+01  0.30035839957E+02  0.00000000000E+00 0. -1.
        -12    1    3    3    0    0  0.32435682783E+02  0.25305204356E+02  0.51751279581E+02  0.66110678588E+02  0.00000000000E+00 0.  1.
        -13    1    4    4    0    0  0.23766339196E+02 -0.51753702514E+02 -0.33923854840E+03  0.34398557721E+03  0.00000000000E+00 0. -1.
         13    1    4    4    0    0 -0.24746117681E+02  0.14570411920E+02 -0.65102033906E+02  0.71154353785E+02  0.00000000000E+00 0.  1.
         21    1    1    2  502  501 -0.29986712497E+01  0.21413978133E+02 -0.69986947956E+02  0.73251098100E+02  0.00000000000E+00 0.  1.
<scales pt_clust_5="13000.00000" pt_clust_6="13000.00000" pt_clust_7="13000.00000" pt_clust_8="13000.00000" pt_clust_9="21.62292"></scales>
<clustering>
<clus scale="   21.623">  2  9  1 -1</clus>
<clus scale="   80.142">  5  6 -1 -1</clus>
<clus scale="   81.993">  1  5  2 -1</clus>
<clus scale="   86.408">  7  8 -1 -1</clus>
<clus scale="   21.623">  2  5  1 -1</clus>
</clustering>
</event>
<event>
 9    1  0.2674825E-005  0.2315205E+03  0.7546771E-02  0.1126257E+00
          1   -1    0    0  502    0  0.00000000000E+00  0.00000000000E+00  0.14610168881E+03  0.14610168881E+03  0.00000000000E+00 0. -1.
         -2   -1    0    0    0  501 -0.00000000000E+00 -0.00000000000E+00 -0.41822620103E+03  0.41822620103E+03  0.00000000000E+00 0.  1.
         23    2    1    2    0    0  0.19552901975E+03 -0.93887194636E+02 -0.19708549846E+03  0.30715415043E+03  0.91948765848E+02 0.  0.
        -24    2    1    2    0    0 -0.19373765330E+03  0.71881170931E+02 -0.76614294042E+02  0.23503879915E+03  0.81684184579E+02 0.  0.
         13    1    4    4    0    0 -0.69182815352E+02  0.30816977532E+02  0.12108231269E+02  0.76697831186E+02  0.00000000000E+00 0. -1.
        -14    1    4    4    0    0 -0.12455483795E+03  0.41064193399E+02 -0.88722525311E+02  0.15834096796E+03  0.00000000000E+00 0.  1.
        -11    1    3    3    0    0  0.11213570496E+03 -0.34724650825E+01 -0.85137543260E+02  0.14083634337E+03  0.00000000000E+00 0. -1.
         11    1    3    3    0    0  0.83393314786E+02 -0.90414729553E+02 -0.11194795520E+03  0.16631780706E+03  0.00000000000E+00 0.  1.
         21    1    1    2  502  501 -0.17913664428E+01  0.22006023705E+02  0.15752802815E+01  0.22134940275E+02  0.00000000000E+00 0. -1.
<scales pt_clust_5="13000.00000" pt_clust_6="13000.00000" pt_clust_7="13000.00000" pt_clust_8="13000.00000" pt_clust_9="22.07882"></scales>
<clustering>
<clus scale="   22.079">  1  9  2 -1</clus>
<clus scale="   81.684">  5  6 -1 -1</clus>
<clus scale="   91.949">  7  8 -1 -1</clus>
<clus scale="  227.639">  1  5  2 -1</clus>
<clus scale="   22.079">  1  5  2 -1</clus>
</clustering>
</event>
<event>
 9    1  0.2674825E-005  0.1194717E+03  0.7546771E-02  0.1247371E+00
         -2   -1    0    0    0  501 -0.00000000000E+00  0.00000000000E+00  0.39123935006E+02  0.39123935006E+02  0.00000000000E+00 0.  1.
          1   -1    0    0  502    0  0.00000000000E+00 -0.00000000000E+00 -0.42198323872E+03  0.42198323872E+03  0.00000000000E+00 0. -1.
         23    2    1    2    0    0 -0.80803371189E+02  0.20717829300E+02 -0.16491588046E+03  0.20628757235E+03  0.91645521609E+02 0.  0.
        -24    2    1    2    0    0  0.64398096350E+02 -0.34195824925E+02 -0.19597261777E+03  0.22426627583E+03  0.81077902674E+02 0.  0.
         11    1    4    4    0    0  0.10771114215E+01 -0.22980197232E+02 -0.13043566577E+03  0.13244890539E+03  0.00000000000E+00 0. -1.
        -12    1    4    4    0    0  0.63320984928E+02 -0.11215627693E+02 -0.65536952003E+02  0.91817370441E+02  0.00000000000E+00 0.  1.
        -11    1    3    3    0    0 -0.57224120537E+02  0.67962577826E+01 -0.23481259795E+02  0.62226671554E+02  0.00000000000E+00 0.  1.
         11    1    3    3    0    0 -0.23579250652E+02  0.13921571517E+02 -0.14143462067E+03  0.14406090080E+03  0.00000000000E+00 0. -1.
         21    1    1    2  502  501  0.16405274839E+02  0.13477995625E+02 -0.21970805483E+02  0.30553325550E+02  0.00000000000E+00 0.  1.
<scales pt_clust_5="13000.00000" pt_clust_6="13000.00000" pt_clust_7="13000.00000" pt_clust_8="13000.00000" pt_clust_9="21.23180"></scales>
<clustering>
<clus scale="   21.232">  1  9  2 -1</clus>
<clus scale="   81.078">  5  6 -1 -1</clus>
<clus scale="   91.646">  7  8 -1 -1</clus>
<clus scale="  111.572">  2  5  1 -1</clus>
<clus scale="  111.572">  2  5  1 -1</clus>
</clustering>
</event>
<event>
 9    1  0.3905541E-005  0.1157977E+03  0.7546771E-02  0.1253746E+00
          1   -1    0    0  502    0  0.00000000000E+00  0.00000000000E+00  0.42219451503E+03  0.42219451503E+03  0.00000000000E+00 0. -1.
         -2   -1    0    0    0  501 -0.00000000000E+00 -0.00000000000E+00 -0.18747377321E+03  0.18747377321E+03  0.00000000000E+00 0.  1.
         23    2    1    2    0    0 -0.45266875108E+02  0.57687144858E+02 -0.15583714262E+03  0.19405759505E+03  0.89421689271E+02 0.  0.
        -24    2    1    2    0    0  0.33096022274E+02 -0.73564562948E+02  0.37040499186E+03  0.38721419441E+03  0.78916935705E+02 0.  0.
         11    1    4    4    0    0  0.56921362478E+02 -0.40543831011E+02  0.26924456779E+03  0.27816628305E+03  0.00000000000E+00 0. -1.
        -12    1    4    4    0    0 -0.23825340204E+02 -0.33020731937E+02  0.10116042407E+03  0.10904791136E+03  0.00000000000E+00 0.  1.
        -11    1    3    3    0    0 -0.68048105185E+02  0.57034462092E+02 -0.99891752400E+02  0.13364818249E+03  0.00000000000E+00 0.  1.
         11    1    3    3    0    0  0.22781230078E+02  0.65268276520E+00 -0.55945390222E+02  0.60409412559E+02  0.00000000000E+00 0. -1.
         21    1    1    2  502  501  0.12170852833E+02  0.15877418090E+02  0.20152892575E+02  0.28396498781E+02  0.00000000000E+00 0.  1.
<scales pt_clust_5="13000.00000" pt_clust_6="13000.00000" pt_clust_7="13000.00000" pt_clust_8="13000.00000" pt_clust_9="20.00555"></scales>
<clustering>
<clus scale="   20.006">  1  9  2 -1</clus>
<clus scale="   78.917">  5  6 -1 -1</clus>
<clus scale="   89.422">  7  8 -1 -1</clus>
<clus scale="  107.892">  1  5  2 -1</clus>
<clus scale="   20.006">  1  5  2 -1</clus>
</clustering>
</event>
<event>
 9    1  0.2674825E-005  0.2926337E+03  0.7546771E-02  0.1089421E+00
          1   -1    0    0  502    0  0.00000000000E+00  0.00000000000E+00  0.22626202430E+03  0.22626202430E+03  0.00000000000E+00 0. -1.
         -2   -1    0    0    0  501 -0.00000000000E+00 -0.00000000000E+00 -0.56624354961E+03  0.56624354961E+03  0.00000000000E+00 0.  1.
        -24    2    1    2    0    0  0.12226219688E+03  0.26135622435E+03 -0.37265869151E+03  0.47795212134E+03  0.79426753312E+02 0.  0.
         23    2    1    2    0    0 -0.87299664157E+02 -0.23525711420E+03  0.14546209264E+02  0.26730650722E+03  0.90961725198E+02 0.  0.
         11    1    3    3    0    0  0.30658526107E+02  0.18705007238E+02 -0.74939193721E+02  0.83100573249E+02  0.00000000000E+00 0. -1.
        -12    1    3    3    0    0  0.91603670774E+02  0.24265121711E+03 -0.29771949779E+03  0.39485154809E+03  0.00000000000E+00 0.  1.
        -13    1    4    4    0    0 -0.94158632543E+02 -0.15300444436E+03 -0.13427207440E+02  0.18015687047E+03  0.00000000000E+00 0. -1.
         13    1    4    4    0    0  0.68589683861E+01 -0.82252669843E+02  0.27973416704E+02  0.87149636750E+02  0.00000000000E+00 0.  1.
         21    1    1    2  502  501 -0.34962532724E+02 -0.26099110146E+02  0.18130956940E+02  0.47246945345E+02  0.00000000000E+00 0. -1.
<scales pt_clust_5="13000.00000" pt_clust_6="13000.00000" pt_clust_7="13000.00000" pt_clust_8="13000.00000" pt_clust_9="43.62960"></scales>
<clustering>
<clus scale="   43.630">  1  9  2 -1</clus>
<clus scale="   79.427">  5  6 -1 -1</clus>
<clus scale="   90.962">  7  8 -1 -1</clus>
<clus scale="  289.256">  2  5  1 -1</clus>
<clus scale="   43.630">  1  5  2 -1</clus>
</clustering>
</event>
<event>
 9    1  0.2674825E-005  0.1146660E+03  0.7546771E-02  0.1255469E+00
          1   -1    0    0  502    0  0.00000000000E+00  0.00000000000E+00  0.82881747528E+03  0.82881747528E+03  0.00000000000E+00 0. -1.
         -2   -1    0    0    0  501 -0.00000000000E+00 -0.00000000000E+00 -0.23049528330E+02  0.23049528330E+02  0.00000000000E+00 0.  1.
         23    2    1    2    0    0 -0.34230722692E+02 -0.69030787859E+02  0.21184479124E+03  0.24329564311E+03  0.91529024523E+02 0.  0.
        -24    2    1    2    0    0  0.69587283196E+01  0.53186397921E+02  0.49834677179E+03  0.50792519052E+03  0.82226986971E+02 0.  0.
         11    1    4    4    0    0  0.29791975073E+02  0.60792055907E+02  0.27183022355E+03  0.28013372927E+03  0.00000000000E+00 0. -1.
        -12    1    4    4    0    0 -0.22833246754E+02 -0.76056579859E+01  0.22651654824E+03  0.22779146125E+03  0.00000000000E+00 0.  1.
        -11    1    3    3    0    0 -0.94758614227E+01 -0.28650289858E+02  0.43800268400E+01  0.30492879395E+02  0.00000000000E+00 0.  1.
         11    1    3    3    0    0 -0.24754861269E+02 -0.40380498001E+02  0.20746476440E+03  0.21280276371E+03  0.00000000000E+00 0. -1.
         21    1    1    2  502  501  0.27271994372E+02  0.15844389938E+02  0.95576383911E+02  0.10064616998E+03  0.00000000000E+00 0. -1.
<scales pt_clust_5="13000.00000" pt_clust_6="13000.00000" pt_clust_7="13000.00000" pt_clust_8="13000.00000" pt_clust_9="31.54055"></scales>
<clustering>
<clus scale="   31.541">  1  9  2 -1</clus>
<clus scale="   82.227">  5  6 -1 -1</clus>
<clus scale="   91.529">  7  8 -1 -1</clus>
<clus scale="  107.387">  1  5  2 -1</clus>
<clus scale="   31.541">  1  5  2 -1</clus>
</clustering>
</event>
<event>
 9    1  0.2674825E-005  0.2030218E+03  0.7546771E-02  0.1148054E+00
         -2   -1    0    0    0  501 -0.00000000000E+00  0.00000000000E+00  0.76688546465E+02  0.76688546465E+02  0.00000000000E+00 0.  1.
          1   -1    0    0  502    0  0.00000000000E+00 -0.00000000000E+00 -0.10440152183E+04  0.10440152183E+04  0.00000000000E+00 0. -1.
         23    2    1    2    0    0 -0.12788411022E+03  0.15734946193E+03 -0.19472713429E+03  0.29510873605E+03  0.89762522505E+02 0.  0.
        -24    2    1    2    0    0  0.15181382032E+03 -0.94517493280E+02 -0.69874849948E+03  0.72572279468E+03  0.80269026478E+02 0.  0.
         11    1    4    4    0    0  0.14270430163E+03 -0.10269686978E+03 -0.68548439294E+03  0.70767225305E+03  0.00000000000E+00 0. -1.
        -12    1    4    4    0    0  0.91095186969E+01  0.81793765051E+01 -0.13264106541E+02  0.18050541632E+02  0.00000000000E+00 0.  1.
        -11    1    3    3    0    0 -0.92742940618E+02  0.55117976591E+02 -0.63868447720E+02  0.12537313505E+03  0.00000000000E+00 0.  1.
         11    1    3    3    0    0 -0.35141169604E+02  0.10223148534E+03 -0.13085868657E+03  0.16973560100E+03  0.00000000000E+00 0. -1.
         21    1    1    2  502  501 -0.23929710100E+02 -0.62831968651E+02 -0.73851038090E+02  0.99872234065E+02  0.00000000000E+00 0.  1.
<scales pt_clust_5="13000.00000" pt_clust_6="13000.00000" pt_clust_7="13000.00000" pt_clust_8="13000.00000" pt_clust_9="67.23457"></scales>
<clustering>
<clus scale="   67.235">  1  9  2 -1</clus>
<clus scale="   80.269">  5  6 -1 -1</clus>
<clus scale="   89.763">  7  8 -1 -1</clus>
<clus scale="  199.007">  2  5  1 -1</clus>
<clus scale="  199.007">  2  5  1 -1</clus>
</clustering>
</event>
<event>
 9    1  0.2674825E-005  0.1127758E+03  0.7546771E-02  0.1259776E+00
         -2   -1    0    0    0  501 -0.00000000000E+00  0.00000000000E+00  0.56900024489E+02  0.56900024489E+02  0.00000000000E+00 0.  1.
          1   -1    0    0  502    0  0.00000000000E+00 -0.00000000000E+00 -0.49274751301E+03  0.49274751301E+03  0.00000000000E+00 0. -1.
         23    2    1    2    0    0 -0.74503259444E+02 -0.52686591892E+02 -0.80160629282E+02  0.15152757499E+03  0.90599486002E+02 0.  0.
        -24    2    1    2    0    0  0.27126797248E+02  0.36828598284E+02 -0.91478431640E+02  0.12922946742E+03  0.78992043995E+02 0.  0.
         11    1    4    4    0    0  0.53473073139E+02  0.32677080136E+02 -0.75573088344E+02  0.98175622224E+02  0.00000000000E+00 0. -1.
        -12    1    4    4    0    0 -0.26346275891E+02  0.41515181477E+01 -0.15905343296E+02  0.31053845199E+02  0.00000000000E+00 0.  1.
        -11    1    3    3    0    0  0.34890417975E+01 -0.48053571514E+02 -0.17102683565E+02  0.51125540907E+02  0.00000000000E+00 0.  1.
         11    1    3    3    0    0 -0.77992301242E+02 -0.46330203775E+01 -0.63057945717E+02  0.10040203409E+03  0.00000000000E+00 0. -1.
         21    1    1    2  502  501  0.47376462196E+02  0.15857993608E+02 -0.26420842760E+03  0.26889049508E+03  0.00000000000E+00 0. -1.
<scales pt_clust_5="13000.00000" pt_clust_6="13000.00000" pt_clust_7="13000.00000" pt_clust_8="13000.00000" pt_clust_9="49.96004"></scales>
<clustering>
<clus scale="   49.960">  2  9  1 -1</clus>
<clus scale="   78.992">  5  6 -1 -1</clus>
<clus scale="   90.599">  7  8 -1 -1</clus>
<clus scale="  103.682">  2  5  1 -1</clus>
<clus scale="   49.960">  2  5  1 -1</clus>
</clustering>
</event>
<event>
 9    1  0.2674825E-005  0.1060625E+03  0.7546771E-02  0.1270840E+00
          1   -1    0    0  502    0  0.00000000000E+00  0.00000000000E+00  0.15859796906E+03  0.15859796906E+03  0.00000000000E+00 0. -1.
         -2   -1    0    0    0  501 -0.00000000000E+00 -0.00000000000E+00 -0.55178415535E+03  0.55178415535E+03  0.00000000000E+00 0.  1.
        -24    2    1    2    0    0 -0.59736846195E+02  0.94873264355E+01 -0.49908910826E+03  0.50938746370E+03  0.82019205329E+02 0.  0.
         23    2    1    2    0    0  0.31211164859E-01  0.60158047536E+01  0.10716666049E+03  0.13929614398E+03  0.88783623077E+02 0.  0.
         11    1    3    3    0    0  0.34092444086E+01  0.25289613456E+02 -0.55969981052E+02  0.61512813910E+02  0.00000000000E+00 0. -1.
        -12    1    3    3    0    0 -0.63146090603E+02 -0.15802287021E+02 -0.44311912720E+03  0.44787464979E+03  0.00000000000E+00 0.  1.
        -11    1    4    4    0    0  0.25930939021E+02  0.38098549195E+02  0.69857124152E+02  0.83689490642E+02  0.00000000000E+00 0. -1.
         11    1    4    4    0    0 -0.25899727856E+02 -0.32082744441E+02  0.37309536337E+02  0.55606653339E+02  0.00000000000E+00 0.  1.
         21    1    1    2  502  501  0.59705635030E+02 -0.15503131189E+02 -0.12637385151E+01  0.61698516725E+02  0.00000000000E+00 0. -1.
<scales pt_clust_5="13000.00000" pt_clust_6="13000.00000" pt_clust_7="13000.00000" pt_clust_8="13000.00000" pt_clust_9="61.68557"></scales>
<clustering>
<clus scale="   61.686">  1  9  2 -1</clus>
<clus scale="   82.019">  5  6 -1 -1</clus>
<clus scale="   88.784">  7  8 -1 -1</clus>
<clus scale="  100.468">  2  5  1 -1</clus>
<clus scale="   61.686">  1  5  2 -1</clus>
</clustering>
</event>
<event>
 9    1  0.2674825E-005  0.1221782E+03  0.7546771E-02  0.1250407E+00
         -4   -1    0    0    0  501 -0.00000000000E+00  0.00000000000E+00  0.29218713819E+03  0.29218713819E+03  0.00000000000E+00 0.  1.
          3   -1    0    0  502    0  0.00000000000E+00 -0.00000000000E+00 -0.12627254558E+03  0.12627254558E+03  0.00000000000E+00 0. -1.
         23    2    1    2    0    0 -0.35708294465E+02 -0.66946619136E+01  0.11797604666E+03  0.15347945709E+03  0.91201400058E+02 0.  0.
        -24    2    1    2    0    0 -0.66770260693E+02 -0.49999580151E+02 -0.35850139859E+02  0.12097802107E+03  0.79951381013E+02 0.  0.
         11    1    4    4    0    0 -0.37021553638E+02 -0.53229019046E+02 -0.55359822294E+02  0.85256283210E+02  0.00000000000E+00 0. -1.
        -12    1    4    4    0    0 -0.29748707056E+02  0.32294388954E+01  0.19509682435E+02  0.35721737861E+02  0.00000000000E+00 0.  1.
        -13    1    3    3    0    0  0.11459095281E+02 -0.37937330023E+02  0.64056731989E+02  0.75324742196E+02  0.00000000000E+00 0. -1.
         13    1    3    3    0    0 -0.47167389746E+02  0.31242668109E+02  0.53919314669E+02  0.78154714896E+02  0.00000000000E+00 0.  1.
         21    1    1    2  502  501  0.10247855516E+03  0.56694242064E+02  0.83788685816E+02  0.14400220561E+03  0.00000000000E+00 0.  1.
<scales pt_clust_5="13000.00000" pt_clust_6="13000.00000" pt_clust_7="13000.00000" pt_clust_8="13000.00000" pt_clust_9="92.38657"></scales>
<clustering>
<clus scale="   79.951">  5  6 -1 -1</clus>
<clus scale="   91.201">  7  8 -1 -1</clus>
<clus scale="   98.171">  1  7  2 -1</clus>
<clus scale="   92.387">  1  9  2 -1</clus>
<clus scale="  122.178">  2  5  1 -1</clus>
</clustering>
</event>
<event>
 9    1  0.2674825E-005  0.9495128E+02  0.7546771E-02  0.1301818E+00
         -2   -1    0    0    0  501 -0.00000000000E+00  0.00000000000E+00  0.24531845291E+03  0.24531845291E+03  0.00000000000E+00 0.  1.
          1   -1    0    0  502    0  0.00000000000E+00 -0.00000000000E+00 -0.23574203773E+03  0.23574203773E+03  0.00000000000E+00 0. -1.
         23    2    1    2    0    0 -0.28725630420E+02 -0.80229429888E+01  0.21108009077E+03  0.23204705842E+03  0.91659713845E+02 0.  0.
        -24    2    1    2    0    0 -0.18955924346E+02 -0.29543275039E+02 -0.87773552112E+02  0.12009759770E+03  0.74074991429E+02 0.  0.
         13    1    4    4    0    0 -0.37357352644E+02 -0.38196101201E+02 -0.35867196068E+02  0.64350366722E+02  0.00000000000E+00 0. -1.
        -14    1    4    4    0    0  0.18401428298E+02  0.86528261619E+01 -0.51906356044E+02  0.55747230978E+02  0.00000000000E+00 0.  1.
        -13    1    3    3    0    0  0.17832698411E+02  0.30448980538E+02  0.64708868655E+02  0.73704702910E+02  0.00000000000E+00 0.  1.
         13    1    3    3    0    0 -0.46558328831E+02 -0.38471923526E+02  0.14637122212E+03  0.15834235551E+03  0.00000000000E+00 0. -1.
         21    1    1    2  502  501  0.47681554766E+02  0.37566218028E+02 -0.11373012348E+03  0.12891583452E+03  0.00000000000E+00 0.  1.
<scales pt_clust_5="13000.00000" pt_clust_6="13000.00000" pt_clust_7="13000.00000" pt_clust_8="13000.00000" pt_clust_9="60.70215"></scales>
<clustering>
<clus scale="   60.702">  2  9  1 -1</clus>
<clus scale="   74.075">  5  6 -1 -1</clus>
<clus scale="   78.111">  2  5  1 -1</clus>
<clus scale="   91.660">  7  8 -1 -1</clus>
<clus scale="   60.702">  2  5  1 -1</clus>
</clustering>
</event>
<event>
 9    1  0.2674825E-005  0.2225355E+03  0.7546771E-02  0.1133164E+00
         -2   -1    0    0    0  501 -0.00000000000E+00  0.00000000000E+00  0.92891385091E+03  0.92891385091E+03  0.00000000000E+00 0.  1.
          1   -1    0    0  502    0  0.00000000000E+00 -0.00000000000E+00 -0.66003701572E+02  0.66003701572E+02  0.00000000000E+00 0. -1.
         23    2    1    2    0    0  0.16942645296E+03  0.14318582883E+03  0.54513325761E+03  0.59595164263E+03  0.93704787819E+02 0.  0.
        -24    2    1    2    0    0 -0.14260843638E+03 -0.10289879252E+03  0.24287774894E+03  0.30979117746E+03  0.77818025348E+02 0.  0.
         11    1    4    4    0    0 -0.10564217392E+03 -0.28850788586E+02  0.13556923165E+03  0.17427464957E+03  0.00000000000E+00 0. -1.
        -12    1    4    4    0    0 -0.36966262463E+02 -0.74048003935E+02  0.10730851729E+03  0.13551652789E+03  0.00000000000E+00 0.  1.
        -11    1    3    3    0    0  0.52022505692E+02  0.82947806286E+01  0.20515289044E+03  0.21180852896E+03  0.00000000000E+00 0.  1.
         11    1    3    3    0    0  0.11740394727E+03  0.13489104820E+03  0.33998036717E+03  0.38414311367E+03  0.00000000000E+00 0. -1.
         21    1    1    2  502  501 -0.26818016584E+02 -0.40287036307E+02  0.74899142783E+02  0.89174732394E+02  0.00000000000E+00 0.  1.
<scales pt_clust_5="13000.00000" pt_clust_6="13000.00000" pt_clust_7="13000.00000" pt_clust_8="13000.00000" pt_clust_9="48.39681"></scales>
<clustering>
<clus scale="   48.397">  2  9  1 -1</clus>
<clus scale="   77.818">  5  6 -1 -1</clus>
<clus scale="   93.705">  7  8 -1 -1</clus>
<clus scale="  216.326">  2  5  1 -1</clus>
<clus scale="   48.397">  2  5  1 -1</clus>
</clustering>
</event>
<event>
 9    1  0.2674825E-005  0.1055631E+03  0.7546771E-02  0.1274293E+00
         -2   -1    0    0    0  501 -0.00000000000E+00  0.00000000000E+00  0.19940257130E+03  0.19940257130E+03  0.00000000000E+00 0.  1.
          1   -1    0    0  502    0  0.00000000000E+00 -0.00000000000E+00 -0.93322331682E+02  0.93322331682E+02  0.00000000000E+00 0. -1.
        -24    2    1    2    0    0  0.29028579148E+02 -0.43469899254E+02  0.13040758260E+03  0.16141629601E+03  0.79478251553E+02 0.  0.
         23    2    1    2    0    0 -0.12653318066E+02  0.55831270521E+02 -0.15727313022E+02  0.10906196249E+03  0.91487299999E+02 0.  0.
         11    1    3    3    0    0 -0.13244762754E+02 -0.40721089583E+02  0.29561327423E+02  0.52033671370E+02  0.00000000000E+00 0. -1.
        -12    1    3    3    0    0  0.42273341902E+02 -0.27488096716E+01  0.10084625518E+03  0.10938262464E+03  0.00000000000E+00 0.  1.
        -11    1    4    4    0    0  0.20847427561E+02  0.19191514790E+02  0.30212606346E+02  0.41421384068E+02  0.00000000000E+00 0.  1.
         11    1    4    4    0    0 -0.33500745627E+02  0.36639755731E+02 -0.45939919368E+02  0.67640578421E+02  0.00000000000E+00 0. -1.
         21    1    1    2  502  501 -0.16375261082E+02 -0.12361371267E+02 -0.86000299652E+01  0.22246644477E+02  0.00000000000E+00 0. -1.
<scales pt_clust_5="13000.00000" pt_clust_6="13000.00000" pt_clust_7="13000.00000" pt_clust_8="13000.00000" pt_clust_9="20.51713"></scales>
<clustering>
<clus scale="   20.517">  2  9  1 -1</clus>
<clus scale="   79.478">  5  6 -1 -1</clus>
<clus scale="   91.487">  7  8 -1 -1</clus>
<clus scale="   95.344">  1  5  2 -1</clus>
<clus scale="   20.517">  2  5  1 -1</clus>
</clustering>
</event>
<event>
 9    1  0.2674825E-005  0.2594476E+03  0.7546771E-02  0.1123559E+00
          1   -1    0    0  502    0  0.00000000000E+00  0.00000000000E+00  0.11684755478E+04  0.11684755478E+04  0.00000000000E+00 0. -1.
         -2   -1    0    0    0  501 -0.00000000000E+00 -0.00000000000E+00 -0.16178262743E+03  0.16178262743E+03  0.00000000000E+00 0.  1.
         23    2    1    2    0    0 -0.67677414496E+02  0.16485344724E+03  0.67960225192E+03  0.70841223837E+03  0.90729196854E+02 0.  0.
        -24    2    1    2    0    0  0.12277794777E+03  0.90543910944E+02  0.31612573585E+03  0.36034238227E+03  0.81477158302E+02 0.  0.
         13    1    4    4    0    0  0.71405961577E+02  0.62492141916E+02  0.10623373893E+03  0.14244187038E+03  0.00000000000E+00 0. -1.
        -14    1    4    4    0    0  0.51371986190E+02  0.28051769028E+02  0.20989199692E+03  0.21790051189E+03  0.00000000000E+00 0.  1.
        -13    1    3    3    0    0 -0.82933031118E+02  0.10705926129E+03  0.39406127347E+03  0.41668196545E+03  0.00000000000E+00 0.  1.
         13    1    3    3    0    0  0.15255616622E+02  0.57794185941E+02  0.28554097844E+03  0.29173027292E+03  0.00000000000E+00 0. -1.
         21    1    1    2  502  501 -0.55100533271E+02 -0.25539735818E+03  0.10964932628E+02  0.26150355462E+03  0.00000000000E+00 0.  1.
<scales pt_clust_5="13000.00000" pt_clust_6="13000.00000" pt_clust_7="13000.00000" pt_clust_8="13000.00000" pt_clust_9="243.06640"></scales>
<clustering>
<clus scale="   81.477">  5  6 -1 -1</clus>
<clus scale="   90.729">  7  8 -1 -1</clus>
<clus scale="  172.948">  1  5  2 -1</clus>
<clus scale="  243.066">  2  9  1 -1</clus>
<clus scale="  172.948">  1  5  2 -1</clus>
</clustering>
</event>
<event>
 9    1  0.2674825E-005  0.1170676E+03  0.7546771E-02  0.1253442E+00
          1   -1    0    0  502    0  0.00000000000E+00  0.00000000000E+00  0.53622505502E+02  0.53622505502E+02  0.00000000000E+00 0. -1.
         -2   -1    0    0    0  501 -0.00000000000E+00 -0.00000000000E+00 -0.43351420411E+03  0.43351420411E+03  0.00000000000E+00 0.  1.
         23    2    1    2    0    0 -0.37896727507E+02  0.91811500116E+01 -0.17667402148E+03  0.20089151597E+03  0.87311143902E+02 0.  0.
        -24    2    1    2    0    0  0.95917557830E+02 -0.30402734715E+02 -0.74917390037E+02  0.14384527765E+03  0.70387103886E+02 0.  0.
         11    1    4    4    0    0  0.83754975977E+02 -0.32483937553E+02 -0.26181007782E+02  0.93571081902E+02  0.00000000000E+00 0. -1.
        -12    1    4    4    0    0  0.12162581853E+02  0.20812028381E+01 -0.48736382255E+02  0.50274195745E+02  0.00000000000E+00 0.  1.
        -11    1    3    3    0    0 -0.28128309969E+02  0.28205883380E+02 -0.17495946336E+03  0.17943686215E+03  0.00000000000E+00 0.  1.
         11    1    3    3    0    0 -0.97684175374E+01 -0.19024733368E+02 -0.17145581239E+01  0.21454653819E+02  0.00000000000E+00 0. -1.
         21    1    1    2  502  501 -0.58020830323E+02  0.21221584703E+02 -0.12830028709E+03  0.14239991600E+03  0.00000000000E+00 0.  1.
<scales pt_clust_5="13000.00000" pt_clust_6="13000.00000" pt_clust_7="13000.00000" pt_clust_8="13000.00000" pt_clust_9="61.78003"></scales>
<clustering>
<clus scale="   61.780">  2  9  1 -1</clus>
<clus scale="   70.387">  5  6 -1 -1</clus>
<clus scale="   87.311">  7  8 -1 -1</clus>
<clus scale="  105.052">  1  5  2 -1</clus>
<clus scale="  105.052">  1  5  2 -1</clus>
</clustering>
</event>
<event>
 9    1  0.2674825E-005  0.1027430E+03  0.7546771E-02  0.1276727E+00
          1   -1    0    0  502    0  0.00000000000E+00  0.00000000000E+00  0.21465949772E+03  0.21465949772E+03  0.00000000000E+00 0. -1.
         -2   -1    0    0    0  501 -0.00000000000E+00 -0.00000000000E+00 -0.23202031699E+03  0.23202031699E+03  0.00000000000E+00 0.  1.
        -24    2    1    2    0    0 -0.29456354634E+02  0.59105208562E+02 -0.16350837599E+03  0.19377776995E+03  0.80335126808E+02 0.  0.
         23    2    1    2    0    0  0.11266613284E+02 -0.32211505966E+02 -0.10951757999E+02  0.92482804589E+02  0.85256146112E+02 0.  0.
         11    1    3    3    0    0 -0.32928523315E+02  0.23238907221E+00 -0.10755496698E+03  0.11248294349E+03  0.00000000000E+00 0. -1.
        -12    1    3    3    0    0  0.34721686806E+01  0.58872819489E+02 -0.55953409010E+02  0.81294826464E+02  0.00000000000E+00 0.  1.
        -13    1    4    4    0    0  0.48332415705E+02 -0.19033701488E+02 -0.11220557227E+02  0.53143250791E+02  0.00000000000E+00 0. -1.
         13    1    4    4    0    0 -0.37065802421E+02 -0.13177804478E+02  0.26879922797E+00  0.39339553798E+02  0.00000000000E+00 0.  1.
         21    1    1    2  502  501  0.18189741351E+02 -0.26893702596E+02  0.15709931472E+03  0.16041924017E+03  0.00000000000E+00 0. -1.
<scales pt_clust_5="13000.00000" pt_clust_6="13000.00000" pt_clust_7="13000.00000" pt_clust_8="13000.00000" pt_clust_9="32.46749"></scales>
<clustering>
<clus scale="   32.467">  1  9  2 -1</clus>
<clus scale="   80.335">  5  6 -1 -1</clus>
<clus scale="   85.256">  7  8 -1 -1</clus>
<clus scale="   98.698">  2  5  1 -1</clus>
<clus scale="   32.467">  1  5  2 -1</clus>
</clustering>
</event>
<event>
 9    1  0.2674825E-005  0.9674097E+02  0.7546771E-02  0.1294364E+00
          1   -1    0    0  502    0  0.00000000000E+00  0.00000000000E+00  0.20279212959E+03  0.20279212959E+03  0.00000000000E+00 0. -1.
         -2   -1    0    0    0  501 -0.00000000000E+00 -0.00000000000E+00 -0.10208489986E+03  0.10208489986E+03  0.00000000000E+00 0.  1.
         23    2    1    2    0    0  0.11596658978E+02 -0.19433588456E+02 -0.58621184784E+02  0.11342318223E+03  0.94425780918E+02 0.  0.
        -24    2    1    2    0    0  0.96605868055E+01  0.19231040116E+02  0.12815444790E+03  0.15372153058E+03  0.82119343675E+02 0.  0.
         13    1    4    4    0    0  0.40458143932E+02  0.21040525267E+02  0.41203179692E+02  0.61459475516E+02  0.00000000000E+00 0. -1.
        -14    1    4    4    0    0 -0.30797557127E+02 -0.18094851506E+01  0.86951268207E+02  0.92262055062E+02  0.00000000000E+00 0.  1.
        -11    1    3    3    0    0  0.44531670212E+02 -0.17501174763E+02 -0.19970754155E+01  0.47888924400E+02  0.00000000000E+00 0. -1.
         11    1    3    3    0    0 -0.32935011234E+02 -0.19324136929E+01 -0.56624109368E+02  0.65534257831E+02  0.00000000000E+00 0.  1.
         21    1    1    2  502  501 -0.21257245784E+02  0.20254833994E+00  0.31173966620E+02  0.37732316639E+02  0.00000000000E+00 0.  1.
<scales pt_clust_5="13000.00000" pt_clust_6="13000.00000" pt_clust_7="13000.00000" pt_clust_8="13000.00000" pt_clust_9="21.25821"></scales>
<clustering>
<clus scale="   21.258">  1  9  2 -1</clus>
<clus scale="   82.119">  5  6 -1 -1</clus>
<clus scale="   84.771">  1  5  2 -1</clus>
<clus scale="   94.426">  7  8 -1 -1</clus>
<clus scale="   21.258">  1  5  2 -1</clus>
</clustering>
</event>
<event>
 9    1  0.2674825E-005  0.1052599E+03  0.7546771E-02  0.1275667E+00
         -2   -1    0    0    0  501 -0.00000000000E+00  0.00000000000E+00  0.19197248676E+03  0.19197248676E+03  0.00000000000E+00 0.  1.
          1   -1    0    0  502    0  0.00000000000E+00 -0.00000000000E+00 -0.68443675957E+02  0.68443675957E+02  0.00000000000E+00 0. -1.
         23    2    1    2    0    0 -0.35328250389E+02  0.50478644218E+02  0.83703777875E+02  0.14028765230E+03  0.94223798272E+02 0.  0.
        -24    2    1    2    0    0  0.24613243398E+02 -0.30283456650E+02  0.27110864909E+02  0.93969247350E+02  0.81069852313E+02 0.  0.
         13    1    4    4    0    0  0.53571726584E+02 -0.10209577358E+02  0.13384548271E+02  0.56154354163E+02  0.00000000000E+00 0. -1.
        -14    1    4    4    0    0 -0.28958483186E+02 -0.20073879293E+02  0.13726316638E+02  0.37814893187E+02  0.00000000000E+00 0.  1.
        -13    1    3    3    0    0 -0.66647086143E+02  0.23500577881E+02  0.59536058951E+02  0.92404835196E+02  0.00000000000E+00 0. -1.
         13    1    3    3    0    0  0.31318835754E+02  0.26978066336E+02  0.24167718924E+02  0.47882817108E+02  0.00000000000E+00 0.  1.
         21    1    1    2  502  501  0.10715006990E+02 -0.20195187567E+02  0.12714168023E+02  0.26159263067E+02  0.00000000000E+00 0. -1.
<scales pt_clust_5="13000.00000" pt_clust_6="13000.00000" pt_clust_7="13000.00000" pt_clust_8="13000.00000" pt_clust_9="22.86169"></scales>
<clustering>
<clus scale="   22.862">  1  9  2 -1</clus>
<clus scale="   81.070">  5  6 -1 -1</clus>
<clus scale="   93.669">  2  5  1 -1</clus>
<clus scale="   94.224">  7  8 -1 -1</clus>
<clus scale="   93.669">  2  5  1 -1</clus>
</clustering>
</event>
<event>
 9    1  0.2674825E-005  0.1000305E+03  0.7546771E-02  0.1284509E+00
         -2   -1    0    0    0  501 -0.00000000000E+00  0.00000000000E+00  0.28196545935E+03  0.28196545935E+03  0.00000000000E+00 0.  1.
          1   -1    0    0  502    0  0.00000000000E+00 -0.00000000000E+00 -0.10031903785E+03  0.10031903785E+03  0.00000000000E+00 0. -1.
         23    2    1    2    0    0 -0.32043362990E+02  0.57174333686E+02  0.19210252336E+03  0.22164162582E+03  0.89027800547E+02 0.  0.
        -24    2    1    2    0    0  0.18172179738E+02  0.11969779227E+02  0.17299066993E+02  0.84855883893E+02  0.80173309656E+02 0.  0.
         13    1    4    4    0    0  0.27459793727E+02  0.16465472824E+02 -0.25436575158E+02  0.40892192686E+02  0.00000000000E+00 0. -1.
        -14    1    4    4    0    0 -0.92876139892E+01 -0.44956935971E+01  0.42735642151E+02  0.43963691207E+02  0.00000000000E+00 0.  1.
        -11    1    3    3    0    0 -0.39105512038E+02  0.31138097551E+02  0.18778097846E+03  0.19432065783E+03  0.00000000000E+00 0. -1.
         11    1    3    3    0    0  0.70621490482E+01  0.26036236135E+02  0.43215449025E+01  0.27320967985E+02  0.00000000000E+00 0.  1.
         21    1    1    2  502  501  0.13871183252E+02 -0.69144112913E+02 -0.27755168850E+02  0.75786987493E+02  0.00000000000E+00 0. -1.
<scales pt_clust_5="13000.00000" pt_clust_6="13000.00000" pt_clust_7="13000.00000" pt_clust_8="13000.00000" pt_clust_9="70.52176"></scales>
<clustering>
<clus scale="   70.522">  2  9  1 -1</clus>
<clus scale="   80.173">  5  6 -1 -1</clus>
<clus scale="   89.028">  7  8 -1 -1</clus>
<clus scale="   92.238">  2  5  1 -1</clus>
<clus scale="   70.522">  2  5  1 -1</clus>
</clustering>
</event>
<event>
 9    1  0.2674825E-005  0.2746197E+03  0.7546771E-02  0.1099303E+00
          1   -1    0    0  502    0  0.00000000000E+00  0.00000000000E+00  0.38447316290E+03  0.38447316290E+03  0.00000000000E+00 0. -1.
         -2   -1    0    0    0  501 -0.00000000000E+00 -0.00000000000E+00 -0.29334817787E+03  0.29334817787E+03  0.00000000000E+00 0.  1.
        -24    2    1    2    0    0  0.11940759091E+03  0.24028038034E+03 -0.73604354655E+02  0.28914710578E+03  0.78712221500E+02 0.  0.
         23    2    1    2    0    0 -0.32778410486E+02 -0.24614789875E+03  0.12192906139E+03  0.29187079241E+03  0.93051873692E+02 0.  0.
         13    1    3    3    0    0  0.55877844155E+02  0.46498883044E+02 -0.10712709462E+01  0.72702319174E+02  0.00000000000E+00 0. -1.
        -14    1    3    3    0    0  0.63529746758E+02  0.19378149729E+03 -0.72533083709E+02  0.21644478661E+03  0.00000000000E+00 0.  1.
        -13    1    4    4    0    0  0.87367471457E+01 -0.86339958709E+02  0.27540782805E+00  0.86781305994E+02  0.00000000000E+00 0.  1.
         13    1    4    4    0    0 -0.41515157632E+02 -0.15980794004E+03  0.12165365356E+03  0.20508948642E+03  0.00000000000E+00 0. -1.
         21    1    1    2  502  501 -0.86629180427E+02  0.58675184115E+01  0.42800278298E+02  0.96803442584E+02  0.00000000000E+00 0.  1.
<scales pt_clust_5="13000.00000" pt_clust_6="13000.00000" pt_clust_7="13000.00000" pt_clust_8="13000.00000" pt_clust_9="86.82766"></scales>
<clustering>
<clus scale="   78.712">  5  6 -1 -1</clus>
<clus scale="   86.828">  1  9  2 -1</clus>
<clus scale="   93.052">  7  8 -1 -1</clus>
<clus scale="  270.098">  2  5  1 -1</clus>
<clus scale="   86.828">  1  5  2 -1</clus>
</clustering>
</event>
<event>
 9    1  0.2674825E-005  0.1066861E+03  0.7546771E-02  0.1270519E+00
          3   -1    0    0  502    0  0.00000000000E+00  0.00000000000E+00  0.72637205941E+02  0.72637205941E+02  0.00000000000E+00 0. -1.
         -4   -1    0    0    0  501 -0.00000000000E+00 -0.00000000000E+00 -0.50021095121E+03  0.50021095121E+03  0.00000000000E+00 0.  1.
        -24    2    1    2    0    0 -0.66424466234E+02  0.16704645981E+02 -0.35654396216E+03  0.37192223328E+03  0.80692600329E+02 0.  0.
         23    2    1    2    0    0 -0.64755955461E+01  0.11480525688E+02  0.65618194675E+01  0.90792914736E+02  0.89591071451E+02 0.  0.
         11    1    3    3    0    0 -0.20864767757E+02 -0.29575003489E+02 -0.79232697226E+02  0.87108206701E+02  0.00000000000E+00 0. -1.
        -12    1    3    3    0    0 -0.45559698477E+02  0.46279649470E+02 -0.27731126493E+03  0.28481402658E+03  0.00000000000E+00 0.  1.
        -11    1    4    4    0    0  0.75397287417E+01  0.30812644314E+02  0.39152943125E+02  0.50390668923E+02  0.00000000000E+00 0.  1.
         11    1    4    4    0    0 -0.14015324288E+02 -0.19332118626E+02 -0.32591123658E+02  0.40402245813E+02  0.00000000000E+00 0. -1.
         21    1    1    2  502  501  0.72900061780E+02 -0.28185171669E+02 -0.77591602578E+02  0.11013300913E+03  0.00000000000E+00 0. -1.
<scales pt_clust_5="13000.00000" pt_clust_6="13000.00000" pt_clust_7="13000.00000" pt_clust_8="13000.00000" pt_clust_9="78.15896"></scales>
<clustering>
<clus scale="   78.159">  1  9  2 -1</clus>
<clus scale="   80.693">  5  6 -1 -1</clus>
<clus scale="   89.591">  7  8 -1 -1</clus>
<clus scale="   99.331">  2  5  1 -1</clus>
<clus scale="   78.159">  1  5  2 -1</clus>
</clustering>
</event>
<event>
 9    1  0.2674825E-005  0.1088455E+03  0.7546771E-02  0.1267343E+00
         -2   -1    0    0    0  501 -0.00000000000E+00  0.00000000000E+00  0.89151051407E+02  0.89151051407E+02  0.00000000000E+00 0.  1.
          1   -1    0    0  502    0  0.00000000000E+00 -0.00000000000E+00 -0.43735773629E+03  0.43735773629E+03  0.00000000000E+00 0. -1.
         23    2    1    2    0    0  0.60077413480E+02 -0.25990654374E+02  0.21096063208E+02  0.11546221079E+03  0.92745180531E+02 0.  0.
        -24    2    1    2    0    0 -0.14619861844E+02  0.46323355309E+02 -0.10273177764E+03  0.13986418439E+03  0.81538814866E+02 0.  0.
         11    1    4    4    0    0 -0.31191100973E+02  0.17684111205E+01 -0.82470503776E+02  0.88189546154E+02  0.00000000000E+00 0. -1.
        -12    1    4    4    0    0  0.16571239129E+02  0.44554944188E+02 -0.20261273864E+02  0.51674638233E+02  0.00000000000E+00 0.  1.
        -11    1    3    3    0    0 -0.18546275093E+02 -0.12309985210E+02 -0.16042984686E+02  0.27438611724E+02  0.00000000000E+00 0. -1.
         11    1    3    3    0    0  0.78623688572E+02 -0.13680669163E+02  0.37139047894E+02  0.88023599063E+02  0.00000000000E+00 0.  1.
         21    1    1    2  502  501 -0.45457551636E+02 -0.20332700935E+02 -0.26657097045E+03  0.27118239252E+03  0.00000000000E+00 0. -1.
<scales pt_clust_5="13000.00000" pt_clust_6="13000.00000" pt_clust_7="13000.00000" pt_clust_8="13000.00000" pt_clust_9="49.79767"></scales>
<clustering>
<clus scale="   49.798">  2  9  1 -1</clus>
<clus scale="   81.539">  5  6 -1 -1</clus>
<clus scale="   92.745">  7  8 -1 -1</clus>
<clus scale="   99.470">  2  5  1 -1</clus>
<clus scale="   49.798">  2  5  1 -1</clus>
</clustering>
</event>
<event>
 9    1  0.2674825E-005  0.1251841E+03  0.7546771E-02  0.1253302E+00
          1   -1    0    0  502    0  0.00000000000E+00  0.00000000000E+00  0.56106291558E+03  0.56106291558E+03  0.00000000000E+00 0. -1.
         -2   -1    0    0    0  501 -0.00000000000E+00 -0.00000000000E+00 -0.75228936131E+02  0.75228936131E+02  0.00000000000E+00 0.  1.
        -24    2    1    2    0    0  0.26609933676E+02  0.16074746061E+02 -0.16224385019E+02  0.89908456339E+02  0.82787763714E+02 0.  0.
         23    2    1    2    0    0  0.98077103034E+01  0.74539268240E+01  0.16271009144E+03  0.20427655000E+03  0.12289256616E+03 0.  0.
         13    1    3    3    0    0  0.13574572520E+02  0.49319668907E+02 -0.17806382832E+02  0.54164250478E+02  0.00000000000E+00 0. -1.
        -14    1    3    3    0    0  0.13035361156E+02 -0.33244922847E+02  0.15819978129E+01  0.35744205861E+02  0.00000000000E+00 0.  1.
        -11    1    4    4    0    0  0.51315480500E+02  0.18351194628E+02  0.24858949545E+02  0.59900018829E+02  0.00000000000E+00 0.  1.
         11    1    4    4    0    0 -0.41507770197E+02 -0.10897267804E+02  0.13785114189E+03  0.14437653117E+03  0.00000000000E+00 0. -1.
         21    1    1    2  502  501 -0.36417643979E+02 -0.23528672884E+02  0.33934827303E+03  0.34210684537E+03  0.00000000000E+00 0. -1.
<scales pt_clust_5="13000.00000" pt_clust_6="13000.00000" pt_clust_7="13000.00000" pt_clust_8="13000.00000" pt_clust_9="43.35716"></scales>
<clustering>
<clus scale="   43.357">  1  9  2 -1</clus>
<clus scale="   82.788">  5  6 -1 -1</clus>
<clus scale="   86.153">  2  5  1 -1</clus>
<clus scale="  122.893">  7  8 -1 -1</clus>
<clus scale="   43.357">  1  5  2 -1</clus>
</clustering>
</event>
<event>
 9    1  0.2674825E-005  0.1069422E+03  0.7546771E-02  0.1273664E+00
          3   -1    0    0  502    0  0.00000000000E+00  0.00000000000E+00  0.18913084050E+03  0.18913084050E+03  0.00000000000E+00 0. -1.
         -4   -1    0    0    0  501 -0.00000000000E+00 -0.00000000000E+00 -0.77624226303E+02  0.77624226303E+02  0.00000000000E+00 0.  1.
        -24    2    1    2    0    0  0.42301499036E+02 -0.33240814977E+02  0.43258386433E+01  0.95642809644E+02  0.78958631926E+02 0.  0.
         23    2    1    2    0    0 -0.39134527374E+02  0.13486689070E+02  0.60017863383E+02  0.11988145115E+03  0.95163104141E+02 0.  0.
         11    1    3    3    0    0 -0.19283357464E+02 -0.79299680280E+01  0.18145601158E+02  0.27640461454E+02  0.00000000000E+00 0. -1.
        -12    1    3    3    0    0  0.61584856500E+02 -0.25310846949E+02 -0.13819762515E+02  0.68002348190E+02  0.00000000000E+00 0.  1.
        -11    1    4    4    0    0 -0.60850192723E+02 -0.11902857733E+02  0.14949564350E+02  0.63780196385E+02  0.00000000000E+00 0. -1.
         11    1    4    4    0    0  0.21715665349E+02  0.25389546802E+02  0.45068299033E+02  0.56101254764E+02  0.00000000000E+00 0.  1.
         21    1    1    2  502  501 -0.31669716624E+01  0.19754125908E+02  0.47162912172E+02  0.51230806010E+02  0.00000000000E+00 0. -1.
<scales pt_clust_5="13000.00000" pt_clust_6="13000.00000" pt_clust_7="13000.00000" pt_clust_8="13000.00000" pt_clust_9="20.00638"></scales>
<clustering>
<clus scale="   20.006">  1  9  2 -1</clus>
<clus scale="   78.959">  5  6 -1 -1</clus>
<clus scale="   92.818">  2  5  1 -1</clus>
<clus scale="   95.163">  7  8 -1 -1</clus>
<clus scale="   20.006">  1  5  2 -1</clus>
</clustering>
</event>
<event>
 9    1  0.2674825E-005  0.1850597E+03  0.7546771E-02  0.1164392E+00
          1   -1    0    0  502    0  0.00000000000E+00  0.00000000000E+00  0.75691779498E+03  0.75691779498E+03  0.00000000000E+00 0. -1.
         -2   -1    0    0    0  501 -0.00000000000E+00 -0.00000000000E+00 -0.10692749015E+03  0.10692749015E+03  0.00000000000E+00 0.  1.
         23    2    1    2    0    0  0.15243815751E+03 -0.27823274315E+02  0.12596069199E+02  0.18106352488E+03  0.92810627761E+02 0.  0.
        -24    2    1    2    0    0 -0.18472712666E+03  0.23085167804E+02  0.46458748601E+03  0.50692045155E+03  0.80434916203E+02 0.  0.
         13    1    4    4    0    0 -0.18279314079E+03  0.36306007619E+02  0.45038920289E+03  0.48742373002E+03  0.00000000000E+00 0. -1.
        -14    1    4    4    0    0 -0.19339858733E+01 -0.13220839815E+02  0.14198283120E+02  0.19496721528E+02  0.00000000000E+00 0.  1.
        -13    1    3    3    0    0  0.55300557767E+02  0.58400261520E+01 -0.37128884800E+02  0.66864128509E+02  0.00000000000E+00 0.  1.
         13    1    3    3    0    0  0.97137599744E+02 -0.33663300467E+02  0.49724953999E+02  0.11419939638E+03  0.00000000000E+00 0. -1.
         21    1    1    2  502  501  0.32288969150E+02  0.47381065107E+01  0.17280674962E+03  0.17586130869E+03  0.00000000000E+00 0.  1.
<scales pt_clust_5="13000.00000" pt_clust_6="13000.00000" pt_clust_7="13000.00000" pt_clust_8="13000.00000" pt_clust_9="32.63475"></scales>
<clustering>
<clus scale="   32.635">  1  9  2 -1</clus>
<clus scale="   80.435">  5  6 -1 -1</clus>
<clus scale="   92.811">  7  8 -1 -1</clus>
<clus scale="  179.173">  1  5  2 -1</clus>
<clus scale="   32.635">  1  5  2 -1</clus>
</clustering>
</event>
<event>
 9    1  0.2674825E-005  0.1155520E+03  0.7546771E-02  0.1253843E+00
         -2   -1    0    0    0  501 -0.00000000000E+00  0.00000000000E+00  0.10927819643E+03  0.10927819643E+03  0.00000000000E+00 0.  1.
          1   -1    0    0  502    0  0.00000000000E+00 -0.00000000000E+00 -0.24379829919E+03  0.24379829919E+03  0.00000000000E+00 0. -1.
         23    2    1    2    0    0 -0.43704143269E+02  0.47141945599E+02  0.11409029250E+02  0.11229234407E+03  0.91361859737E+02 0.  0.
        -24    2    1    2    0    0  0.84801097528E+01 -0.75032777041E+02 -0.15879017680E+03  0.19405046467E+03  0.82094047887E+02 0.  0.
         11    1    4    4    0    0 -0.31225265348E+02 -0.15074562143E+02 -0.27112072899E+02  0.44015044209E+02  0.00000000000E+00 0. -1.
        -12    1    4    4    0    0  0.39705375101E+02 -0.59958214899E+02 -0.13167810390E+03  0.15003542046E+03  0.00000000000E+00 0.  1.
        -13    1    3    3    0    0 -0.44991211002E+02  0.69680371523E+00  0.37879642506E+02  0.58818040763E+02  0.00000000000E+00 0.  1.
         13    1    3    3    0    0  0.12870677336E+01  0.46445141884E+02 -0.26470613256E+02  0.53474303306E+02  0.00000000000E+00 0. -1.
         21    1    1    2  502  501  0.35224033516E+02  0.27890831442E+02  0.12861044794E+02  0.46733686874E+02  0.00000000000E+00 0.  1.
<scales pt_clust_5="13000.00000" pt_clust_6="13000.00000" pt_clust_7="13000.00000" pt_clust_8="13000.00000" pt_clust_9="44.92918"></scales>
<clustering>
<clus scale="   44.929">  1  9  2 -1</clus>
<clus scale="   82.094">  5  6 -1 -1</clus>
<clus scale="   91.362">  7  8 -1 -1</clus>
<clus scale="  108.373">  2  5  1 -1</clus>
<clus scale="  108.373">  2  5  1 -1</clus>
</clustering>
</event>
<event>
 9    1  0.2674825E-005  0.1170341E+03  0.7546771E-02  0.1259739E+00
          1   -1    0    0  502    0  0.00000000000E+00  0.00000000000E+00  0.81641725013E+03  0.81641725013E+03  0.00000000000E+00 0. -1.
         -2   -1    0    0    0  501 -0.00000000000E+00 -0.00000000000E+00 -0.35070374914E+02  0.35070374914E+02  0.00000000000E+00 0.  1.
         23    2    1    2    0    0 -0.53763693357E+02 -0.27750761307E+02  0.12928536025E+03  0.16843170593E+03  0.89408588586E+02 0.  0.
        -24    2    1    2    0    0 -0.45830847768E+02  0.17685652900E+01  0.40318313401E+03  0.41373344393E+03  0.80716346800E+02 0.  0.
         13    1    4    4    0    0 -0.36339391618E+02  0.39161218165E+02  0.20622304427E+03  0.21303074046E+03  0.00000000000E+00 0. -1.
        -14    1    4    4    0    0 -0.94914561499E+01 -0.37392652875E+02  0.19696008974E+03  0.20070270347E+03  0.00000000000E+00 0.  1.
        -13    1    3    3    0    0 -0.47827428396E+02 -0.57917834330E+02  0.75631477605E+02  0.10659295870E+03  0.00000000000E+00 0.  1.
         13    1    3    3    0    0 -0.59362649614E+01  0.30167073023E+02  0.53653882641E+02  0.61838747230E+02  0.00000000000E+00 0. -1.
         21    1    1    2  502  501  0.99594541125E+02  0.25982196017E+02  0.24887838096E+03  0.26932247518E+03  0.00000000000E+00 0. -1.
<scales pt_clust_5="13000.00000" pt_clust_6="13000.00000" pt_clust_7="13000.00000" pt_clust_8="13000.00000" pt_clust_9="75.51876"></scales>
<clustering>
<clus scale="   80.716">  5  6 -1 -1</clus>
<clus scale="   89.409">  7  8 -1 -1</clus>
<clus scale="   92.837">  1  5  2 -1</clus>
<clus scale="   75.519">  1  9  2 -1</clus>
<clus scale="   92.837">  1  5  2 -1</clus>
</clustering>
</event>
<event>
 9    1  0.2674825E-005  0.2607265E+03  0.7546771E-02  0.1126671E+00
         -2   -1    0    0    0  501 -0.00000000000E+00  0.00000000000E+00  0.58583714585E+03  0.58583714585E+03  0.00000000000E+00 0.  1.
          1   -1    0    0  502    0  0.00000000000E+00 -0.00000000000E+00 -0.94804554421E+03  0.94804554421E+03  0.00000000000E+00 0. -1.
         23    2    1    2    0    0 -0.13912202397E+03  0.18219437348E+02  0.42822141145E+03  0.45636062166E+03  0.72142597154E+02 0.  0.
        -24    2    1    2    0    0 -0.10135664184E+03 -0.12945884823E+03  0.55798361918E+02  0.19078292194E+03  0.79068981796E+02 0.  0.
         11    1    4    4    0    0 -0.46850924860E+02 -0.11003579205E+02  0.33146968724E+02  0.58436370961E+02  0.00000000000E+00 0. -1.
        -12    1    4    4    0    0 -0.54505716980E+02 -0.11845526902E+03  0.22651393195E+02  0.13234655098E+03  0.00000000000E+00 0.  1.
        -13    1    3    3    0    0 -0.32589594488E+02 -0.90745356067E+01  0.20213442229E+03  0.20494573316E+03  0.00000000000E+00 0.  1.
         13    1    3    3    0    0 -0.10653242948E+03  0.27293972955E+02  0.22608698916E+03  0.25141488849E+03  0.00000000000E+00 0. -1.
         21    1    1    2  502  501  0.24047866581E+03  0.11123941088E+03 -0.84622817173E+03  0.88673914647E+03  0.00000000000E+00 0. -1.
<scales pt_clust_5="13000.00000" pt_clust_6="13000.00000" pt_clust_7="13000.00000" pt_clust_8="13000.00000" pt_clust_9="248.44796"></scales>
<clustering>
<clus scale="   72.143">  7  8 -1 -1</clus>
<clus scale="   79.069">  5  6 -1 -1</clus>
<clus scale="  157.770">  1  7  2 -1</clus>
<clus scale="  248.448">  2  9  1 -1</clus>
<clus scale="  248.448">  2  5  1 -1</clus>
</clustering>
</event>
<event>
 9    1  0.2674825E-005  0.1090263E+03  0.7546771E-02  0.1270870E+00
         -2   -1    0    0    0  501 -0.00000000000E+00  0.00000000000E+00  0.79581687469E+02  0.79581687469E+02  0.00000000000E+00 0.  1.
          1   -1    0    0  502    0  0.00000000000E+00 -0.00000000000E+00 -0.39043466843E+03  0.39043466843E+03  0.00000000000E+00 0. -1.
        -24    2    1    2    0    0 -0.36386146427E+02 -0.18430615783E+02 -0.11427915255E+02  0.90360921259E+02  0.79817664673E+02 0.  0.
         23    2    1    2    0    0  0.78537179635E+01 -0.64864556774E+02 -0.25490218256E+03  0.28099200490E+03  0.98550964133E+02 0.  0.
         13    1    3    3    0    0  0.20028212627E+02 -0.17650771051E+02 -0.19915600620E+02  0.33306308228E+02  0.00000000000E+00 0. -1.
        -14    1    3    3    0    0 -0.56414359054E+02 -0.77984473278E+00  0.84876853651E+01  0.57054613031E+02  0.00000000000E+00 0.  1.
        -13    1    4    4    0    0 -0.22993612680E+02  0.13234473038E+02 -0.11329864505E+03  0.11636339833E+03  0.00000000000E+00 0.  1.
         13    1    4    4    0    0  0.30847330643E+02 -0.78099029812E+02 -0.14160353751E+03  0.16462860657E+03  0.00000000000E+00 0. -1.
         21    1    1    2  502  501  0.28532428463E+02  0.83295172557E+02 -0.44522883152E+02  0.98663429747E+02  0.00000000000E+00 0.  1.
<scales pt_clust_5="13000.00000" pt_clust_6="13000.00000" pt_clust_7="13000.00000" pt_clust_8="13000.00000" pt_clust_9="88.04649"></scales>
<clustering>
<clus scale="   79.818">  5  6 -1 -1</clus>
<clus scale="   88.046">  1  9  2 -1</clus>
<clus scale="   92.441">  1  5  2 -1</clus>
<clus scale="   98.551">  7  8 -1 -1</clus>
<clus scale="  109.026">  2  5  1 -1</clus>
</clustering>
</event>
<event>
 9    1  0.2674825E-005  0.1025787E+03  0.7546771E-02  0.1277947E+00
         -2   -1    0    0    0  501 -0.00000000000E+00  0.00000000000E+00  0.33057746793E+03  0.33057746793E+03  0.00000000000E+00 0.  1.
          1   -1    0    0  502    0  0.00000000000E+00 -0.00000000000E+00 -0.69105610345E+02  0.69105610345E+02  0.00000000000E+00 0. -1.
         23    2    1    2    0    0 -0.51188678767E+02 -0.69307707597E+01  0.26170930047E+03  0.28132399898E+03  0.89348296199E+02 0.  0.
        -24    2    1    2    0    0  0.45980085469E+02 -0.14891586625E+02  0.16218976415E+01  0.95846818794E+02  0.82752972810E+02 0.  0.
         11    1    4    4    0    0  0.72437250961E+01  0.27011829167E+02 -0.20467408872E+02  0.34655811838E+02  0.00000000000E+00 0. -1.
        -12    1    4    4    0    0  0.38736360373E+02 -0.41903415792E+02  0.22089306514E+02  0.61191006956E+02  0.00000000000E+00 0.  1.
        -11    1    3    3    0    0  0.19797763352E+02 -0.21952861820E+02  0.95412417179E+02  0.99886980772E+02  0.00000000000E+00 0.  1.
         11    1    3    3    0    0 -0.70986442120E+02  0.15022091061E+02  0.16629688329E+03  0.18143701821E+03  0.00000000000E+00 0. -1.
         21    1    1    2  502  501  0.52085932978E+01  0.21822357385E+02 -0.18593405184E+01  0.22512260507E+02  0.00000000000E+00 0. -1.
<scales pt_clust_5="13000.00000" pt_clust_6="13000.00000" pt_clust_7="13000.00000" pt_clust_8="13000.00000" pt_clust_9="22.43535"></scales>
<clustering>
<clus scale="   22.435">  2  9  1 -1</clus>
<clus scale="   82.753">  5  6 -1 -1</clus>
<clus scale="   89.348">  7  8 -1 -1</clus>
<clus scale="   96.888">  2  5  1 -1</clus>
<clus scale="   22.435">  2  5  1 -1</clus>
</clustering>
</event>
<event>
 9    1  0.2674825E-005  0.1046478E+03  0.7546771E-02  0.1275372E+00
          1   -1    0    0  502    0  0.00000000000E+00  0.00000000000E+00  0.32508142737E+02  0.32508142737E+02  0.00000000000E+00 0. -1.
         -2   -1    0    0    0  501 -0.00000000000E+00 -0.00000000000E+00 -0.53058557130E+03  0.53058557130E+03  0.00000000000E+00 0.  1.
        -24    2    1    2    0    0 -0.33533476102E+02  0.45253076140E+02 -0.35717743131E+03  0.37087067171E+03  0.82443937171E+02 0.  0.
         23    2    1    2    0    0  0.14110077560E+02 -0.28747643615E+02 -0.13374977961E+03  0.16574997439E+03  0.92512318966E+02 0.  0.
         13    1    3    3    0    0  0.20430180248E+02  0.12926043393E+02 -0.34553900150E+02  0.42171635945E+02  0.00000000000E+00 0. -1.
        -14    1    3    3    0    0 -0.53963656350E+02  0.32327032747E+02 -0.32262353116E+03  0.32869903576E+03  0.00000000000E+00 0.  1.
        -13    1    4    4    0    0  0.53834812251E+02 -0.15973901910E+02 -0.78185963570E+02  0.96262128855E+02  0.00000000000E+00 0. -1.
         13    1    4    4    0    0 -0.39724734691E+02 -0.12773741706E+02 -0.55563816042E+02  0.69487845532E+02  0.00000000000E+00 0.  1.
         21    1    1    2  502  501  0.19423398542E+02 -0.16505432524E+02 -0.71502176347E+01  0.26473067936E+02  0.00000000000E+00 0. -1.
<scales pt_clust_5="13000.00000" pt_clust_6="13000.00000" pt_clust_7="13000.00000" pt_clust_8="13000.00000" pt_clust_9="25.48917"></scales>
<clustering>
<clus scale="   25.489">  1  9  2 -1</clus>
<clus scale="   82.444">  5  6 -1 -1</clus>
<clus scale="   92.512">  7  8 -1 -1</clus>
<clus scale="   95.863">  2  5  1 -1</clus>
<clus scale="   25.489">  1  5  2 -1</clus>
</clustering>
</event>
<event>
 9    1  0.2674825E-005  0.9361136E+02  0.7546771E-02  0.1295389E+00
          1   -1    0    0  502    0  0.00000000000E+00  0.00000000000E+00  0.11626335879E+03  0.11626335879E+03  0.00000000000E+00 0. -1.
         -2   -1    0    0    0  501 -0.00000000000E+00 -0.00000000000E+00 -0.16456663806E+03  0.16456663806E+03  0.00000000000E+00 0.  1.
         23    2    1    2    0    0 -0.14689853022E+02  0.25023967436E+02 -0.10813842386E+03  0.14393223628E+03  0.90446554363E+02 0.  0.
        -24    2    1    2    0    0 -0.12914674384E+02 -0.94955582364E+01  0.53155320673E+02  0.10452861673E+03  0.88565168994E+02 0.  0.
         13    1    4    4    0    0  0.16166807774E+02 -0.41130350339E+02  0.13903633336E+02  0.46329066606E+02  0.00000000000E+00 0. -1.
        -14    1    4    4    0    0 -0.29081482157E+02  0.31634792103E+02  0.39251687337E+02  0.58199550124E+02  0.00000000000E+00 0.  1.
        -11    1    3    3    0    0  0.19264457909E+02  0.47390193808E+02 -0.78175158836E+02  0.93425399473E+02  0.00000000000E+00 0. -1.
         11    1    3    3    0    0 -0.33954310931E+02 -0.22366226372E+02 -0.29963265028E+02  0.50506836805E+02  0.00000000000E+00 0.  1.
         21    1    1    2  502  501  0.27604527406E+02 -0.15528409199E+02  0.66798239185E+01  0.32369143843E+02  0.00000000000E+00 0. -1.
<scales pt_clust_5="13000.00000" pt_clust_6="13000.00000" pt_clust_7="13000.00000" pt_clust_8="13000.00000" pt_clust_9="31.67241"></scales>
<clustering>
<clus scale="   31.672">  1  9  2 -1</clus>
<clus scale="   88.565">  5  6 -1 -1</clus>
<clus scale="   90.447">  7  8 -1 -1</clus>
<clus scale="   91.795">  1  5  2 -1</clus>
<clus scale="   31.672">  1  5  2 -1</clus>
</clustering>
</event>
<event>
 9    1  0.2674825E-005  0.9735659E+02  0.7546771E-02  0.1293721E+00
          1   -1    0    0  502    0  0.00000000000E+00  0.00000000000E+00  0.62529469350E+03  0.62529469350E+03  0.00000000000E+00 0. -1.
         -2   -1    0    0    0  501 -0.00000000000E+00 -0.00000000000E+00 -0.42827551554E+02  0.42827551554E+02  0.00000000000E+00 0.  1.
         23    2    1    2    0    0 -0.15137465014E+02 -0.25246984107E+02  0.31249975318E+02  0.10283033041E+03  0.93439621364E+02 0.  0.
        -24    2    1    2    0    0  0.35234752756E+02 -0.62304847374E+01  0.35683825446E+03  0.36735785110E+03  0.79611206321E+02 0.  0.
         11    1    4    4    0    0  0.12424231743E+02  0.36224412804E+02  0.13383929256E+03  0.13921036546E+03  0.00000000000E+00 0. -1.
        -12    1    4    4    0    0  0.22810521013E+02 -0.42454897541E+02  0.22299896190E+03  0.22814748564E+03  0.00000000000E+00 0.  1.
        -13    1    3    3    0    0 -0.79436124389E+01  0.26025520292E+02  0.41910804408E+02  0.49969432768E+02  0.00000000000E+00 0. -1.
         13    1    3    3    0    0 -0.71938525747E+01 -0.51272504399E+02 -0.10660829091E+02  0.52860897638E+02  0.00000000000E+00 0.  1.
         21    1    1    2  502  501 -0.20097287742E+02  0.31477468845E+02  0.19437891217E+03  0.19793406355E+03  0.00000000000E+00 0.  1.
<scales pt_clust_5="13000.00000" pt_clust_6="13000.00000" pt_clust_7="13000.00000" pt_clust_8="13000.00000" pt_clust_9="37.34611"></scales>
<clustering>
<clus scale="   37.346">  1  9  2 -1</clus>
<clus scale="   79.611">  5  6 -1 -1</clus>
<clus scale="   84.174">  1  5  2 -1</clus>
<clus scale="   93.440">  7  8 -1 -1</clus>
<clus scale="   37.346">  1  5  2 -1</clus>
</clustering>
</event>
<event>
 9    1  0.2674825E-005  0.2037520E+03  0.7546771E-02  0.1147020E+00
          3   -1    0    0  502    0  0.00000000000E+00  0.00000000000E+00  0.19679517205E+03  0.19679517205E+03  0.00000000000E+00 0. -1.
         -4   -1    0    0    0  501 -0.00000000000E+00 -0.00000000000E+00 -0.89245902877E+03  0.89245902877E+03  0.00000000000E+00 0.  1.
        -24    2    1    2    0    0  0.11798877007E+03  0.15521589556E+03 -0.80017534458E+03  0.82785130475E+03  0.83927805924E+02 0.  0.
         23    2    1    2    0    0 -0.60060729492E+02 -0.96331842352E+02  0.23847806122E+02  0.14594892619E+03  0.88573450434E+02 0.  0.
         11    1    3    3    0    0  0.11661814690E+03  0.91494016798E+02 -0.57942972040E+03  0.59808841167E+03  0.00000000000E+00 0. -1.
        -12    1    3    3    0    0  0.13706231731E+01  0.63721878757E+02 -0.22074562418E+03  0.22976289308E+03  0.00000000000E+00 0.  1.
        -13    1    4    4    0    0 -0.36860730808E+02 -0.30234175911E+02 -0.31097702532E+02  0.56919996236E+02  0.00000000000E+00 0.  1.
         13    1    4    4    0    0 -0.23199998684E+02 -0.66097666441E+02  0.54945508655E+02  0.89028929956E+02  0.00000000000E+00 0. -1.
         21    1    1    2  502  501 -0.57928040579E+02 -0.58884053203E+02  0.80663681744E+02  0.11545396987E+03  0.00000000000E+00 0. -1.
<scales pt_clust_5="13000.00000" pt_clust_6="13000.00000" pt_clust_7="13000.00000" pt_clust_8="13000.00000" pt_clust_9="82.60139"></scales>
<clustering>
<clus scale="   82.601">  1  9  2 -1</clus>
<clus scale="   83.928">  5  6 -1 -1</clus>
<clus scale="   88.573">  7  8 -1 -1</clus>
<clus scale="  201.776">  2  5  1 -1</clus>
<clus scale="   82.601">  1  5  2 -1</clus>
</clustering>
</event>
<event>
 9    1  0.2674825E-005  0.9816989E+02  0.7546771E-02  0.1291767E+00
          1   -1    0    0  502    0  0.00000000000E+00  0.00000000000E+00  0.60369164176E+02  0.60369164176E+02  0.00000000000E+00 0. -1.
         -2   -1    0    0    0  501 -0.00000000000E+00 -0.00000000000E+00 -0.30600198041E+03  0.30600198041E+03  0.00000000000E+00 0.  1.
        -24    2    1    2    0    0 -0.29178632389E+02 -0.23287374023E+02 -0.22043188508E+03  0.23717914069E+03  0.79183549060E+02 0.  0.
         23    2    1    2    0    0  0.79623313222E+01 -0.12793697007E+01 -0.25187808655E+02  0.96731928414E+02  0.93046250666E+02 0.  0.
         13    1    3    3    0    0  0.19905633378E+02 -0.13390598979E+02 -0.14279132548E+03  0.14479262762E+03  0.00000000000E+00 0. -1.
        -14    1    3    3    0    0 -0.49084265767E+02 -0.98967750446E+01 -0.77640559602E+02  0.92386513071E+02  0.00000000000E+00 0.  1.
        -11    1    4    4    0    0  0.41422077746E+02 -0.22444615478E+02  0.43833634532E+01  0.47315569995E+02  0.00000000000E+00 0. -1.
         11    1    4    4    0    0 -0.33459746424E+02  0.21165245778E+02 -0.29571172109E+02  0.49416358420E+02  0.00000000000E+00 0.  1.
         21    1    1    2  502  501  0.21216301067E+02  0.24566743724E+02 -0.13122501056E-01  0.32460075483E+02  0.00000000000E+00 0. -1.
<scales pt_clust_5="13000.00000" pt_clust_6="13000.00000" pt_clust_7="13000.00000" pt_clust_8="13000.00000" pt_clust_9="32.46007"></scales>
<clustering>
<clus scale="   32.460">  1  9  2 -1</clus>
<clus scale="   79.184">  5  6 -1 -1</clus>
<clus scale="   85.146">  2  5  1 -1</clus>
<clus scale="   93.046">  7  8 -1 -1</clus>
<clus scale="   32.460">  1  5  2 -1</clus>
</clustering>
</event>
<event>
 9    1  0.2674825E-005  0.1085737E+03  0.7546771E-02  0.1270254E+00
          1   -1    0    0  502    0  0.00000000000E+00  0.00000000000E+00  0.26086989132E+03  0.26086989132E+03  0.00000000000E+00 0. -1.
         -2   -1    0    0    0  501 -0.00000000000E+00 -0.00000000000E+00 -0.15240492749E+03  0.15240492749E+03  0.00000000000E+00 0.  1.
         23    2    1    2    0    0  0.54343601642E+02 -0.26123247977E+02 -0.10971888875E+03  0.15537314428E+03  0.92015913235E+02 0.  0.
        -24    2    1    2    0    0 -0.46821025120E+02  0.70397303058E+01  0.84352873704E+02  0.12250780203E+03  0.75173054088E+02 0.  0.
         11    1    4    4    0    0 -0.23308663923E+02 -0.25633210180E+02  0.72808556584E+02  0.80631514867E+02  0.00000000000E+00 0. -1.
        -12    1    4    4    0    0 -0.23512361197E+02  0.32672940486E+02  0.11544317121E+02  0.41876287166E+02  0.00000000000E+00 0.  1.
        -13    1    3    3    0    0 -0.29723573057E+01 -0.48356127525E+02 -0.51440403336E+02  0.70663038942E+02  0.00000000000E+00 0. -1.
         13    1    3    3    0    0  0.57315958947E+02  0.22232879548E+02 -0.58278485417E+02  0.84710105333E+02  0.00000000000E+00 0.  1.
         21    1    1    2  502  501 -0.75225765219E+01  0.19083517671E+02  0.13383097888E+03  0.13539387250E+03  0.00000000000E+00 0. -1.
<scales pt_clust_5="13000.00000" pt_clust_6="13000.00000" pt_clust_7="13000.00000" pt_clust_8="13000.00000" pt_clust_9="20.51267"></scales>
<clustering>
<clus scale="   20.513">  1  9  2 -1</clus>
<clus scale="   75.173">  5  6 -1 -1</clus>
<clus scale="   92.016">  7  8 -1 -1</clus>
<clus scale="   94.722">  1  5  2 -1</clus>
<clus scale="   20.513">  1  5  2 -1</clus>
</clustering>
</event>
<event>
 9    1  0.2674825E-005  0.1836409E+03  0.7546771E-02  0.1165601E+00
         -2   -1    0    0    0  501 -0.00000000000E+00  0.00000000000E+00  0.34940975140E+02  0.34940975140E+02  0.00000000000E+00 0.  1.
          1   -1    0    0  502    0  0.00000000000E+00 -0.00000000000E+00 -0.13041866413E+04  0.13041866413E+04  0.00000000000E+00 0. -1.
         23    2    1    2    0    0  0.11186336033E+03 -0.70969746121E+02 -0.37710753051E+03  0.41002068745E+03  0.91415306817E+02 0.  0.
        -24    2    1    2    0    0 -0.16830019698E+03  0.66837223694E+02 -0.75964219940E+03  0.78503275574E+03  0.80174719910E+02 0.  0.
         11    1    4    4    0    0 -0.10570159454E+03  0.40258171369E+01 -0.48608441210E+03  0.49746064164E+03  0.00000000000E+00 0. -1.
        -12    1    4    4    0    0 -0.62598602441E+02  0.62811406557E+02 -0.27355778730E+03  0.28757211411E+03  0.00000000000E+00 0.  1.
        -11    1    3    3    0    0  0.57854046805E+02 -0.62234087419E+02 -0.31936213965E+03  0.33047291661E+03  0.00000000000E+00 0. -1.
         11    1    3    3    0    0  0.54009313528E+02 -0.87356587017E+01 -0.57745390862E+02  0.79547770846E+02  0.00000000000E+00 0.  1.
         21    1    1    2  502  501  0.56436836646E+02  0.41325224270E+01 -0.13249593623E+03  0.14407417322E+03  0.00000000000E+00 0. -1.
<scales pt_clust_5="13000.00000" pt_clust_6="13000.00000" pt_clust_7="13000.00000" pt_clust_8="13000.00000" pt_clust_9="56.58793"></scales>
<clustering>
<clus scale="   56.588">  1  9  2 -1</clus>
<clus scale="   80.175">  5  6 -1 -1</clus>
<clus scale="   91.415">  7  8 -1 -1</clus>
<clus scale="  178.312">  2  5  1 -1</clus>
<clus scale="  178.312">  2  5  1 -1</clus>
</clustering>
</event>
<event>
 9    1  0.2674825E-005  0.1567900E+03  0.7546771E-02  0.1196304E+00
          1   -1    0    0  502    0  0.00000000000E+00  0.00000000000E+00  0.50574361439E+03  0.50574361439E+03  0.00000000000E+00 0. -1.
         -2   -1    0    0    0  501 -0.00000000000E+00 -0.00000000000E+00 -0.18268809331E+03  0.18268809331E+03  0.00000000000E+00 0.  1.
         23    2    1    2    0    0  0.83429800092E+02  0.11185561853E+03 -0.88139739294E+02  0.18615270965E+03  0.86093012061E+02 0.  0.
        -24    2    1    2    0    0 -0.13070523498E+03 -0.25702967401E+02  0.10226657015E+03  0.17809667021E+03  0.59291412411E+02 0.  0.
         13    1    4    4    0    0 -0.62262572864E+02  0.90310517771E+01  0.71942575062E+02  0.95571554254E+02  0.00000000000E+00 0. -1.
        -14    1    4    4    0    0 -0.68442662114E+02 -0.34734019178E+02  0.30323995087E+02  0.82525115956E+02  0.00000000000E+00 0.  1.
        -11    1    3    3    0    0  0.62110542344E+02  0.13825120890E+02 -0.35285256063E+02  0.72759210643E+02  0.00000000000E+00 0.  1.
         11    1    3    3    0    0  0.21319257748E+02  0.98030497645E+02 -0.52854483231E+02  0.11339349901E+03  0.00000000000E+00 0. -1.
         21    1    1    2  502  501  0.47275434886E+02 -0.86152651134E+02  0.30892869022E+03  0.32418232784E+03  0.00000000000E+00 0. -1.
<scales pt_clust_5="13000.00000" pt_clust_6="13000.00000" pt_clust_7="13000.00000" pt_clust_8="13000.00000" pt_clust_9="98.27129"></scales>
<clustering>
<clus scale="   59.291">  5  6 -1 -1</clus>
<clus scale="   86.093">  7  8 -1 -1</clus>
<clus scale="   98.271">  1  9  2 -1</clus>
<clus scale="  143.828">  1  5  2 -1</clus>
<clus scale="   98.271">  1  5  2 -1</clus>
</clustering>
</event>
<event>
 9    1  0.2674825E-005  0.1092905E+03  0.7546771E-02  0.1265324E+00
         -2   -1    0    0    0  501 -0.00000000000E+00  0.00000000000E+00  0.22562214781E+03  0.22562214781E+03  0.00000000000E+00 0.  1.
          1   -1    0    0  502    0  0.00000000000E+00 -0.00000000000E+00 -0.14760508975E+03  0.14760508975E+03  0.00000000000E+00 0. -1.
        -24    2    1    2    0    0  0.18048707290E+02  0.56941758093E+02  0.14201698410E+03  0.17421173394E+03  0.81319031108E+02 0.  0.
         23    2    1    2    0    0 -0.77465432544E+02 -0.47794279426E+02 -0.38535347833E+02  0.13372792172E+03  0.90072180108E+02 0.  0.
         11    1    3    3    0    0  0.44097273862E+02  0.17848095822E+02  0.10181616542E+03  0.11238174063E+03  0.00000000000E+00 0. -1.
        -12    1    3    3    0    0 -0.26048566572E+02  0.39093662270E+02  0.40200818683E+02  0.61829993312E+02  0.00000000000E+00 0.  1.
        -13    1    4    4    0    0 -0.53122505662E+02 -0.17776679763E+02 -0.65811556208E+02  0.86424370879E+02  0.00000000000E+00 0. -1.
         13    1    4    4    0    0 -0.24342926882E+02 -0.30017599663E+02  0.27276208375E+02  0.47303550840E+02  0.00000000000E+00 0.  1.
         21    1    1    2  502  501  0.59416725255E+02 -0.91474786665E+01 -0.25464578207E+02  0.65287581891E+02  0.00000000000E+00 0. -1.
<scales pt_clust_5="13000.00000" pt_clust_6="13000.00000" pt_clust_7="13000.00000" pt_clust_8="13000.00000" pt_clust_9="60.11675"></scales>
<clustering>
<clus scale="   60.117">  2  9  1 -1</clus>
<clus scale="   81.319">  5  6 -1 -1</clus>
<clus scale="   90.072">  7  8 -1 -1</clus>
<clus scale="  102.197">  1  5  2 -1</clus>
<clus scale="   60.117">  2  5  1 -1</clus>
</clustering>
</event>
<event>
 9    1  0.2674825E-005  0.1383394E+03  0.7546771E-02  0.1216861E+00
          1   -1    0    0  502    0  0.00000000000E+00  0.00000000000E+00  0.86382081145E+03  0.86382081145E+03  0.00000000000E+00 0. -1.
         -2   -1    0    0    0  501 -0.00000000000E+00 -0.00000000000E+00 -0.39133087834E+02  0.39133087834E+02  0.00000000000E+00 0.  1.
         23    2    1    2    0    0  0.96490591704E+02 -0.23476748662E+02  0.14028340175E+03  0.19315448116E+03  0.88134152132E+02 0.  0.
        -24    2    1    2    0    0 -0.12416901037E+03  0.35351769074E+02  0.49842178284E+03  0.52139396228E+03  0.82217392154E+02 0.  0.
         11    1    4    4    0    0 -0.75846717815E+02 -0.52406568314E+01  0.37658115267E+03  0.38417906454E+03  0.00000000000E+00 0. -1.
        -12    1    4    4    0    0 -0.48322292559E+02  0.40592425905E+02  0.12184063017E+03  0.13721489773E+03  0.00000000000E+00 0.  1.
        -13    1    3    3    0    0  0.72985407789E+02 -0.26421652571E+01  0.14406332633E+03  0.16151808809E+03  0.00000000000E+00 0. -1.
         13    1    3    3    0    0  0.23505183915E+02 -0.20834583405E+02 -0.37799245844E+01  0.31636393069E+02  0.00000000000E+00 0.  1.
         21    1    1    2  502  501  0.27678418670E+02 -0.11875020412E+02  0.18598253902E+03  0.18840545584E+03  0.00000000000E+00 0. -1.
<scales pt_clust_5="13000.00000" pt_clust_6="13000.00000" pt_clust_7="13000.00000" pt_clust_8="13000.00000" pt_clust_9="30.11828"></scales>
<clustering>
<clus scale="   30.118">  1  9  2 -1</clus>
<clus scale="   82.217">  5  6 -1 -1</clus>
<clus scale="   88.134">  7  8 -1 -1</clus>
<clus scale="  134.647">  1  5  2 -1</clus>
<clus scale="   30.118">  1  5  2 -1</clus>
</clustering>
</event>
<event>
 9    1  0.2674825E-005  0.1087805E+03  0.7546771E-02  0.1267080E+00
          1   -1    0    0  502    0  0.00000000000E+00  0.00000000000E+00  0.36777118676E+03  0.36777118676E+03  0.00000000000E+00 0. -1.
         -2   -1    0    0    0  501 -0.00000000000E+00 -0.00000000000E+00 -0.27541578179E+03  0.27541578179E+03  0.00000000000E+00 0.  1.
        -24    2    1    2    0    0  0.54576248219E+02 -0.27601648370E+02 -0.24893505320E+03  0.26890290076E+03  0.81238485109E+02 0.  0.
         23    2    1    2    0    0  0.45172199767E+01  0.12620369267E+02  0.21088409862E+03  0.23033166137E+03  0.91656381018E+02 0.  0.
         11    1    3    3    0    0 -0.20023990853E+02 -0.18786217749E+01 -0.29437542466E+02  0.35651905081E+02  0.00000000000E+00 0. -1.
        -12    1    3    3    0    0  0.74600239072E+02 -0.25723026595E+02 -0.21949751073E+03  0.23325099568E+03  0.00000000000E+00 0.  1.
        -13    1    4    4    0    0  0.45922745986E+02  0.10182684683E+02  0.77603555450E+02  0.90746335929E+02  0.00000000000E+00 0.  1.
         13    1    4    4    0    0 -0.41405526009E+02  0.24376845842E+01  0.13328054317E+03  0.13958532544E+03  0.00000000000E+00 0. -1.
         21    1    1    2  502  501 -0.59093468196E+02  0.14981279104E+02  0.13040635954E+03  0.14395240642E+03  0.00000000000E+00 0. -1.
<scales pt_clust_5="13000.00000" pt_clust_6="13000.00000" pt_clust_7="13000.00000" pt_clust_8="13000.00000" pt_clust_9="60.96291"></scales>
<clustering>
<clus scale="   60.963">  1  9  2 -1</clus>
<clus scale="   81.238">  5  6 -1 -1</clus>
<clus scale="   91.656">  7  8 -1 -1</clus>
<clus scale="  100.160">  2  5  1 -1</clus>
<clus scale="   60.963">  1  5  2 -1</clus>
</clustering>
</event>
<event>
 9    1  0.2674825E-005  0.1219716E+03  0.7546771E-02  0.1244134E+00
          1   -1    0    0  502    0  0.00000000000E+00  0.00000000000E+00  0.81912456888E+02  0.81912456888E+02  0.00000000000E+00 0. -1.
         -2   -1    0    0    0  501 -0.00000000000E+00 -0.00000000000E+00 -0.28889684135E+03  0.28889684135E+03  0.00000000000E+00 0.  1.
        -24    2    1    2    0    0  0.18850450053E+01 -0.76298046192E+02 -0.17176020460E+03  0.20445516583E+03  0.80469880734E+02 0.  0.
         23    2    1    2    0    0  0.20812015669E+02  0.76234507471E+02  0.19583118457E+01  0.12279155339E+03  0.93963240012E+02 0.  0.
         13    1    3    3    0    0  0.23709037080E+02 -0.52984373645E+00 -0.12646558911E+02  0.26876283707E+02  0.00000000000E+00 0. -1.
        -14    1    3    3    0    0 -0.21823992075E+02 -0.75768202455E+02 -0.15911364569E+03  0.17757888213E+03  0.00000000000E+00 0.  1.
        -13    1    4    4    0    0  0.24691853274E+02  0.59514649485E+01 -0.35034627726E+02  0.43272770804E+02  0.00000000000E+00 0.  1.
         13    1    4    4    0    0 -0.38798376056E+01  0.70283042522E+02  0.36992939572E+02  0.79518782588E+02  0.00000000000E+00 0. -1.
         21    1    1    2  502  501 -0.22697060674E+02  0.63538720963E-01 -0.37182491713E+02  0.43562579014E+02  0.00000000000E+00 0.  1.
<scales pt_clust_5="13000.00000" pt_clust_6="13000.00000" pt_clust_7="13000.00000" pt_clust_8="13000.00000" pt_clust_9="22.69715"></scales>
<clustering>
<clus scale="   22.697">  2  9  1 -1</clus>
<clus scale="   80.470">  5  6 -1 -1</clus>
<clus scale="   93.963">  7  8 -1 -1</clus>
<clus scale="  111.908">  2  5  1 -1</clus>
<clus scale="  121.972">  1  5  2 -1</clus>
</clustering>
</event>
<event>
 9    1  0.2674825E-005  0.9474078E+02  0.7546771E-02  0.1297688E+00
         -2   -1    0    0    0  501 -0.00000000000E+00  0.00000000000E+00  0.14846965439E+03  0.14846965439E+03  0.00000000000E+00 0.  1.
          1   -1    0    0  502    0  0.00000000000E+00 -0.00000000000E+00 -0.29436131257E+03  0.29436131257E+03  0.00000000000E+00 0. -1.
        -24    2    1    2    0    0 -0.30774309908E+02 -0.17957977544E+02  0.89904058497E+02  0.12559635674E+03  0.80138367746E+02 0.  0.
         23    2    1    2    0    0  0.70087304768E+01 -0.15565471505E+01 -0.12322904327E+02  0.91655982467E+02  0.90539604644E+02 0.  0.
         11    1    3    3    0    0 -0.23209499875E+02  0.30683866769E+02  0.39927710091E+02  0.55447295673E+02  0.00000000000E+00 0. -1.
        -12    1    3    3    0    0 -0.75648100326E+01 -0.48641844312E+02  0.49976348405E+02  0.70149061069E+02  0.00000000000E+00 0.  1.
        -13    1    4    4    0    0 -0.50156720582E+01 -0.43977933229E+02  0.44384065091E+01  0.44484997804E+02  0.00000000000E+00 0.  1.
         13    1    4    4    0    0  0.12024402535E+02  0.42421386078E+02 -0.16761310836E+02  0.47170984663E+02  0.00000000000E+00 0. -1.
         21    1    1    2  502  501  0.23765579431E+02  0.19514524694E+02 -0.22347281234E+03  0.22557862775E+03  0.00000000000E+00 0. -1.
<scales pt_clust_5="13000.00000" pt_clust_6="13000.00000" pt_clust_7="13000.00000" pt_clust_8="13000.00000" pt_clust_9="30.75093"></scales>
<clustering>
<clus scale="   30.751">  2  9  1 -1</clus>
<clus scale="   80.138">  5  6 -1 -1</clus>
<clus scale="   84.856">  1  5  2 -1</clus>
<clus scale="   90.540">  7  8 -1 -1</clus>
<clus scale="   30.751">  2  5  1 -1</clus>
</clustering>
</event>
<event>
 9    1  0.2674825E-005  0.1023329E+03  0.7546771E-02  0.1280146E+00
         -2   -1    0    0    0  501 -0.00000000000E+00  0.00000000000E+00  0.12795588650E+03  0.12795588650E+03  0.00000000000E+00 0.  1.
          1   -1    0    0  502    0  0.00000000000E+00 -0.00000000000E+00 -0.24799933483E+03  0.24799933483E+03  0.00000000000E+00 0. -1.
        -24    2    1    2    0    0 -0.85719612703E+01 -0.83394240970E+01  0.65432311252E+02  0.10441781621E+03  0.80490176248E+02 0.  0.
         23    2    1    2    0    0  0.18436737387E+02 -0.53829975929E+02 -0.17868074478E+03  0.20822452860E+03  0.90515557561E+02 0.  0.
         13    1    3    3    0    0 -0.39235554782E+01 -0.42285856751E+02  0.53121297277E+02  0.68010000685E+02  0.00000000000E+00 0. -1.
        -14    1    3    3    0    0 -0.46484057921E+01  0.33946432654E+02  0.12311013975E+02  0.36407815527E+02  0.00000000000E+00 0.  1.
        -13    1    4    4    0    0  0.35577387396E+02  0.12770582305E+02 -0.55563942601E+02  0.67202603995E+02  0.00000000000E+00 0.  1.
         13    1    4    4    0    0 -0.17140650009E+02 -0.66600558234E+02 -0.12311680218E+03  0.14102192460E+03  0.00000000000E+00 0. -1.
         21    1    1    2  502  501 -0.98647761167E+01  0.62169400026E+02 -0.67950147956E+01  0.63312876522E+02  0.00000000000E+00 0.  1.
<scales pt_clust_5="13000.00000" pt_clust_6="13000.00000" pt_clust_7="13000.00000" pt_clust_8="13000.00000" pt_clust_9="62.94719"></scales>
<clustering>
<clus scale="   62.947">  1  9  2 -1</clus>
<clus scale="   80.490">  5  6 -1 -1</clus>
<clus scale="   90.516">  7  8 -1 -1</clus>
<clus scale="   93.582">  1  5  2 -1</clus>
<clus scale="  102.333">  2  5  1 -1</clus>
</clustering>
</event>
<event>
 9    1  0.2674825E-005  0.1191835E+03  0.7546771E-02  0.1249036E+00
          1   -1    0    0  502    0  0.00000000000E+00  0.00000000000E+00  0.37086618901E+03  0.37086618901E+03  0.00000000000E+00 0. -1.
         -2   -1    0    0    0  501 -0.00000000000E+00 -0.00000000000E+00 -0.76341840282E+02  0.76341840282E+02  0.00000000000E+00 0.  1.
        -24    2    1    2    0    0 -0.59216014585E+02 -0.67094011233E+02  0.12488563648E+02  0.12147341249E+03  0.81189180271E+02 0.  0.
         23    2    1    2    0    0  0.95883358875E+01  0.28200847130E+02  0.15898820447E+03  0.18747293809E+03  0.94771458738E+02 0.  0.
         13    1    3    3    0    0 -0.48112609805E+02 -0.47917455846E+01  0.28593055154E+02  0.56172474140E+02  0.00000000000E+00 0. -1.
        -14    1    3    3    0    0 -0.11103404780E+02 -0.62302265648E+02 -0.16104491506E+02  0.65300938349E+02  0.00000000000E+00 0.  1.
        -13    1    4    4    0    0 -0.29618231706E+01  0.49234246360E+02  0.15499849499E+03  0.16265705291E+03  0.00000000000E+00 0. -1.
         13    1    4    4    0    0  0.12550159058E+02 -0.21033399230E+02  0.39897094772E+01  0.24815885180E+02  0.00000000000E+00 0.  1.
         21    1    1    2  502  501  0.49627678697E+02  0.38893164103E+02  0.12304758061E+03  0.13826167871E+03  0.00000000000E+00 0.  1.
<scales pt_clust_5="13000.00000" pt_clust_6="13000.00000" pt_clust_7="13000.00000" pt_clust_8="13000.00000" pt_clust_9="63.05224"></scales>
<clustering>
<clus scale="   63.052">  1  9  2 -1</clus>
<clus scale="   81.189">  5  6 -1 -1</clus>
<clus scale="   94.771">  7  8 -1 -1</clus>
<clus scale="  108.696">  2  5  1 -1</clus>
<clus scale="   63.052">  1  5  2 -1</clus>
</clustering>
</event>
<event>
 9    1  0.2674825E-005  0.9102683E+02  0.7546771E-02  0.1311228E+00
         -2   -1    0    0    0  501 -0.00000000000E+00  0.00000000000E+00  0.26898939778E+03  0.26898939778E+03  0.00000000000E+00 0.  1.
          1   -1    0    0  502    0  0.00000000000E+00 -0.00000000000E+00 -0.13851724843E+03  0.13851724843E+03  0.00000000000E+00 0. -1.
        -24    2    1    2    0    0  0.76866083649E+01  0.13814996528E+01  0.17448312130E+03  0.18989391397E+03  0.74527487898E+02 0.  0.
         23    2    1    2    0    0  0.15277040060E+02  0.21820197887E+02  0.57611540327E+02  0.11087575215E+03  0.90911131591E+02 0.  0.
         11    1    3    3    0    0  0.14675497977E+02 -0.28622058052E+02  0.37112997495E+02  0.49111780980E+02  0.00000000000E+00 0. -1.
        -12    1    3    3    0    0 -0.69888896120E+01  0.30003557705E+02  0.13737012381E+03  0.14078213299E+03  0.00000000000E+00 0.  1.
        -13    1    4    4    0    0  0.24238498475E+02  0.53337189740E+02  0.50498378417E+02  0.77346278776E+02  0.00000000000E+00 0.  1.
         13    1    4    4    0    0 -0.89614584151E+01 -0.31516991853E+02  0.71131619095E+01  0.33529473374E+02  0.00000000000E+00 0. -1.
         21    1    1    2  502  501 -0.22963648425E+02 -0.23201697540E+02 -0.10162251228E+03  0.10673698010E+03  0.00000000000E+00 0. -1.
<scales pt_clust_5="13000.00000" pt_clust_6="13000.00000" pt_clust_7="13000.00000" pt_clust_8="13000.00000" pt_clust_9="32.64426"></scales>
<clustering>
<clus scale="   32.644">  2  9  1 -1</clus>
<clus scale="   74.527">  5  6 -1 -1</clus>
<clus scale="   74.669">  1  5  2 -1</clus>
<clus scale="   90.911">  7  8 -1 -1</clus>
<clus scale="   32.644">  2  5  1 -1</clus>
</clustering>
</event>
<event>
 9    1  0.2674825E-005  0.9965798E+02  0.7546771E-02  0.1285612E+00
          3   -1    0    0  502    0  0.00000000000E+00  0.00000000000E+00  0.79265953188E+02  0.79265953188E+02  0.00000000000E+00 0. -1.
         -4   -1    0    0    0  501 -0.00000000000E+00 -0.00000000000E+00 -0.26004486636E+03  0.26004486636E+03  0.00000000000E+00 0.  1.
         23    2    1    2    0    0  0.35140735602E+02 -0.30574343856E+02 -0.13230390111E+03  0.16731750885E+03  0.91220418312E+02 0.  0.
        -24    2    1    2    0    0 -0.12642099683E+02  0.33461535146E+02 -0.88565171829E+02  0.12593090302E+03  0.82068907964E+02 0.  0.
         13    1    4    4    0    0 -0.41511407557E+02 -0.26276871579E+01 -0.29789815297E+02  0.51161848995E+02  0.00000000000E+00 0. -1.
        -14    1    4    4    0    0  0.28869307874E+02  0.36089222304E+02 -0.58775356532E+02  0.74769054020E+02  0.00000000000E+00 0.  1.
        -11    1    3    3    0    0  0.25068341924E+02 -0.64676237085E+01  0.59934872116E+01  0.26573931065E+02  0.00000000000E+00 0. -1.
         11    1    3    3    0    0  0.10072393678E+02 -0.24106720148E+02 -0.13829738832E+03  0.14074357778E+03  0.00000000000E+00 0.  1.
         21    1    1    2  502  501 -0.22498635919E+02 -0.28871912902E+01  0.40090159766E+02  0.46062407686E+02  0.00000000000E+00 0. -1.
<scales pt_clust_5="13000.00000" pt_clust_6="13000.00000" pt_clust_7="13000.00000" pt_clust_8="13000.00000" pt_clust_9="22.68313"></scales>
<clustering>
<clus scale="   22.683">  1  9  2 -1</clus>
<clus scale="   82.069">  5  6 -1 -1</clus>
<clus scale="   91.220">  7  8 -1 -1</clus>
<clus scale="   91.356">  1  5  2 -1</clus>
<clus scale="   22.683">  1  5  2 -1</clus>
</clustering>
</event>
<event>
 9    1  0.2674825E-005  0.1191537E+03  0.7546771E-02  0.1249790E+00
          1   -1    0    0  502    0  0.00000000000E+00  0.00000000000E+00  0.28621647620E+03  0.28621647620E+03  0.00000000000E+00 0. -1.
         -2   -1    0    0    0  501 -0.00000000000E+00 -0.00000000000E+00 -0.13818339937E+03  0.13818339937E+03  0.00000000000E+00 0.  1.
        -24    2    1    2    0    0  0.60585984881E+02  0.26259441299E+02 -0.78339555792E+02  0.13027552063E+03  0.80463690274E+02 0.  0.
         23    2    1    2    0    0 -0.84449308084E+02 -0.55703077623E+02  0.13010258916E+03  0.19066273315E+03  0.95870097611E+02 0.  0.
         11    1    3    3    0    0 -0.16779785083E+02  0.18136018918E+02 -0.29257172410E+02  0.38294366518E+02  0.00000000000E+00 0. -1.
        -12    1    3    3    0    0  0.77365769964E+02  0.81234223806E+01 -0.49082383382E+02  0.91981154112E+02  0.00000000000E+00 0.  1.
        -11    1    4    4    0    0 -0.56422036587E+02  0.27723167819E+01  0.14832284269E+02  0.58404868030E+02  0.00000000000E+00 0.  1.
         11    1    4    4    0    0 -0.28027271497E+02 -0.58475394405E+02  0.11527030489E+03  0.13225786512E+03  0.00000000000E+00 0. -1.
         21    1    1    2  502  501  0.23863323202E+02  0.29443636324E+02  0.96270043460E+02  0.10346162178E+03  0.00000000000E+00 0. -1.
<scales pt_clust_5="13000.00000" pt_clust_6="13000.00000" pt_clust_7="13000.00000" pt_clust_8="13000.00000" pt_clust_9="37.89968"></scales>
<clustering>
<clus scale="   37.900">  1  9  2 -1</clus>
<clus scale="   80.464">  5  6 -1 -1</clus>
<clus scale="   95.870">  7  8 -1 -1</clus>
<clus scale="  107.149">  2  5  1 -1</clus>
<clus scale="   37.900">  1  5  2 -1</clus>
</clustering>
</event>
<event>
 9    1  0.2674825E-005  0.1204597E+03  0.7546771E-02  0.1244426E+00
          1   -1    0    0  502    0  0.00000000000E+00  0.00000000000E+00  0.33292799218E+03  0.33292799218E+03  0.00000000000E+00 0. -1.
         -2   -1    0    0    0  501 -0.00000000000E+00 -0.00000000000E+00 -0.13466067555E+03  0.13466067555E+03  0.00000000000E+00 0.  1.
        -24    2    1    2    0    0 -0.57695963215E+02 -0.31400852439E+02 -0.44572023860E+02  0.12734553800E+03  0.99576016347E+02 0.  0.
         23    2    1    2    0    0  0.18133237392E+02  0.11027171826E+03  0.18162662430E+03  0.23285216469E+03  0.93505260806E+02 0.  0.
         11    1    3    3    0    0 -0.50475480978E+02 -0.13233608019E+01  0.21122715162E+02  0.54732938525E+02  0.00000000000E+00 0. -1.
        -12    1    3    3    0    0 -0.72204822366E+01 -0.30077491638E+02 -0.65694739021E+02  0.72612599472E+02  0.00000000000E+00 0.  1.
        -13    1    4    4    0    0 -0.30755581650E+02  0.84584728046E+02  0.12161151050E+03  0.15129389118E+03  0.00000000000E+00 0.  1.
         13    1    4    4    0    0  0.48888819042E+02  0.25686990217E+02  0.60015113796E+02  0.81558273509E+02  0.00000000000E+00 0. -1.
         21    1    1    2  502  501  0.39562725823E+02 -0.78870865824E+02  0.61212716189E+02  0.10739096505E+03  0.00000000000E+00 0. -1.
<scales pt_clust_5="13000.00000" pt_clust_6="13000.00000" pt_clust_7="13000.00000" pt_clust_8="13000.00000" pt_clust_9="88.23731"></scales>
<clustering>
<clus scale="   88.237">  1  9  2 -1</clus>
<clus scale="   93.505">  7  8 -1 -1</clus>
<clus scale="   99.576">  5  6 -1 -1</clus>
<clus scale="  115.492">  1  7  2 -1</clus>
<clus scale="   88.237">  1  5  2 -1</clus>
</clustering>
</event>
<event>
 9    1  0.2674825E-005  0.1453925E+03  0.7546771E-02  0.1208412E+00
          3   -1    0    0  502    0  0.00000000000E+00  0.00000000000E+00  0.11772588234E+03  0.11772588234E+03  0.00000000000E+00 0. -1.
         -4   -1    0    0    0  501 -0.00000000000E+00 -0.00000000000E+00 -0.50062943624E+03  0.50062943624E+03  0.00000000000E+00 0.  1.
         23    2    1    2    0    0  0.90745555300E+02  0.38918283879E+02 -0.26781109666E+03  0.29952536227E+03  0.90792458502E+02 0.  0.
        -24    2    1    2    0    0 -0.13336414057E+03 -0.53490228530E+02 -0.17746487428E+03  0.24189489416E+03  0.79825808347E+02 0.  0.
         13    1    4    4    0    0 -0.12558729057E+03 -0.22033870899E+02 -0.11583406218E+03  0.17226488029E+03  0.00000000000E+00 0. -1.
        -14    1    4    4    0    0 -0.77768499985E+01 -0.31456357631E+02 -0.61630812102E+02  0.69630013871E+02  0.00000000000E+00 0.  1.
        -11    1    3    3    0    0  0.67895449010E+02  0.62448250157E+00 -0.23375112970E+03  0.24341276180E+03  0.00000000000E+00 0.  1.
         11    1    3    3    0    0  0.22850106290E+02  0.38293801378E+02 -0.34059966967E+02  0.56112600467E+02  0.00000000000E+00 0. -1.
         21    1    1    2  502  501  0.42618585266E+02  0.14571944651E+02  0.62372417041E+02  0.76935062153E+02  0.00000000000E+00 0. -1.
<scales pt_clust_5="13000.00000" pt_clust_6="13000.00000" pt_clust_7="13000.00000" pt_clust_8="13000.00000" pt_clust_9="45.04093"></scales>
<clustering>
<clus scale="   45.041">  1  9  2 -1</clus>
<clus scale="   79.826">  5  6 -1 -1</clus>
<clus scale="   90.792">  7  8 -1 -1</clus>
<clus scale="  138.809">  1  5  2 -1</clus>
<clus scale="   45.041">  1  5  2 -1</clus>
</clustering>
</event>
<event>
 9    1  0.2674825E-005  0.1334423E+03  0.7546771E-02  0.1247021E+00
         -4   -1    0    0    0  501 -0.00000000000E+00  0.00000000000E+00  0.41336831797E+03  0.41336831797E+03  0.00000000000E+00 0.  1.
          3   -1    0    0  502    0  0.00000000000E+00 -0.00000000000E+00 -0.12945880769E+03  0.12945880769E+03  0.00000000000E+00 0. -1.
        -24    2    1    2    0    0 -0.44268949354E+01  0.18406928625E+02  0.27945399392E+03  0.29085457813E+03  0.78380089837E+02 0.  0.
         23    2    1    2    0    0  0.78585013320E+01 -0.11096932347E+03  0.44831159570E+02  0.15092916365E+03  0.91617862753E+02 0.  0.
         13    1    3    3    0    0  0.94692083112E+01  0.43950624280E+02  0.10851536738E+03  0.11746024109E+03  0.00000000000E+00 0. -1.
        -14    1    3    3    0    0 -0.13896103247E+02 -0.25543695655E+02  0.17093862654E+03  0.17339433703E+03  0.00000000000E+00 0.  1.
        -11    1    4    4    0    0  0.27833128382E+02 -0.90256981349E+02 -0.36836022295E+01  0.94522878940E+02  0.00000000000E+00 0.  1.
         11    1    4    4    0    0 -0.19974627050E+02 -0.20712342126E+02  0.48514761799E+02  0.56406284708E+02  0.00000000000E+00 0. -1.
         21    1    1    2  502  501 -0.34316063966E+01  0.92562394850E+02 -0.40375643208E+02  0.10104338389E+03  0.00000000000E+00 0. -1.
<scales pt_clust_5="13000.00000" pt_clust_6="13000.00000" pt_clust_7="13000.00000" pt_clust_8="13000.00000" pt_clust_9="97.02069"></scales>
<clustering>
<clus scale="   78.380">  5  6 -1 -1</clus>
<clus scale="   80.634">  1  5  2 -1</clus>
<clus scale="   91.618">  7  8 -1 -1</clus>
<clus scale="   97.021">  2  9  1 -1</clus>
<clus scale="   97.021">  2  5  1 -1</clus>
</clustering>
</event>
<event>
 9    1  0.2674825E-005  0.3306794E+03  0.7546771E-02  0.1071144E+00
          1   -1    0    0  502    0  0.00000000000E+00  0.00000000000E+00  0.64251066747E+03  0.64251066747E+03  0.00000000000E+00 0. -1.
         -2   -1    0    0    0  501 -0.00000000000E+00 -0.00000000000E+00 -0.24966727984E+03  0.24966727984E+03  0.00000000000E+00 0.  1.
         23    2    1    2    0    0  0.17090759542E+03  0.26397604554E+03 -0.34910279320E+02  0.32959458352E+03  0.92309821222E+02 0.  0.
        -24    2    1    2    0    0 -0.19114294442E+03 -0.25495122225E+03  0.42872814714E+03  0.54040530264E+03  0.81818800082E+02 0.  0.
         13    1    4    4    0    0 -0.99486640659E+01 -0.66100236821E+02  0.76536716169E+02  0.10161735160E+03  0.00000000000E+00 0. -1.
        -14    1    4    4    0    0 -0.18119428036E+03 -0.18885098543E+03  0.35219143097E+03  0.43878795104E+03  0.00000000000E+00 0.  1.
        -13    1    3    3    0    0  0.11119331816E+03  0.12849352672E+03 -0.58407908668E+02  0.17968312165E+03  0.00000000000E+00 0.  1.
         13    1    3    3    0    0  0.59714277261E+02  0.13548251882E+03  0.23497629348E+02  0.14991146187E+03  0.00000000000E+00 0. -1.
         21    1    1    2  502  501  0.20235349002E+02 -0.90248232852E+01 -0.97448017805E+00  0.22178061146E+02  0.00000000000E+00 0. -1.
<scales pt_clust_5="13000.00000" pt_clust_6="13000.00000" pt_clust_7="13000.00000" pt_clust_8="13000.00000" pt_clust_9="22.15664"></scales>
<clustering>
<clus scale="   22.157">  2  9  1 -1</clus>
<clus scale="   81.819">  5  6 -1 -1</clus>
<clus scale="   92.310">  7  8 -1 -1</clus>
<clus scale="  327.906">  1  5  2 -1</clus>
<clus scale="  327.906">  1  5  2 -1</clus>
</clustering>
</event>
<event>
 9    1  0.2674825E-005  0.9546643E+02  0.7546771E-02  0.1295125E+00
          1   -1    0    0  502    0  0.00000000000E+00  0.00000000000E+00  0.47751746625E+03  0.47751746625E+03  0.00000000000E+00 0. -1.
         -2   -1    0    0    0  501 -0.00000000000E+00 -0.00000000000E+00 -0.77067931806E+02  0.77067931806E+02  0.00000000000E+00 0.  1.
         23    2    1    2    0    0  0.51202146456E+01 -0.12507185393E+02 -0.27127408236E+02  0.95843485939E+02  0.90925415780E+02 0.  0.
        -24    2    1    2    0    0 -0.30824315019E+02  0.39762793140E+00  0.42041733334E+03  0.42943999812E+03  0.81961462352E+02 0.  0.
         13    1    4    4    0    0 -0.42660689233E+02  0.31409085402E+02  0.21972117791E+03  0.22601739109E+03  0.00000000000E+00 0. -1.
        -14    1    4    4    0    0  0.11836374215E+02 -0.31011457470E+02  0.20069615543E+03  0.20342260704E+03  0.00000000000E+00 0.  1.
        -11    1    3    3    0    0  0.41943976478E+02 -0.59223056064E+01 -0.37979805163E+02  0.56893202289E+02  0.00000000000E+00 0.  1.
         11    1    3    3    0    0 -0.36823761833E+02 -0.65848797871E+01  0.10852396927E+02  0.38950283649E+02  0.00000000000E+00 0. -1.
         21    1    1    2  502  501  0.25704100373E+02  0.12109557462E+02  0.71596093425E+01  0.29301913997E+02  0.00000000000E+00 0.  1.
<scales pt_clust_5="13000.00000" pt_clust_6="13000.00000" pt_clust_7="13000.00000" pt_clust_8="13000.00000" pt_clust_9="28.41377"></scales>
<clustering>
<clus scale="   28.414">  2  9  1 -1</clus>
<clus scale="   81.961">  5  6 -1 -1</clus>
<clus scale="   86.972">  1  5  2 -1</clus>
<clus scale="   90.925">  7  8 -1 -1</clus>
<clus scale="   86.972">  1  5  2 -1</clus>
</clustering>
</event>
<event>
 9    1  0.2674825E-005  0.2802284E+03  0.7546771E-02  0.1095564E+00
         -2   -1    0    0    0  501 -0.00000000000E+00  0.00000000000E+00  0.22582974917E+03  0.22582974917E+03  0.00000000000E+00 0.  1.
          1   -1    0    0  502    0  0.00000000000E+00 -0.00000000000E+00 -0.74061382796E+03  0.74061382796E+03  0.00000000000E+00 0. -1.
        -24    2    1    2    0    0  0.11052155030E+03  0.36479252140E+02  0.23286137192E+02  0.14366218069E+03  0.80937192048E+02 0.  0.
         23    2    1    2    0    0  0.90890558272E+02  0.28290460200E+02  0.91083894146E+02  0.15900670017E+03  0.89024778594E+02 0.  0.
         11    1    3    3    0    0  0.62172053450E+02  0.25559113731E+02 -0.27562037240E+02  0.72651898955E+02  0.00000000000E+00 0. -1.
        -12    1    3    3    0    0  0.48349496852E+02  0.10920138410E+02  0.50848174432E+02  0.71010281733E+02  0.00000000000E+00 0.  1.
        -13    1    4    4    0    0  0.17289661045E+02  0.35995046941E+02  0.72398943989E+02  0.82681212340E+02  0.00000000000E+00 0. -1.
         13    1    4    4    0    0  0.73600897227E+02 -0.77045867412E+01  0.18684950157E+02  0.76325487826E+02  0.00000000000E+00 0.  1.
         21    1    1    2  502  501 -0.20141210857E+03 -0.64769712340E+02 -0.62915411013E+03  0.66377469627E+03  0.00000000000E+00 0. -1.
<scales pt_clust_5="13000.00000" pt_clust_6="13000.00000" pt_clust_7="13000.00000" pt_clust_8="13000.00000" pt_clust_9="211.57021"></scales>
<clustering>
<clus scale="   80.937">  5  6 -1 -1</clus>
<clus scale="   89.025">  7  8 -1 -1</clus>
<clus scale="  107.992">  5  7 -1 -1</clus>
<clus scale="  211.570">  2  9  1 -1</clus>
<clus scale="  211.570">  2  5  1 -1</clus>
</clustering>
</event>
<event>
 9    1  0.2674825E-005  0.9677124E+02  0.7546771E-02  0.1293122E+00
          1   -1    0    0  502    0  0.00000000000E+00  0.00000000000E+00  0.46353303174E+03  0.46353303174E+03  0.00000000000E+00 0. -1.
         -2   -1    0    0    0  501 -0.00000000000E+00 -0.00000000000E+00 -0.73793500356E+02  0.73793500356E+02  0.00000000000E+00 0.  1.
        -24    2    1    2    0    0 -0.23507157448E+01  0.17724696133E+02 -0.65495877674E+01  0.83230040063E+02  0.81022538540E+02 0.  0.
         23    2    1    2    0    0 -0.55240882522E+01 -0.84544040568E+02  0.13339187901E+03  0.18272627221E+03  0.91745772795E+02 0.  0.
         11    1    3    3    0    0 -0.32826076048E+02  0.33875854827E+02 -0.11046610437E+02  0.48447419034E+02  0.00000000000E+00 0. -1.
        -12    1    3    3    0    0  0.30475360303E+02 -0.16151158694E+02  0.44970226699E+01  0.34782621029E+02  0.00000000000E+00 0.  1.
        -11    1    4    4    0    0 -0.27429754685E+02 -0.70331882720E+02  0.39360186760E+02  0.85136299373E+02  0.00000000000E+00 0. -1.
         11    1    4    4    0    0  0.21905666432E+02 -0.14212157848E+02  0.94031692246E+02  0.97589972841E+02  0.00000000000E+00 0.  1.
         21    1    1    2  502  501  0.78748039970E+01  0.66819344435E+02  0.26289724015E+03  0.27137021982E+03  0.00000000000E+00 0.  1.
<scales pt_clust_5="13000.00000" pt_clust_6="13000.00000" pt_clust_7="13000.00000" pt_clust_8="13000.00000" pt_clust_9="67.28178"></scales>
<clustering>
<clus scale="   67.282">  1  9  2 -1</clus>
<clus scale="   81.023">  5  6 -1 -1</clus>
<clus scale="   86.672">  2  5  1 -1</clus>
<clus scale="   91.746">  7  8 -1 -1</clus>
<clus scale="   67.282">  1  5  2 -1</clus>
</clustering>
</event>
<event>
 9    1  0.2674825E-005  0.1290143E+03  0.7546771E-02  0.1231672E+00
         -2   -1    0    0    0  501 -0.00000000000E+00  0.00000000000E+00  0.11362598824E+03  0.11362598824E+03  0.00000000000E+00 0.  1.
          1   -1    0    0  502    0  0.00000000000E+00 -0.00000000000E+00 -0.17236611600E+03  0.17236611600E+03  0.00000000000E+00 0. -1.
        -24    2    1    2    0    0  0.63438399947E+02 -0.65635633578E+02  0.58302059759E+01  0.12363117145E+03  0.83175767315E+02 0.  0.
         23    2    1    2    0    0 -0.44688577454E+02  0.74773281764E+02 -0.50814772685E+02  0.13737557873E+03  0.93283417005E+02 0.  0.
         13    1    3    3    0    0  0.52758401706E+02  0.40291217283E+01  0.29719567863E-02  0.52912028701E+02  0.00000000000E+00 0. -1.
        -14    1    3    3    0    0  0.10679998241E+02 -0.69664755306E+02  0.58272340191E+01  0.70719142745E+02  0.00000000000E+00 0.  1.
        -13    1    4    4    0    0 -0.67916276725E+02  0.24485580705E+02 -0.30531792692E+02  0.78385934143E+02  0.00000000000E+00 0. -1.
         13    1    4    4    0    0  0.23227699270E+02  0.50287701059E+02 -0.20282979993E+02  0.58989644588E+02  0.00000000000E+00 0.  1.
         21    1    1    2  502  501 -0.18749822492E+02 -0.91376481860E+01 -0.13755561055E+02  0.24985354066E+02  0.00000000000E+00 0. -1.
<scales pt_clust_5="13000.00000" pt_clust_6="13000.00000" pt_clust_7="13000.00000" pt_clust_8="13000.00000" pt_clust_9="20.85791"></scales>
<clustering>
<clus scale="   20.858">  2  9  1 -1</clus>
<clus scale="   83.176">  5  6 -1 -1</clus>
<clus scale="   93.283">  7  8 -1 -1</clus>
<clus scale="  121.906">  1  5  2 -1</clus>
<clus scale="   20.858">  2  5  1 -1</clus>
</clustering>
</event>
<event>
 9    1  0.2674825E-005  0.9846804E+02  0.7546771E-02  0.1286015E+00
          1   -1    0    0  502    0  0.00000000000E+00  0.00000000000E+00  0.77297506302E+03  0.77297506302E+03  0.00000000000E+00 0. -1.
         -2   -1    0    0    0  501 -0.00000000000E+00 -0.00000000000E+00 -0.28291615682E+02  0.28291615682E+02  0.00000000000E+00 0.  1.
         23    2    1    2    0    0  0.42478412674E+02  0.16975348632E+01  0.94580299275E+02  0.13419869277E+03  0.85185438679E+02 0.  0.
        -24    2    1    2    0    0 -0.77580159754E+02  0.99101079103E+01  0.46013060281E+03  0.47353132799E+03  0.79967840500E+02 0.  0.
         13    1    4    4    0    0 -0.90680689354E+02  0.21023049549E+02  0.41319678859E+03  0.42355228973E+03  0.00000000000E+00 0. -1.
        -14    1    4    4    0    0  0.13100529600E+02 -0.11112941638E+02  0.46933814223E+02  0.49979038257E+02  0.00000000000E+00 0.  1.
        -11    1    3    3    0    0  0.18660558096E+02 -0.37996795853E+02  0.69951398440E+02  0.81762895419E+02  0.00000000000E+00 0. -1.
         11    1    3    3    0    0  0.23817854578E+02  0.39694330717E+02  0.24628900834E+02  0.52435797353E+02  0.00000000000E+00 0.  1.
         21    1    1    2  502  501  0.35101747079E+02 -0.11607642773E+02  0.18997254525E+03  0.19353665795E+03  0.00000000000E+00 0. -1.
<scales pt_clust_5="13000.00000" pt_clust_6="13000.00000" pt_clust_7="13000.00000" pt_clust_8="13000.00000" pt_clust_9="36.97121"></scales>
<clustering>
<clus scale="   36.971">  1  9  2 -1</clus>
<clus scale="   79.968">  5  6 -1 -1</clus>
<clus scale="   85.185">  7  8 -1 -1</clus>
<clus scale="   93.991">  1  5  2 -1</clus>
<clus scale="   36.971">  1  5  2 -1</clus>
</clustering>
</event>
<event>
 9    1  0.2674825E-005  0.1680438E+03  0.7546771E-02  0.1206996E+00
          1   -1    0    0  502    0  0.00000000000E+00  0.00000000000E+00  0.92610269228E+03  0.92610269228E+03  0.00000000000E+00 0. -1.
         -2   -1    0    0    0  501 -0.00000000000E+00 -0.00000000000E+00 -0.67480103115E+02  0.67480103115E+02  0.00000000000E+00 0.  1.
        -24    2    1    2    0    0  0.49659762708E+02  0.14333431619E+03  0.96162167507E+02  0.19568863094E+03  0.77692081907E+02 0.  0.
         23    2    1    2    0    0 -0.56020494843E+01 -0.92737562938E+01  0.34487018583E+03  0.35710518901E+03  0.92039586209E+02 0.  0.
         11    1    3    3    0    0 -0.11140409788E+02  0.77104305792E+02  0.27697763481E+02  0.82682215765E+02  0.00000000000E+00 0. -1.
        -12    1    3    3    0    0  0.60800172496E+02  0.66230010395E+02  0.68464404025E+02  0.11300641518E+03  0.00000000000E+00 0.  1.
        -11    1    4    4    0    0  0.40929908686E+02  0.71514655353E+01  0.19290467337E+03  0.19732869505E+03  0.00000000000E+00 0.  1.
         11    1    4    4    0    0 -0.46531958170E+02 -0.16425221829E+02  0.15196551246E+03  0.15977649395E+03  0.00000000000E+00 0. -1.
         21    1    1    2  502  501 -0.44057713224E+02 -0.13406055989E+03  0.41759023583E+03  0.44078897544E+03  0.00000000000E+00 0. -1.
<scales pt_clust_5="13000.00000" pt_clust_6="13000.00000" pt_clust_7="13000.00000" pt_clust_8="13000.00000" pt_clust_9="149.00555"></scales>
<clustering>
<clus scale="   77.692">  5  6 -1 -1</clus>
<clus scale="   92.040">  7  8 -1 -1</clus>
<clus scale="   92.675">  1  7  2 -1</clus>
<clus scale="  149.006">  1  9  2 -1</clus>
<clus scale="   92.675">  1  5  2 -1</clus>
</clustering>
</event>
<event>
 9    1  0.2674825E-005  0.9205441E+02  0.7546771E-02  0.1303291E+00
         -2   -1    0    0    0  501 -0.00000000000E+00  0.00000000000E+00  0.23934773841E+02  0.23934773841E+02  0.00000000000E+00 0.  1.
          1   -1    0    0  502    0  0.00000000000E+00 -0.00000000000E+00 -0.45296139876E+03  0.45296139876E+03  0.00000000000E+00 0. -1.
         23    2    1    2    0    0  0.23538107314E+02 -0.14557476963E+02 -0.14333973195E+03  0.17160546841E+03  0.90200861416E+02 0.  0.
        -24    2    1    2    0    0 -0.99443516128E+00  0.17236194050E+02 -0.24443198143E+03  0.25820184771E+03  0.81382586133E+02 0.  0.
         11    1    4    4    0    0  0.19984341223E+02  0.43498951210E+02 -0.11706875544E+03  0.12647776939E+03  0.00000000000E+00 0. -1.
        -12    1    4    4    0    0 -0.20978776384E+02 -0.26262757160E+02 -0.12736322600E+03  0.13172407832E+03  0.00000000000E+00 0.  1.
        -11    1    3    3    0    0  0.32269016722E+00 -0.48993341797E+02 -0.10122090139E+03  0.11245498009E+03  0.00000000000E+00 0.  1.
         11    1    3    3    0    0  0.23215417147E+02  0.34435864834E+02 -0.42118830561E+02  0.59150488316E+02  0.00000000000E+00 0. -1.
         21    1    1    2  502  501 -0.22543672153E+02 -0.26787170871E+01 -0.41254911535E+02  0.47088856486E+02  0.00000000000E+00 0. -1.
<scales pt_clust_5="13000.00000" pt_clust_6="13000.00000" pt_clust_7="13000.00000" pt_clust_8="13000.00000" pt_clust_9="22.70226"></scales>
<clustering>
<clus scale="   22.702">  1  9  2 -1</clus>
<clus scale="   81.383">  5  6 -1 -1</clus>
<clus scale="   83.432">  2  5  1 -1</clus>
<clus scale="   90.201">  7  8 -1 -1</clus>
<clus scale="   83.432">  2  5  1 -1</clus>
</clustering>
</event>
<event>
 9    1  0.2674825E-005  0.1078926E+03  0.7546771E-02  0.1268312E+00
         -2   -1    0    0    0  501 -0.00000000000E+00  0.00000000000E+00  0.13692516722E+03  0.13692516722E+03  0.00000000000E+00 0.  1.
          1   -1    0    0  502    0  0.00000000000E+00 -0.00000000000E+00 -0.19892758189E+03  0.19892758189E+03  0.00000000000E+00 0. -1.
        -24    2    1    2    0    0  0.55356991544E+02  0.17447658253E+02  0.74995712818E+02  0.12553731825E+03  0.82258397999E+02 0.  0.
         23    2    1    2    0    0 -0.45175999612E+02 -0.35827191911E+02 -0.46966054852E+02  0.11786417908E+03  0.91442308480E+02 0.  0.
         11    1    3    3    0    0  0.68738078893E+02  0.14057441324E+02  0.26308567475E+02  0.74931140850E+02  0.00000000000E+00 0. -1.
        -12    1    3    3    0    0 -0.13381087349E+02  0.33902169288E+01  0.48687145343E+02  0.50606177401E+02  0.00000000000E+00 0.  1.
        -13    1    4    4    0    0 -0.21413902656E+02  0.20144233018E+02  0.13285554821E+02  0.32262227415E+02  0.00000000000E+00 0. -1.
         13    1    4    4    0    0 -0.23762096955E+02 -0.55971424929E+02 -0.60251609674E+02  0.85601951663E+02  0.00000000000E+00 0.  1.
         21    1    1    2  502  501 -0.10180991932E+02  0.18379533659E+02 -0.90032072630E+02  0.92451251783E+02  0.00000000000E+00 0. -1.
<scales pt_clust_5="13000.00000" pt_clust_6="13000.00000" pt_clust_7="13000.00000" pt_clust_8="13000.00000" pt_clust_9="21.01095"></scales>
<clustering>
<clus scale="   21.011">  2  9  1 -1</clus>
<clus scale="   82.258">  5  6 -1 -1</clus>
<clus scale="   91.442">  7  8 -1 -1</clus>
<clus scale="  100.228">  1  5  2 -1</clus>
<clus scale="   21.011">  2  5  1 -1</clus>
</clustering>
</event>
<event>
 9    1  0.2674825E-005  0.1752244E+03  0.7546771E-02  0.1175065E+00
          1   -1    0    0  502    0  0.00000000000E+00  0.00000000000E+00  0.60797621614E+03  0.60797621614E+03  0.00000000000E+00 0. -1.
         -2   -1    0    0    0  501 -0.00000000000E+00 -0.00000000000E+00 -0.13362391918E+03  0.13362391918E+03  0.00000000000E+00 0.  1.
         23    2    1    2    0    0 -0.35335341403E+02 -0.14469254640E+03 -0.50565320865E+02  0.18557889614E+03  0.98479214485E+02 0.  0.
        -24    2    1    2    0    0  0.17735144934E+02  0.12179220879E+03  0.36157326123E+03  0.39014305735E+03  0.79551897969E+02 0.  0.
         11    1    4    4    0    0 -0.13312276027E+02  0.59281517627E+02  0.25930075764E+03  0.26632385912E+03  0.00000000000E+00 0. -1.
        -12    1    4    4    0    0  0.31047420962E+02  0.62510691164E+02  0.10227250359E+03  0.12381919823E+03  0.00000000000E+00 0.  1.
        -11    1    3    3    0    0 -0.45117813938E+02 -0.12227096228E+03 -0.75523997741E+02  0.15063093834E+03  0.00000000000E+00 0.  1.
         11    1    3    3    0    0  0.97824725351E+01 -0.22421584119E+02  0.24958676876E+02  0.34947957804E+02  0.00000000000E+00 0. -1.
         21    1    1    2  502  501  0.17600196469E+02  0.22900337604E+02  0.16334435659E+03  0.16587818184E+03  0.00000000000E+00 0. -1.
<scales pt_clust_5="13000.00000" pt_clust_6="13000.00000" pt_clust_7="13000.00000" pt_clust_8="13000.00000" pt_clust_9="28.88239"></scales>
<clustering>
<clus scale="   28.882">  1  9  2 -1</clus>
<clus scale="   79.552">  5  6 -1 -1</clus>
<clus scale="   98.479">  7  8 -1 -1</clus>
<clus scale="  165.330">  1  5  2 -1</clus>
<clus scale="   28.882">  1  5  2 -1</clus>
</clustering>
</event>
<event>
 9    1  0.2674825E-005  0.7861768E+02  0.7546771E-02  0.1337117E+00
          1   -1    0    0  502    0  0.00000000000E+00  0.00000000000E+00  0.81244437091E+03  0.81244437091E+03  0.00000000000E+00 0. -1.
         -2   -1    0    0    0  501 -0.00000000000E+00 -0.00000000000E+00 -0.27733025221E+02  0.27733025221E+02  0.00000000000E+00 0.  1.
        -24    2    1    2    0    0 -0.10262973412E+02 -0.93973744492E+01  0.55682063453E+02  0.95297072417E+02  0.76074966652E+02 0.  0.
         23    2    1    2    0    0 -0.32793136961E+01  0.62666337539E+02  0.37929217750E+03  0.39085063796E+03  0.70454535121E+02 0.  0.
         11    1    3    3    0    0 -0.33291247311E+02 -0.10829466930E+02  0.62152816745E+02  0.71334123187E+02  0.00000000000E+00 0. -1.
        -12    1    3    3    0    0  0.23028273899E+02  0.14320924810E+01 -0.64707532917E+01  0.23962949230E+02  0.00000000000E+00 0.  1.
        -11    1    4    4    0    0 -0.24995653318E+02  0.62363189506E+02  0.33309086802E+03  0.33979917076E+03  0.00000000000E+00 0. -1.
         11    1    4    4    0    0  0.21716339622E+02  0.30314803248E+00  0.46201309479E+02  0.51051467196E+02  0.00000000000E+00 0.  1.
         21    1    1    2  502  501  0.13542287108E+02 -0.53268963089E+02  0.34973710473E+03  0.35402968575E+03  0.00000000000E+00 0. -1.
<scales pt_clust_5="13000.00000" pt_clust_6="13000.00000" pt_clust_7="13000.00000" pt_clust_8="13000.00000" pt_clust_9="54.96341"></scales>
<clustering>
<clus scale="   54.963">  1  9  2 -1</clus>
<clus scale="   70.455">  7  8 -1 -1</clus>
<clus scale="   73.193">  1  7  2 -1</clus>
<clus scale="   76.075">  5  6 -1 -1</clus>
<clus scale="   54.963">  1  5  2 -1</clus>
</clustering>
</event>
<event>
 9    1  0.2674825E-005  0.1060588E+03  0.7546771E-02  0.1274155E+00
          1   -1    0    0  502    0  0.00000000000E+00  0.00000000000E+00  0.53290810509E+03  0.53290810509E+03  0.00000000000E+00 0. -1.
         -2   -1    0    0    0  501 -0.00000000000E+00 -0.00000000000E+00 -0.33105329943E+02  0.33105329943E+02  0.00000000000E+00 0.  1.
         23    2    1    2    0    0  0.60128775925E+02  0.27939539980E+02  0.99448588182E+02  0.14885832421E+03  0.88728188350E+02 0.  0.
        -24    2    1    2    0    0 -0.32352317905E+02 -0.14965234028E+02  0.33494081881E+03  0.34491403546E+03  0.74227414417E+02 0.  0.
         11    1    4    4    0    0 -0.11815634191E+01  0.28396432272E+02  0.98559647636E+02  0.10257561894E+03  0.00000000000E+00 0. -1.
        -12    1    4    4    0    0 -0.31170754486E+02 -0.43361666300E+02  0.23638117117E+03  0.24233841653E+03  0.00000000000E+00 0.  1.
        -13    1    3    3    0    0  0.77608828548E+02  0.42076938999E+02  0.78936108285E+02  0.11842511666E+03  0.00000000000E+00 0. -1.
         13    1    3    3    0    0 -0.17480052623E+02 -0.14137399018E+02  0.20512479897E+02  0.30433207557E+02  0.00000000000E+00 0.  1.
         21    1    1    2  502  501 -0.27776458020E+02 -0.12974305952E+02  0.65413368159E+02  0.72241075359E+02  0.00000000000E+00 0.  1.
<scales pt_clust_5="13000.00000" pt_clust_6="13000.00000" pt_clust_7="13000.00000" pt_clust_8="13000.00000" pt_clust_9="30.65721"></scales>
<clustering>
<clus scale="   30.657">  1  9  2 -1</clus>
<clus scale="   74.227">  5  6 -1 -1</clus>
<clus scale="   88.728">  7  8 -1 -1</clus>
<clus scale="   94.263">  1  5  2 -1</clus>
<clus scale="   30.657">  1  5  2 -1</clus>
</clustering>
</event>
<event>
 9    1  0.2674825E-005  0.9838436E+02  0.7546771E-02  0.1283881E+00
          1   -1    0    0  502    0  0.00000000000E+00  0.00000000000E+00  0.40231474060E+03  0.40231474060E+03  0.00000000000E+00 0. -1.
         -2   -1    0    0    0  501 -0.00000000000E+00 -0.00000000000E+00 -0.47171489904E+02  0.47171489904E+02  0.00000000000E+00 0.  1.
         23    2    1    2    0    0  0.28383381710E+02  0.83010972479E+01  0.35186895205E+02  0.10300242435E+03  0.92178399068E+02 0.  0.
        -24    2    1    2    0    0 -0.51099834922E+02 -0.18665591691E+02  0.27593124917E+03  0.29587086336E+03  0.91879900277E+02 0.  0.
         11    1    4    4    0    0 -0.73174051930E+02 -0.30746976292E+02  0.18055172011E+03  0.19722764021E+03  0.00000000000E+00 0. -1.
        -12    1    4    4    0    0  0.22074217008E+02  0.12081384601E+02  0.95379529062E+02  0.98643223155E+02  0.00000000000E+00 0.  1.
        -13    1    3    3    0    0 -0.72201480591E+01 -0.34815374068E+02 -0.23842610408E+01  0.35636014230E+02  0.00000000000E+00 0.  1.
         13    1    3    3    0    0  0.35603529769E+02  0.43116471316E+02  0.37571156245E+02  0.67366410119E+02  0.00000000000E+00 0. -1.
         21    1    1    2  502  501  0.22716453212E+02  0.10364494443E+02  0.44025106317E+02  0.50612942790E+02  0.00000000000E+00 0. -1.
<scales pt_clust_5="13000.00000" pt_clust_6="13000.00000" pt_clust_7="13000.00000" pt_clust_8="13000.00000" pt_clust_9="24.96918"></scales>
<clustering>
<clus scale="   24.969">  1  9  2 -1</clus>
<clus scale="   91.880">  5  6 -1 -1</clus>
<clus scale="   92.178">  7  8 -1 -1</clus>
<clus scale="   98.105">  1  5  2 -1</clus>
<clus scale="   24.969">  1  5  2 -1</clus>
</clustering>
</event>
<event>
 9    1  0.2674825E-005  0.1026229E+03  0.7546771E-02  0.1284146E+00
          1   -1    0    0  502    0  0.00000000000E+00  0.00000000000E+00  0.12385328366E+03  0.12385328366E+03  0.00000000000E+00 0. -1.
         -2   -1    0    0    0  501 -0.00000000000E+00 -0.00000000000E+00 -0.14172625441E+03  0.14172625441E+03  0.00000000000E+00 0.  1.
        -24    2    1    2    0    0  0.24289262689E+02  0.10704650302E+02 -0.60072596201E+02  0.10514985241E+03  0.82117092175E+02 0.  0.
         23    2    1    2    0    0  0.52398783229E+01 -0.44711315140E+02  0.23158441843E+02  0.11153193423E+03  0.99380586119E+02 0.  0.
         13    1    3    3    0    0 -0.19198461756E+02  0.29732912811E+02 -0.40551136313E+02  0.53823988094E+02  0.00000000000E+00 0. -1.
        -14    1    3    3    0    0  0.43487724446E+02 -0.19028262509E+02 -0.19521459888E+02  0.51325864316E+02  0.00000000000E+00 0.  1.
        -13    1    4    4    0    0 -0.19811889665E+02  0.18806567090E+02  0.32678214586E+02  0.42591826051E+02  0.00000000000E+00 0. -1.
         13    1    4    4    0    0  0.25051767988E+02 -0.63517882230E+02 -0.95197727424E+01  0.68940108176E+02  0.00000000000E+00 0.  1.
         21    1    1    2  502  501 -0.29529141012E+02  0.34006664838E+02  0.19041183600E+02  0.48897751433E+02  0.00000000000E+00 0. -1.
<scales pt_clust_5="13000.00000" pt_clust_6="13000.00000" pt_clust_7="13000.00000" pt_clust_8="13000.00000" pt_clust_9="45.03802"></scales>
<clustering>
<clus scale="   45.038">  1  9  2 -1</clus>
<clus scale="   82.117">  5  6 -1 -1</clus>
<clus scale="   86.013">  2  5  1 -1</clus>
<clus scale="   99.381">  7  8 -1 -1</clus>
<clus scale="   45.038">  1  5  2 -1</clus>
</clustering>
</event>
<event>
 9    1  0.2674825E-005  0.2253488E+03  0.7546771E-02  0.1150770E+00
          1   -1    0    0  502    0  0.00000000000E+00  0.00000000000E+00  0.25237038216E+03  0.25237038216E+03  0.00000000000E+00 0. -1.
         -2   -1    0    0    0  501 -0.00000000000E+00 -0.00000000000E+00 -0.53750636356E+03  0.53750636356E+03  0.00000000000E+00 0.  1.
        -24    2    1    2    0    0  0.42276740815E+02  0.10198003833E+03 -0.93874969994E+02  0.16561835120E+03  0.80185268163E+02 0.  0.
         23    2    1    2    0    0 -0.94065721526E+01  0.18803455345E+03  0.81631910008E+02  0.22468429876E+03  0.91508406639E+02 0.  0.
         13    1    3    3    0    0 -0.10483441576E+02  0.77468082068E+02 -0.56843210213E+02  0.96655868078E+02  0.00000000000E+00 0. -1.
        -14    1    3    3    0    0  0.52760182391E+02  0.24511956266E+02 -0.37031759781E+02  0.68962483122E+02  0.00000000000E+00 0.  1.
        -11    1    4    4    0    0 -0.18840665105E+02  0.23614000969E+02 -0.15009318543E+02  0.33732348666E+02  0.00000000000E+00 0.  1.
         11    1    4    4    0    0  0.94340929523E+01  0.16442055249E+03  0.96641228551E+02  0.19095195010E+03  0.00000000000E+00 0. -1.
         21    1    1    2  502  501 -0.32870168662E+02 -0.29001459179E+03 -0.27289292141E+03  0.39957409575E+03  0.00000000000E+00 0.  1.
<scales pt_clust_5="13000.00000" pt_clust_6="13000.00000" pt_clust_7="13000.00000" pt_clust_8="13000.00000" pt_clust_9="205.93276"></scales>
<clustering>
<clus scale="   80.185">  5  6 -1 -1</clus>
<clus scale="   91.508">  7  8 -1 -1</clus>
<clus scale="  136.444">  2  5  1 -1</clus>
<clus scale="  205.933">  2  9  1 -1</clus>
<clus scale="  225.349">  1  5  2 -1</clus>
</clustering>
</event>
<event>
 9    1  0.2674825E-005  0.1082784E+03  0.7546771E-02  0.1266565E+00
          1   -1    0    0  502    0  0.00000000000E+00  0.00000000000E+00  0.56695636701E+03  0.56695636701E+03  0.00000000000E+00 0. -1.
         -2   -1    0    0    0  501 -0.00000000000E+00 -0.00000000000E+00 -0.64078843264E+02  0.64078843264E+02  0.00000000000E+00 0.  1.
        -24    2    1    2    0    0 -0.55183556301E+02  0.13411664741E+02 -0.10728198166E+01  0.10135289038E+03  0.83941407001E+02 0.  0.
         23    2    1    2    0    0  0.62261562717E+02 -0.44968098335E+02  0.29224143956E+03  0.31551750787E+03  0.90816335062E+02 0.  0.
         11    1    3    3    0    0 -0.35505816352E+02  0.47498259798E+02  0.10724551341E+02  0.60264116024E+02  0.00000000000E+00 0. -1.
        -12    1    3    3    0    0 -0.19677739949E+02 -0.34086595057E+02 -0.11797371158E+02  0.41088774359E+02  0.00000000000E+00 0.  1.
        -13    1    4    4    0    0  0.83662831095E+02 -0.20027254011E+02  0.21538187777E+03  0.23192652604E+03  0.00000000000E+00 0. -1.
         13    1    4    4    0    0 -0.21401268378E+02 -0.24940844324E+02  0.76859561790E+02  0.83590981824E+02  0.00000000000E+00 0.  1.
         21    1    1    2  502  501 -0.70780064155E+01  0.31556433594E+02  0.21170890400E+03  0.21416481202E+03  0.00000000000E+00 0. -1.
<scales pt_clust_5="13000.00000" pt_clust_6="13000.00000" pt_clust_7="13000.00000" pt_clust_8="13000.00000" pt_clust_9="32.34048"></scales>
<clustering>
<clus scale="   32.340">  1  9  2 -1</clus>
<clus scale="   83.941">  5  6 -1 -1</clus>
<clus scale="   90.816">  7  8 -1 -1</clus>
<clus scale="  102.581">  2  5  1 -1</clus>
<clus scale="   32.340">  1  5  2 -1</clus>
</clustering>
</event>
<event>
 9    1  0.2674825E-005  0.9891757E+02  0.7546771E-02  0.1288156E+00
         -2   -1    0    0    0  501 -0.00000000000E+00  0.00000000000E+00  0.29875380082E+03  0.29875380082E+03  0.00000000000E+00 0.  1.
          1   -1    0    0  502    0  0.00000000000E+00 -0.00000000000E+00 -0.24683148813E+03  0.24683148813E+03  0.00000000000E+00 0. -1.
        -24    2    1    2    0    0  0.10067425203E+01 -0.38868515265E+02  0.27323390882E+03  0.28730472544E+03  0.79846485987E+02 0.  0.
         23    2    1    2    0    0  0.17830422293E+02  0.55486097899E+02 -0.18496480181E+03  0.21409830136E+03  0.90716446773E+02 0.  0.
         13    1    3    3    0    0 -0.24023027458E+02 -0.27760737377E+02  0.48088634255E+02  0.60500257293E+02  0.00000000000E+00 0. -1.
        -14    1    3    3    0    0  0.25029769978E+02 -0.11107777887E+02  0.22514527456E+03  0.22680446815E+03  0.00000000000E+00 0.  1.
        -13    1    4    4    0    0  0.55035930063E+02  0.30725510678E+02 -0.10363298726E+03  0.12129635878E+03  0.00000000000E+00 0.  1.
         13    1    4    4    0    0 -0.37205507771E+02  0.24760587221E+02 -0.81331814555E+02  0.92801942581E+02  0.00000000000E+00 0. -1.
         21    1    1    2  502  501 -0.18837164813E+02 -0.16617582634E+02 -0.36346794319E+02  0.44182262143E+02  0.00000000000E+00 0.  1.
<scales pt_clust_5="13000.00000" pt_clust_6="13000.00000" pt_clust_7="13000.00000" pt_clust_8="13000.00000" pt_clust_9="25.11937"></scales>
<clustering>
<clus scale="   25.119">  2  9  1 -1</clus>
<clus scale="   79.846">  5  6 -1 -1</clus>
<clus scale="   89.054">  1  5  2 -1</clus>
<clus scale="   90.716">  7  8 -1 -1</clus>
<clus scale="   25.119">  2  5  1 -1</clus>
</clustering>
</event>
<event>
 9    1  0.2674825E-005  0.1603473E+03  0.7546771E-02  0.1191910E+00
         -2   -1    0    0    0  501 -0.00000000000E+00  0.00000000000E+00  0.98008105393E+02  0.98008105393E+02  0.00000000000E+00 0.  1.
          1   -1    0    0  502    0  0.00000000000E+00 -0.00000000000E+00 -0.44775938774E+03  0.44775938774E+03  0.00000000000E+00 0. -1.
         23    2    1    2    0    0  0.59968258508E+01  0.13511446882E+03 -0.17160330489E+02  0.16690806707E+03  0.96290935737E+02 0.  0.
        -24    2    1    2    0    0 -0.33326432582E+02 -0.10865043548E+03 -0.20581807016E+03  0.24650151735E+03  0.74069911664E+02 0.  0.
         13    1    4    4    0    0 -0.48071386454E+02 -0.60609765228E+02 -0.81290036134E+02  0.11221618337E+03  0.00000000000E+00 0. -1.
        -14    1    4    4    0    0  0.14744953872E+02 -0.48040670252E+02 -0.12452803402E+03  0.13428533397E+03  0.00000000000E+00 0.  1.
        -11    1    3    3    0    0  0.28119972630E+02  0.24862978441E+02 -0.37018606645E+02  0.52718856168E+02  0.00000000000E+00 0.  1.
         11    1    3    3    0    0 -0.22123146779E+02  0.11025149038E+03  0.19858276156E+02  0.11418921090E+03  0.00000000000E+00 0. -1.
         21    1    1    2  502  501  0.27329606731E+02 -0.26464033341E+02 -0.12677288170E+03  0.13235790871E+03  0.00000000000E+00 0.  1.
<scales pt_clust_5="13000.00000" pt_clust_6="13000.00000" pt_clust_7="13000.00000" pt_clust_8="13000.00000" pt_clust_9="38.04277"></scales>
<clustering>
<clus scale="   38.043">  2  9  1 -1</clus>
<clus scale="   74.070">  5  6 -1 -1</clus>
<clus scale="   96.291">  7  8 -1 -1</clus>
<clus scale="  148.073">  2  5  1 -1</clus>
<clus scale="   38.043">  2  5  1 -1</clus>
</clustering>
</event>
<event>
 9    1  0.2674825E-005  0.1181488E+03  0.7546771E-02  0.1248236E+00
          1   -1    0    0  502    0  0.00000000000E+00  0.00000000000E+00  0.29521655042E+03  0.29521655042E+03  0.00000000000E+00 0. -1.
         -2   -1    0    0    0  501 -0.00000000000E+00 -0.00000000000E+00 -0.22170683368E+03  0.22170683368E+03  0.00000000000E+00 0.  1.
         23    2    1    2    0    0 -0.54394092180E+02 -0.52312137200E+02 -0.18681407961E+03  0.22128478959E+03  0.91499621846E+02 0.  0.
        -24    2    1    2    0    0  0.33278967104E+02  0.61523184831E+02  0.17164140226E+03  0.20401294894E+03  0.85252099331E+02 0.  0.
         13    1    4    4    0    0 -0.13091021895E+02  0.37623087007E+02  0.13369813911E+03  0.13950650140E+03  0.00000000000E+00 0. -1.
        -14    1    4    4    0    0  0.46369988999E+02  0.23900097825E+02  0.37943263152E+02  0.64506447542E+02  0.00000000000E+00 0.  1.
        -11    1    3    3    0    0 -0.15562025766E+01 -0.63164669981E+02 -0.11797578869E+03  0.13383005648E+03  0.00000000000E+00 0.  1.
         11    1    3    3    0    0 -0.52837889603E+02  0.10852532781E+02 -0.68838290921E+02  0.87454733104E+02  0.00000000000E+00 0. -1.
         21    1    1    2  502  501  0.21115125076E+02 -0.92110476313E+01  0.88682394095E+02  0.91625645579E+02  0.00000000000E+00 0. -1.
<scales pt_clust_5="13000.00000" pt_clust_6="13000.00000" pt_clust_7="13000.00000" pt_clust_8="13000.00000" pt_clust_9="23.03675"></scales>
<clustering>
<clus scale="   23.037">  1  9  2 -1</clus>
<clus scale="   85.252">  5  6 -1 -1</clus>
<clus scale="   91.500">  7  8 -1 -1</clus>
<clus scale="  113.379">  1  5  2 -1</clus>
<clus scale="   23.037">  1  5  2 -1</clus>
</clustering>
</event>
<event>
 9    1  0.2674825E-005  0.1507088E+03  0.7546771E-02  0.1201279E+00
          1   -1    0    0  502    0  0.00000000000E+00  0.00000000000E+00  0.18760256098E+03  0.18760256098E+03  0.00000000000E+00 0. -1.
         -2   -1    0    0    0  501 -0.00000000000E+00 -0.00000000000E+00 -0.19130057292E+03  0.19130057292E+03  0.00000000000E+00 0.  1.
        -24    2    1    2    0    0 -0.12685925345E+03  0.20870106769E+02 -0.86147601553E+02  0.17475185763E+03  0.81166316601E+02 0.  0.
         23    2    1    2    0    0  0.10313392076E+03  0.19830987831E+02  0.70728642656E+02  0.15560386530E+03  0.90444172378E+02 0.  0.
         13    1    3    3    0    0 -0.60981431190E+02  0.48432799475E+02 -0.61417690539E+02  0.99179653791E+02  0.00000000000E+00 0. -1.
        -14    1    3    3    0    0 -0.65877822261E+02 -0.27562692705E+02 -0.24729911015E+02  0.75572203844E+02  0.00000000000E+00 0.  1.
        -13    1    4    4    0    0  0.70271916828E+01 -0.23552970436E+02 -0.58739890758E+01  0.25271082030E+02  0.00000000000E+00 0.  1.
         13    1    4    4    0    0  0.96106729072E+02  0.43383958266E+02  0.76602631732E+02  0.13033278327E+03  0.00000000000E+00 0. -1.
         21    1    1    2  502  501  0.23725332696E+02 -0.40701094600E+02  0.11720946963E+02  0.48547410960E+02  0.00000000000E+00 0.  1.
<scales pt_clust_5="13000.00000" pt_clust_6="13000.00000" pt_clust_7="13000.00000" pt_clust_8="13000.00000" pt_clust_9="47.11126"></scales>
<clustering>
<clus scale="   47.111">  1  9  2 -1</clus>
<clus scale="   81.166">  5  6 -1 -1</clus>
<clus scale="   90.444">  7  8 -1 -1</clus>
<clus scale="  145.331">  2  5  1 -1</clus>
<clus scale="   47.111">  1  5  2 -1</clus>
</clustering>
</event>
<event>
 9    1  0.2674825E-005  0.9112461E+02  0.7546771E-02  0.1306511E+00
          1   -1    0    0  502    0  0.00000000000E+00  0.00000000000E+00  0.33942201139E+03  0.33942201139E+03  0.00000000000E+00 0. -1.
         -2   -1    0    0    0  501 -0.00000000000E+00 -0.00000000000E+00 -0.69656114279E+02  0.69656114279E+02  0.00000000000E+00 0.  1.
        -24    2    1    2    0    0  0.68633583023E+01  0.14852835140E+01 -0.28244507634E+02  0.85830987784E+02  0.80745863660E+02 0.  0.
         23    2    1    2    0    0 -0.10756491571E+02  0.18270195907E+02  0.17216265310E+03  0.19579874814E+03  0.90816675132E+02 0.  0.
         13    1    3    3    0    0 -0.30283089221E+02 -0.20766738736E+02 -0.61934086814E+01  0.37238169150E+02  0.00000000000E+00 0. -1.
        -14    1    3    3    0    0  0.37146447523E+02  0.22252022250E+02 -0.22051098953E+02  0.48592818635E+02  0.00000000000E+00 0.  1.
        -13    1    4    4    0    0 -0.67473718791E+01 -0.28471284313E+02  0.12823203752E+03  0.13152793051E+03  0.00000000000E+00 0. -1.
         13    1    4    4    0    0 -0.40091196921E+01  0.46741480220E+02  0.43930615580E+02  0.64270817632E+02  0.00000000000E+00 0.  1.
         21    1    1    2  502  501  0.38931332689E+01 -0.19755479421E+02  0.12584775165E+03  0.12744838975E+03  0.00000000000E+00 0. -1.
<scales pt_clust_5="13000.00000" pt_clust_6="13000.00000" pt_clust_7="13000.00000" pt_clust_8="13000.00000" pt_clust_9="20.13543"></scales>
<clustering>
<clus scale="   20.135">  1  9  2 -1</clus>
<clus scale="   80.746">  5  6 -1 -1</clus>
<clus scale="   81.092">  2  5  1 -1</clus>
<clus scale="   90.817">  7  8 -1 -1</clus>
<clus scale="   20.135">  1  5  2 -1</clus>
</clustering>
</event>
<event>
 9    1  0.2674825E-005  0.9525325E+02  0.7546771E-02  0.1296902E+00
         -2   -1    0    0    0  501 -0.00000000000E+00  0.00000000000E+00  0.13090469226E+04  0.13090469226E+04  0.00000000000E+00 0.  1.
          1   -1    0    0  502    0  0.00000000000E+00 -0.00000000000E+00 -0.46268449472E+02  0.46268449472E+02  0.00000000000E+00 0. -1.
        -24    2    1    2    0    0  0.55958251077E+01 -0.18772031657E+02  0.10605841731E+04  0.10639182183E+04  0.81850379176E+02 0.  0.
         23    2    1    2    0    0  0.14338645533E+02  0.40447883201E+02  0.22951592099E+03  0.25122631074E+03  0.92711774926E+02 0.  0.
         13    1    3    3    0    0 -0.78952367206E-02  0.25927971408E+02  0.15030212431E+03  0.15252209131E+03  0.00000000000E+00 0. -1.
        -14    1    3    3    0    0  0.56037203444E+01 -0.44700003065E+02  0.91028204876E+03  0.91139612697E+03  0.00000000000E+00 0.  1.
        -11    1    4    4    0    0 -0.34810762259E+02  0.15311696578E+02  0.46526359102E+02  0.60091091789E+02  0.00000000000E+00 0.  1.
         11    1    4    4    0    0  0.49149407791E+02  0.25136186622E+02  0.18298956188E+03  0.19113521895E+03  0.00000000000E+00 0. -1.
         21    1    1    2  502  501 -0.19934470640E+02 -0.21675851544E+02 -0.27321620946E+02  0.40170843046E+02  0.00000000000E+00 0. -1.
<scales pt_clust_5="13000.00000" pt_clust_6="13000.00000" pt_clust_7="13000.00000" pt_clust_8="13000.00000" pt_clust_9="29.44870"></scales>
<clustering>
<clus scale="   29.449">  2  9  1 -1</clus>
<clus scale="   81.850">  5  6 -1 -1</clus>
<clus scale="   84.718">  1  5  2 -1</clus>
<clus scale="   92.712">  7  8 -1 -1</clus>
<clus scale="   29.449">  2  5  1 -1</clus>
</clustering>
</event>
<event>
 9    1  0.2674825E-005  0.1351032E+03  0.7546771E-02  0.1223133E+00
          1   -1    0    0  502    0  0.00000000000E+00  0.00000000000E+00  0.41468531546E+03  0.41468531546E+03  0.00000000000E+00 0. -1.
         -2   -1    0    0    0  501 -0.00000000000E+00 -0.00000000000E+00 -0.92674835744E+02  0.92674835744E+02  0.00000000000E+00 0.  1.
        -24    2    1    2    0    0 -0.79785800193E+02 -0.57249152386E+02 -0.17426191039E+02  0.12688249782E+03  0.78436322953E+02 0.  0.
         23    2    1    2    0    0  0.10195754785E+03  0.40958687761E+02  0.30111668044E+03  0.33330364264E+03  0.91362504832E+02 0.  0.
         11    1    3    3    0    0 -0.71791378872E+02 -0.14067884378E+02  0.11840472862E+02  0.74108732609E+02  0.00000000000E+00 0. -1.
        -12    1    3    3    0    0 -0.79944213208E+01 -0.43181268007E+02 -0.29266663901E+02  0.52773765214E+02  0.00000000000E+00 0.  1.
        -11    1    4    4    0    0  0.38195237976E+02 -0.24538637208E+02  0.14972455887E+03  0.15645595051E+03  0.00000000000E+00 0.  1.
         11    1    4    4    0    0  0.63762309874E+02  0.65497324969E+02  0.15139212157E+03  0.17684769213E+03  0.00000000000E+00 0. -1.
         21    1    1    2  502  501 -0.22171747657E+02  0.16290464625E+02  0.38319990314E+02  0.47174010742E+02  0.00000000000E+00 0.  1.
<scales pt_clust_5="13000.00000" pt_clust_6="13000.00000" pt_clust_7="13000.00000" pt_clust_8="13000.00000" pt_clust_9="27.51301"></scales>
<clustering>
<clus scale="   27.513">  1  9  2 -1</clus>
<clus scale="   78.436">  5  6 -1 -1</clus>
<clus scale="   91.363">  7  8 -1 -1</clus>
<clus scale="  126.720">  2  5  1 -1</clus>
<clus scale="   27.513">  1  5  2 -1</clus>
</clustering>
</event>
<event>
 9    1  0.2674825E-005  0.1480840E+03  0.7546771E-02  0.1204047E+00
         -2   -1    0    0    0  501 -0.00000000000E+00  0.00000000000E+00  0.12696615509E+03  0.12696615509E+03  0.00000000000E+00 0.  1.
          1   -1    0    0  502    0  0.00000000000E+00 -0.00000000000E+00 -0.46915987642E+03  0.46915987642E+03  0.00000000000E+00 0. -1.
        -24    2    1    2    0    0 -0.95693171120E+02  0.86607947475E+02  0.15711941863E+02  0.15311523879E+03  0.80865886917E+02 0.  0.
         23    2    1    2    0    0 -0.17871408267E+01 -0.12449197583E+03 -0.17140586016E+03  0.22918893380E+03  0.87442281327E+02 0.  0.
         13    1    3    3    0    0 -0.49545810928E+01  0.55972529425E+02  0.10791526960E+02  0.57218257385E+02  0.00000000000E+00 0. -1.
        -14    1    3    3    0    0 -0.90738590027E+02  0.30635418050E+02  0.49204149027E+01  0.95896981402E+02  0.00000000000E+00 0.  1.
        -13    1    4    4    0    0 -0.11760087296E+02 -0.66920108154E+02 -0.15383966067E+03  0.16817622223E+03  0.00000000000E+00 0. -1.
         13    1    4    4    0    0  0.99729464696E+01 -0.57571867677E+02 -0.17566199485E+02  0.61012711573E+02  0.00000000000E+00 0.  1.
         21    1    1    2  502  501  0.97480311947E+02  0.37884028357E+02 -0.18649980303E+03  0.21382185892E+03  0.00000000000E+00 0.  1.
<scales pt_clust_5="13000.00000" pt_clust_6="13000.00000" pt_clust_7="13000.00000" pt_clust_8="13000.00000" pt_clust_9="104.58303"></scales>
<clustering>
<clus scale="   80.866">  5  6 -1 -1</clus>
<clus scale="   87.442">  7  8 -1 -1</clus>
<clus scale="  104.583">  2  9  1 -1</clus>
<clus scale="  144.298">  1  5  2 -1</clus>
<clus scale="  104.583">  2  5  1 -1</clus>
</clustering>
</event>
<event>
 9    1  0.2674825E-005  0.1896588E+03  0.7546771E-02  0.1159513E+00
         -4   -1    0    0    0  501 -0.00000000000E+00  0.00000000000E+00  0.68120404838E+03  0.68120404838E+03  0.00000000000E+00 0.  1.
          3   -1    0    0  502    0  0.00000000000E+00 -0.00000000000E+00 -0.74334880096E+02  0.74334880096E+02  0.00000000000E+00 0. -1.
         23    2    1    2    0    0  0.84494808723E+02 -0.12843427313E+03  0.25864607706E+03  0.31329605171E+03  0.87303422750E+02 0.  0.
        -24    2    1    2    0    0 -0.13571482000E+03  0.12721628773E+03  0.33131969781E+03  0.38829199399E+03  0.79971458679E+02 0.  0.
         11    1    4    4    0    0 -0.68154170607E+02  0.28508541322E+02  0.74175450838E+02  0.10468870716E+03  0.00000000000E+00 0. -1.
        -12    1    4    4    0    0 -0.67560649396E+02  0.98707746409E+02  0.25714424697E+03  0.28360328683E+03  0.00000000000E+00 0.  1.
        -13    1    3    3    0    0  0.27088874438E+02 -0.91888385510E+02  0.20624274734E+03  0.22740570209E+03  0.00000000000E+00 0.  1.
         13    1    3    3    0    0  0.57405934285E+02 -0.36545887616E+02  0.52403329714E+02  0.85890349620E+02  0.00000000000E+00 0. -1.
         21    1    1    2  502  501  0.51220011280E+02  0.12179853946E+01  0.16903393414E+02  0.53950882782E+02  0.00000000000E+00 0.  1.
<scales pt_clust_5="13000.00000" pt_clust_6="13000.00000" pt_clust_7="13000.00000" pt_clust_8="13000.00000" pt_clust_9="51.23449"></scales>
<clustering>
<clus scale="   51.234">  2  9  1 -1</clus>
<clus scale="   79.971">  5  6 -1 -1</clus>
<clus scale="   87.303">  7  8 -1 -1</clus>
<clus scale="  186.397">  2  5  1 -1</clus>
<clus scale="   51.234">  2  5  1 -1</clus>
</clustering>
</event>
<event>
 9    1  0.2674825E-005  0.1081620E+03  0.7546771E-02  0.1265918E+00
         -2   -1    0    0    0  501 -0.00000000000E+00  0.00000000000E+00  0.18457736798E+03  0.18457736798E+03  0.00000000000E+00 0.  1.
          1   -1    0    0  502    0  0.00000000000E+00 -0.00000000000E+00 -0.10006413917E+03  0.10006413917E+03  0.00000000000E+00 0. -1.
        -24    2    1    2    0    0  0.48297456082E+02 -0.42217749923E+02  0.11470651492E+03  0.15716132251E+03  0.86180705816E+02 0.  0.
         23    2    1    2    0    0 -0.28697536629E+02  0.29577257165E+02 -0.29736716939E+02  0.10415321837E+03  0.90913463322E+02 0.  0.
         11    1    3    3    0    0 -0.21014489325E+01  0.23195699965E+02  0.37314646445E+02  0.43986809657E+02  0.00000000000E+00 0. -1.
        -12    1    3    3    0    0  0.50398905015E+02 -0.65413449888E+02  0.77391868472E+02  0.11317451285E+03  0.00000000000E+00 0.  1.
        -13    1    4    4    0    0 -0.62519424200E+01  0.55701482185E+02 -0.39242569618E+02  0.68423104079E+02  0.00000000000E+00 0. -1.
         13    1    4    4    0    0 -0.22445594209E+02 -0.26124225020E+02  0.95058526795E+01  0.35730114294E+02  0.00000000000E+00 0.  1.
         21    1    1    2  502  501 -0.19599919453E+02  0.12640492758E+02 -0.45656916851E+00  0.23326966265E+02  0.00000000000E+00 0. -1.
<scales pt_clust_5="13000.00000" pt_clust_6="13000.00000" pt_clust_7="13000.00000" pt_clust_8="13000.00000" pt_clust_9="23.32250"></scales>
<clustering>
<clus scale="   23.322">  2  9  1 -1</clus>
<clus scale="   86.181">  5  6 -1 -1</clus>
<clus scale="   90.913">  7  8 -1 -1</clus>
<clus scale="  104.216">  1  5  2 -1</clus>
<clus scale="   23.322">  2  5  1 -1</clus>
</clustering>
</event>
<event>
 9    1  0.2674825E-005  0.9882249E+02  0.7546771E-02  0.1290104E+00
          3   -1    0    0  502    0  0.00000000000E+00  0.00000000000E+00  0.95210785137E+02  0.95210785137E+02  0.00000000000E+00 0. -1.
         -4   -1    0    0    0  501 -0.00000000000E+00 -0.00000000000E+00 -0.30162282164E+03  0.30162282164E+03  0.00000000000E+00 0.  1.
         23    2    1    2    0    0 -0.97979302349E+01  0.24811716279E+02 -0.21589554866E+03  0.23691281612E+03  0.93835887628E+02 0.  0.
        -24    2    1    2    0    0 -0.15138446307E+02 -0.49420126838E+02 -0.36369225804E+02  0.10221576207E+03  0.80335670392E+02 0.  0.
         13    1    4    4    0    0  0.40892283209E+01 -0.64967345502E+02 -0.41176559911E+02  0.77025884324E+02  0.00000000000E+00 0. -1.
        -14    1    4    4    0    0 -0.19227674628E+02  0.15547218664E+02  0.48073341068E+01  0.25189877749E+02  0.00000000000E+00 0.  1.
        -13    1    3    3    0    0 -0.17271204943E+02  0.59105585540E+02 -0.12172174655E+03  0.13641095390E+03  0.00000000000E+00 0.  1.
         13    1    3    3    0    0  0.74732747079E+01 -0.34293869261E+02 -0.94173802116E+02  0.10050186222E+03  0.00000000000E+00 0. -1.
         21    1    1    2  502  501  0.24936376542E+02  0.24608410559E+02  0.45852737964E+02  0.57705028586E+02  0.00000000000E+00 0. -1.
<scales pt_clust_5="13000.00000" pt_clust_6="13000.00000" pt_clust_7="13000.00000" pt_clust_8="13000.00000" pt_clust_9="35.03422"></scales>
<clustering>
<clus scale="   35.034">  1  9  2 -1</clus>
<clus scale="   80.336">  5  6 -1 -1</clus>
<clus scale="   86.108">  1  5  2 -1</clus>
<clus scale="   93.836">  7  8 -1 -1</clus>
<clus scale="   35.034">  1  5  2 -1</clus>
</clustering>
</event>
<event>
 9    1  0.2674825E-005  0.9650902E+02  0.7546771E-02  0.1294041E+00
         -2   -1    0    0    0  501 -0.00000000000E+00  0.00000000000E+00  0.15057470959E+03  0.15057470959E+03  0.00000000000E+00 0.  1.
          1   -1    0    0  502    0  0.00000000000E+00 -0.00000000000E+00 -0.12620316900E+03  0.12620316900E+03  0.00000000000E+00 0. -1.
        -24    2    1    2    0    0  0.13154355100E+02 -0.22071072084E+02  0.73019721749E+02  0.11028449687E+03  0.78553301675E+02 0.  0.
         23    2    1    2    0    0 -0.24092755802E+02  0.60247083626E+02 -0.10579638296E+02  0.11148183363E+03  0.90033874268E+02 0.  0.
         13    1    3    3    0    0  0.19092000317E+02 -0.22666972786E+02 -0.66652962095E+01  0.30376344496E+02  0.00000000000E+00 0. -1.
        -14    1    3    3    0    0 -0.59376452172E+01  0.59590070192E+00  0.79685017958E+02  0.79908152371E+02  0.00000000000E+00 0.  1.
        -11    1    4    4    0    0 -0.35020840153E+02 -0.12655445963E+02 -0.24494871821E+01  0.37317818063E+02  0.00000000000E+00 0.  1.
         11    1    4    4    0    0  0.10928084351E+02  0.72902529589E+02 -0.81301511144E+01  0.74164015569E+02  0.00000000000E+00 0. -1.
         21    1    1    2  502  501  0.10938400702E+02 -0.38176011542E+02 -0.38068542861E+02  0.55011548085E+02  0.00000000000E+00 0. -1.
<scales pt_clust_5="13000.00000" pt_clust_6="13000.00000" pt_clust_7="13000.00000" pt_clust_8="13000.00000" pt_clust_9="39.71217"></scales>
<clustering>
<clus scale="   39.712">  2  9  1 -1</clus>
<clus scale="   78.553">  5  6 -1 -1</clus>
<clus scale="   85.898">  1  5  2 -1</clus>
<clus scale="   90.034">  7  8 -1 -1</clus>
<clus scale="   39.712">  2  5  1 -1</clus>
</clustering>
</event>
<event>
 9    1  0.2674825E-005  0.9640085E+02  0.7546771E-02  0.1292098E+00
          1   -1    0    0  502    0  0.00000000000E+00  0.00000000000E+00  0.54496020448E+03  0.54496020448E+03  0.00000000000E+00 0. -1.
         -2   -1    0    0    0  501 -0.00000000000E+00 -0.00000000000E+00 -0.33689883221E+02  0.33689883221E+02  0.00000000000E+00 0.  1.
        -24    2    1    2    0    0  0.43653827608E+02 -0.10851319382E+02  0.56439332428E+02  0.10805176487E+03  0.80413791416E+02 0.  0.
         23    2    1    2    0    0 -0.16481091954E+02  0.36599470939E+01  0.29648416905E+03  0.30977609572E+03  0.88166577428E+02 0.  0.
         11    1    3    3    0    0  0.49558469966E+02 -0.23982959703E+01  0.73165719606E+02  0.88402580813E+02  0.00000000000E+00 0. -1.
        -12    1    3    3    0    0 -0.59046423582E+01 -0.84530234121E+01 -0.16726387178E+02  0.19649184059E+02  0.00000000000E+00 0.  1.
        -11    1    4    4    0    0 -0.31176469478E+02  0.38262751132E+02  0.20523092375E+03  0.21108231199E+03  0.00000000000E+00 0. -1.
         11    1    4    4    0    0  0.14695377524E+02 -0.34602804038E+02  0.91253245308E+02  0.98693783730E+02  0.00000000000E+00 0.  1.
         21    1    1    2  502  501 -0.27172735654E+02  0.71913722884E+01  0.15834681978E+03  0.16082222711E+03  0.00000000000E+00 0. -1.
<scales pt_clust_5="13000.00000" pt_clust_6="13000.00000" pt_clust_7="13000.00000" pt_clust_8="13000.00000" pt_clust_9="28.10824"></scales>
<clustering>
<clus scale="   28.108">  1  9  2 -1</clus>
<clus scale="   80.414">  5  6 -1 -1</clus>
<clus scale="   88.167">  7  8 -1 -1</clus>
<clus scale="   89.365">  2  5  1 -1</clus>
<clus scale="   28.108">  1  5  2 -1</clus>
</clustering>
</event>
<event>
 9    1  0.2674825E-005  0.1086457E+03  0.7546771E-02  0.1267318E+00
          1   -1    0    0  502    0  0.00000000000E+00  0.00000000000E+00  0.23131416621E+03  0.23131416621E+03  0.00000000000E+00 0. -1.
         -2   -1    0    0    0  501 -0.00000000000E+00 -0.00000000000E+00 -0.18689874387E+03  0.18689874387E+03  0.00000000000E+00 0.  1.
        -24    2    1    2    0    0 -0.67045642640E+00  0.69404589896E+02 -0.13533239390E+03  0.17189223710E+03  0.80091433552E+02 0.  0.
         23    2    1    2    0    0  0.27741151112E+02 -0.11555932296E+02  0.66552425818E+02  0.11634957576E+03  0.90580833303E+02 0.  0.
         11    1    3    3    0    0  0.17016378647E+02  0.68934310370E+02 -0.55494526704E+02  0.90117361161E+02  0.00000000000E+00 0. -1.
        -12    1    3    3    0    0 -0.17686835073E+02  0.47027952650E+00 -0.79837867192E+02  0.81774875944E+02  0.00000000000E+00 0.  1.
        -13    1    4    4    0    0 -0.22186367481E+02 -0.15950079881E+01 -0.10020401363E+02  0.24396462775E+02  0.00000000000E+00 0.  1.
         13    1    4    4    0    0  0.49927518593E+02 -0.99609243081E+01  0.76572827180E+02  0.91953112988E+02  0.00000000000E+00 0. -1.
         21    1    1    2  502  501 -0.27070694686E+02 -0.57848657600E+02  0.11319539043E+03  0.12997109721E+03  0.00000000000E+00 0. -1.
<scales pt_clust_5="13000.00000" pt_clust_6="13000.00000" pt_clust_7="13000.00000" pt_clust_8="13000.00000" pt_clust_9="63.86932"></scales>
<clustering>
<clus scale="   63.869">  1  9  2 -1</clus>
<clus scale="   80.091">  5  6 -1 -1</clus>
<clus scale="   90.581">  7  8 -1 -1</clus>
<clus scale="  100.068">  2  5  1 -1</clus>
<clus scale="   63.869">  1  5  2 -1</clus>
</clustering>
</event>
<event>
 9    1  0.2674825E-005  0.1124592E+03  0.7546771E-02  0.1260146E+00
          1   -1    0    0  502    0  0.00000000000E+00  0.00000000000E+00  0.80617643334E+02  0.80617643334E+02  0.00000000000E+00 0. -1.
         -2   -1    0    0    0  501 -0.00000000000E+00 -0.00000000000E+00 -0.34649305994E+03  0.34649305994E+03  0.00000000000E+00 0.  1.
         23    2    1    2    0    0 -0.35000435154E+02 -0.65020448764E+02 -0.24296858107E+03  0.26990592755E+03  0.91448286582E+02 0.  0.
        -24    2    1    2    0    0  0.38524930871E+01  0.64903247018E+02  0.18730490384E+02  0.10520597823E+03  0.80561736632E+02 0.  0.
         13    1    4    4    0    0  0.95029805347E+01  0.70075597122E+02 -0.13571998780E+02  0.72007604473E+02  0.00000000000E+00 0. -1.
        -14    1    4    4    0    0 -0.56504874476E+01 -0.51723501043E+01  0.32302489164E+02  0.33198373759E+02  0.00000000000E+00 0.  1.
        -13    1    3    3    0    0 -0.59384545909E+02 -0.31822149731E+02 -0.96057914416E+02  0.11732986162E+03  0.00000000000E+00 0. -1.
         13    1    3    3    0    0  0.24384110755E+02 -0.33198299033E+02 -0.14691066666E+03  0.15257606593E+03  0.00000000000E+00 0.  1.
         21    1    1    2  502  501  0.31147942067E+02  0.11720174618E+00 -0.41637325914E+02  0.51998797491E+02  0.00000000000E+00 0.  1.
<scales pt_clust_5="13000.00000" pt_clust_6="13000.00000" pt_clust_7="13000.00000" pt_clust_8="13000.00000" pt_clust_9="31.14816"></scales>
<clustering>
<clus scale="   31.148">  2  9  1 -1</clus>
<clus scale="   80.562">  5  6 -1 -1</clus>
<clus scale="   91.448">  7  8 -1 -1</clus>
<clus scale="  103.800">  1  5  2 -1</clus>
<clus scale="  103.800">  1  5  2 -1</clus>
</clustering>
</event>
<event>
 9    1  0.2674825E-005  0.1004510E+03  0.7546771E-02  0.1287492E+00
          1   -1    0    0  502    0  0.00000000000E+00  0.00000000000E+00  0.24228898979E+03  0.24228898979E+03  0.00000000000E+00 0. -1.
         -2   -1    0    0    0  501 -0.00000000000E+00 -0.00000000000E+00 -0.88988198102E+02  0.88988198102E+02  0.00000000000E+00 0.  1.
         23    2    1    2    0    0  0.33561065444E+02  0.90318016321E+01 -0.38969734683E+02  0.10888432416E+03  0.95547042200E+02 0.  0.
        -24    2    1    2    0    0 -0.95361010787E+01 -0.78275279347E+01  0.17446014245E+03  0.19246196058E+03  0.80330925232E+02 0.  0.
         13    1    4    4    0    0  0.92693683960E+01 -0.41402079608E+02  0.10052333143E+03  0.10911000664E+03  0.00000000000E+00 0. -1.
        -14    1    4    4    0    0 -0.18805469475E+02  0.33574551673E+02  0.73936811021E+02  0.83351953944E+02  0.00000000000E+00 0.  1.
        -13    1    3    3    0    0  0.95693308047E+01  0.45470121721E+02 -0.45188445161E+02  0.64815890316E+02  0.00000000000E+00 0.  1.
         13    1    3    3    0    0  0.23991734639E+02 -0.36438320089E+02  0.62187104785E+01  0.44068433849E+02  0.00000000000E+00 0. -1.
         21    1    1    2  502  501 -0.24024964365E+02 -0.12042736974E+01  0.17810383919E+02  0.29930903147E+02  0.00000000000E+00 0. -1.
<scales pt_clust_5="13000.00000" pt_clust_6="13000.00000" pt_clust_7="13000.00000" pt_clust_8="13000.00000" pt_clust_9="24.05513"></scales>
<clustering>
<clus scale="   24.055">  1  9  2 -1</clus>
<clus scale="   80.331">  5  6 -1 -1</clus>
<clus scale="   86.106">  1  5  2 -1</clus>
<clus scale="   95.547">  7  8 -1 -1</clus>
<clus scale="   24.055">  1  5  2 -1</clus>
</clustering>
</event>
<event>
 9    1  0.2674825E-005  0.1079865E+03  0.7546771E-02  0.1269278E+00
          3   -1    0    0  502    0  0.00000000000E+00  0.00000000000E+00  0.29071199702E+03  0.29071199702E+03  0.00000000000E+00 0. -1.
         -4   -1    0    0    0  501 -0.00000000000E+00 -0.00000000000E+00 -0.22720477872E+03  0.22720477872E+03  0.00000000000E+00 0.  1.
         23    2    1    2    0    0  0.54101490848E+02 -0.90216465169E+01 -0.16786945336E+03  0.19921914257E+03  0.92194099478E+02 0.  0.
        -24    2    1    2    0    0 -0.43119068250E+02  0.36758662850E+02  0.25961280117E+03  0.27762167071E+03  0.80402314480E+02 0.  0.
         11    1    4    4    0    0 -0.10227794835E+02 -0.24144524603E+02  0.10495954035E+03  0.10818535467E+03  0.00000000000E+00 0. -1.
        -12    1    4    4    0    0 -0.32891273414E+02  0.60903187453E+02  0.15465326082E+03  0.16943631604E+03  0.00000000000E+00 0.  1.
        -13    1    3    3    0    0  0.55449193349E+02  0.24925987772E+02 -0.57277286706E+02  0.83526076658E+02  0.00000000000E+00 0.  1.
         13    1    3    3    0    0 -0.13477025002E+01 -0.33947634289E+02 -0.11059216665E+03  0.11569306591E+03  0.00000000000E+00 0. -1.
         21    1    1    2  502  501 -0.10982422599E+02 -0.27737016333E+02 -0.28236129520E+02  0.41075962454E+02  0.00000000000E+00 0. -1.
<scales pt_clust_5="13000.00000" pt_clust_6="13000.00000" pt_clust_7="13000.00000" pt_clust_8="13000.00000" pt_clust_9="29.83212"></scales>
<clustering>
<clus scale="   29.832">  2  9  1 -1</clus>
<clus scale="   80.402">  5  6 -1 -1</clus>
<clus scale="   92.194">  7  8 -1 -1</clus>
<clus scale="   98.111">  1  5  2 -1</clus>
<clus scale="   98.111">  1  5  2 -1</clus>
</clustering>
</event>
<event>
 9    1  0.2674825E-005  0.2464793E+03  0.7546771E-02  0.1116524E+00
         -2   -1    0    0    0  501 -0.00000000000E+00  0.00000000000E+00  0.20718509206E+03  0.20718509206E+03  0.00000000000E+00 0.  1.
          1   -1    0    0  502    0  0.00000000000E+00 -0.00000000000E+00 -0.10498037774E+04  0.10498037774E+04  0.00000000000E+00 0. -1.
        -24    2    1    2    0    0  0.22529278221E+03  0.29635924504E+01  0.93917146505E+02  0.25731885479E+03  0.81406031875E+02 0.  0.
         23    2    1    2    0    0 -0.23157756513E+03 -0.57265024634E+02 -0.52872167508E+03  0.58820855779E+03  0.97648584439E+02 0.  0.
         13    1    3    3    0    0  0.14458712506E+03  0.31656793871E+02  0.31479127002E+02  0.15132258512E+03  0.00000000000E+00 0. -1.
        -14    1    3    3    0    0  0.80705657155E+02 -0.28693201420E+02  0.62438019503E+02  0.10599626967E+03  0.00000000000E+00 0.  1.
        -13    1    4    4    0    0 -0.32694381251E+02 -0.39446181743E+02 -0.61097822693E+02  0.79736238671E+02  0.00000000000E+00 0.  1.
         13    1    4    4    0    0 -0.19888318388E+03 -0.17818842891E+02 -0.46762385239E+03  0.50847231912E+03  0.00000000000E+00 0. -1.
         21    1    1    2  502  501  0.62847829171E+01  0.54301432184E+02 -0.40781415682E+03  0.41146145692E+03  0.00000000000E+00 0. -1.
<scales pt_clust_5="13000.00000" pt_clust_6="13000.00000" pt_clust_7="13000.00000" pt_clust_8="13000.00000" pt_clust_9="54.66392"></scales>
<clustering>
<clus scale="   54.664">  2  9  1 -1</clus>
<clus scale="   81.406">  5  6 -1 -1</clus>
<clus scale="   97.649">  7  8 -1 -1</clus>
<clus scale="  240.507">  1  5  2 -1</clus>
<clus scale="   54.664">  2  5  1 -1</clus>
</clustering>
</event>
<event>
 9    1  0.2674825E-005  0.9029880E+02  0.7546771E-02  0.1304368E+00
          1   -1    0    0  502    0  0.00000000000E+00  0.00000000000E+00  0.15610093979E+03  0.15610093979E+03  0.00000000000E+00 0. -1.
         -2   -1    0    0    0  501 -0.00000000000E+00 -0.00000000000E+00 -0.10493815229E+03  0.10493815229E+03  0.00000000000E+00 0.  1.
        -24    2    1    2    0    0 -0.15665980479E+02  0.43991615057E+02 -0.44702599559E+02  0.10329496045E+03  0.80565757658E+02 0.  0.
         23    2    1    2    0    0 -0.21516494409E+02 -0.28519361438E+02  0.71909142830E+02  0.11088446125E+03  0.76473037188E+02 0.  0.
         11    1    3    3    0    0 -0.28506496673E+01  0.47813502288E+02  0.83167411745E+01  0.48615073674E+02  0.00000000000E+00 0. -1.
        -12    1    3    3    0    0 -0.12815330812E+02 -0.38218872314E+01 -0.53019340734E+02  0.54679886774E+02  0.00000000000E+00 0.  1.
        -11    1    4    4    0    0 -0.74784936951E+01 -0.53991555478E+02  0.39350128240E+02  0.67226843771E+02  0.00000000000E+00 0. -1.
         11    1    4    4    0    0 -0.14038000714E+02  0.25472194040E+02  0.32559014590E+02  0.43657617484E+02  0.00000000000E+00 0.  1.
         21    1    1    2  502  501  0.37182474888E+02 -0.15472253619E+02  0.23956244229E+02  0.46859670383E+02  0.00000000000E+00 0. -1.
<scales pt_clust_5="13000.00000" pt_clust_6="13000.00000" pt_clust_7="13000.00000" pt_clust_8="13000.00000" pt_clust_9="40.27316"></scales>
<clustering>
<clus scale="   40.273">  1  9  2 -1</clus>
<clus scale="   76.473">  7  8 -1 -1</clus>
<clus scale="   80.566">  5  6 -1 -1</clus>
<clus scale="   86.667">  1  7  2 -1</clus>
<clus scale="   40.273">  1  5  2 -1</clus>
</clustering>
</event>
<event>
 9    1  0.2674825E-005  0.1134431E+03  0.7546771E-02  0.1258800E+00
          3   -1    0    0  502    0  0.00000000000E+00  0.00000000000E+00  0.37402490428E+02  0.37402490428E+02  0.00000000000E+00 0. -1.
         -4   -1    0    0    0  501 -0.00000000000E+00 -0.00000000000E+00 -0.51442820589E+03  0.51442820589E+03  0.00000000000E+00 0.  1.
         23    2    1    2    0    0  0.46397454587E+02 -0.53278583502E+02 -0.36612376442E+03  0.38388460319E+03  0.91265801078E+02 0.  0.
        -24    2    1    2    0    0 -0.21439269532E+02  0.58395177943E+02 -0.90948922558E+02  0.13558540887E+03  0.79006692739E+02 0.  0.
         13    1    4    4    0    0  0.15656969647E+02  0.46335573887E+02 -0.16643482608E+02  0.51663639238E+02  0.00000000000E+00 0. -1.
        -14    1    4    4    0    0 -0.37096239179E+02  0.12059604056E+02 -0.74305439950E+02  0.83921769627E+02  0.00000000000E+00 0.  1.
        -13    1    3    3    0    0 -0.26149828430E+02 -0.28637358204E+02 -0.11989879417E+03  0.12601441447E+03  0.00000000000E+00 0.  1.
         13    1    3    3    0    0  0.72547283017E+02 -0.24641225299E+02 -0.24622497025E+03  0.25787018872E+03  0.00000000000E+00 0. -1.
         21    1    1    2  502  501 -0.24958185055E+02 -0.51165944408E+01 -0.19953028485E+02  0.32360684258E+02  0.00000000000E+00 0.  1.
<scales pt_clust_5="13000.00000" pt_clust_6="13000.00000" pt_clust_7="13000.00000" pt_clust_8="13000.00000" pt_clust_9="25.47726"></scales>
<clustering>
<clus scale="   25.477">  1  9  2 -1</clus>
<clus scale="   79.007">  5  6 -1 -1</clus>
<clus scale="   91.266">  7  8 -1 -1</clus>
<clus scale="  103.836">  1  5  2 -1</clus>
<clus scale="   25.477">  1  5  2 -1</clus>
</clustering>
</event>
<event>
 9    1  0.2674825E-005  0.1948656E+03  0.7546771E-02  0.1155876E+00
          1   -1    0    0  502    0  0.00000000000E+00  0.00000000000E+00  0.31913019098E+03  0.31913019098E+03  0.00000000000E+00 0. -1.
         -2   -1    0    0    0  501 -0.00000000000E+00 -0.00000000000E+00 -0.45584285801E+03  0.45584285801E+03  0.00000000000E+00 0.  1.
        -24    2    1    2    0    0  0.15026286602E+03 -0.17727047656E+01 -0.18187960504E+03  0.24898632981E+03  0.79573427214E+02 0.  0.
         23    2    1    2    0    0 -0.19572234740E+03  0.63773760220E+02 -0.17878861852E+03  0.28920245739E+03  0.96428011914E+02 0.  0.
         13    1    3    3    0    0  0.47493759864E+02  0.25980451765E+02 -0.25567275777E+02  0.59869246618E+02  0.00000000000E+00 0. -1.
        -14    1    3    3    0    0  0.10276910616E+03 -0.27753156531E+02 -0.15631232926E+03  0.18911708320E+03  0.00000000000E+00 0.  1.
        -13    1    4    4    0    0 -0.10731932118E+03  0.20820833527E+02 -0.34529837985E+02  0.11464402958E+03  0.00000000000E+00 0. -1.
         13    1    4    4    0    0 -0.88403026224E+02  0.42952926694E+02 -0.14425878054E+03  0.17455842781E+03  0.00000000000E+00 0.  1.
         21    1    1    2  502  501  0.45459481382E+02 -0.62001055455E+02  0.22395555653E+03  0.23678426178E+03  0.00000000000E+00 0. -1.
<scales pt_clust_5="13000.00000" pt_clust_6="13000.00000" pt_clust_7="13000.00000" pt_clust_8="13000.00000" pt_clust_9="76.88105"></scales>
<clustering>
<clus scale="   76.881">  1  9  2 -1</clus>
<clus scale="   79.573">  5  6 -1 -1</clus>
<clus scale="   96.428">  7  8 -1 -1</clus>
<clus scale="  187.099">  2  5  1 -1</clus>
<clus scale="   76.881">  1  5  2 -1</clus>
</clustering>
</event>
<event>
 9    1  0.2674825E-005  0.9557973E+02  0.7546771E-02  0.1295599E+00
         -2   -1    0    0    0  501 -0.00000000000E+00  0.00000000000E+00  0.10347954290E+03  0.10347954290E+03  0.00000000000E+00 0.  1.
          1   -1    0    0  502    0  0.00000000000E+00 -0.00000000000E+00 -0.21502103516E+03  0.21502103516E+03  0.00000000000E+00 0. -1.
        -24    2    1    2    0    0  0.29343938647E+02  0.23635983694E+01  0.39701552275E+02  0.94907188063E+02  0.81021649948E+02 0.  0.
         23    2    1    2    0    0 -0.19312565493E+02  0.53233773800E+02 -0.10946172129E+03  0.15332693134E+03  0.91216608067E+02 0.  0.
         11    1    3    3    0    0  0.39606124440E+02  0.34269629015E+02  0.20227462757E+02  0.56144481612E+02  0.00000000000E+00 0. -1.
        -12    1    3    3    0    0 -0.10262185793E+02 -0.31906030646E+02  0.19474089519E+02  0.38762706451E+02  0.00000000000E+00 0.  1.
        -13    1    4    4    0    0 -0.38666231969E+02 -0.93705890300E+01 -0.56341099208E+02  0.68972493745E+02  0.00000000000E+00 0. -1.
         13    1    4    4    0    0  0.19353666476E+02  0.62604362830E+02 -0.53120622079E+02  0.84354437592E+02  0.00000000000E+00 0.  1.
         21    1    1    2  502  501 -0.10031373154E+02 -0.55597372170E+02 -0.41781323253E+02  0.70266458658E+02  0.00000000000E+00 0.  1.
<scales pt_clust_5="13000.00000" pt_clust_6="13000.00000" pt_clust_7="13000.00000" pt_clust_8="13000.00000" pt_clust_9="56.49510"></scales>
<clustering>
<clus scale="   56.495">  2  9  1 -1</clus>
<clus scale="   81.022">  5  6 -1 -1</clus>
<clus scale="   85.904">  1  5  2 -1</clus>
<clus scale="   91.217">  7  8 -1 -1</clus>
<clus scale="   56.495">  2  5  1 -1</clus>
</clustering>
</event>
<event>
 9    1  0.2674825E-005  0.1561209E+03  0.7546771E-02  0.1194764E+00
         -2   -1    0    0    0  501 -0.00000000000E+00  0.00000000000E+00  0.19355101338E+03  0.19355101338E+03  0.00000000000E+00 0.  1.
          1   -1    0    0  502    0  0.00000000000E+00 -0.00000000000E+00 -0.23745016100E+03  0.23745016100E+03  0.00000000000E+00 0. -1.
         23    2    1    2    0    0 -0.11166627549E+03 -0.57637087809E+02  0.85346807099E+02  0.17659279289E+03  0.90053017973E+02 0.  0.
        -24    2    1    2    0    0  0.91189936150E+02  0.91518005951E+02 -0.14654894138E+03  0.21120432573E+03  0.80246651763E+02 0.  0.
         11    1    4    4    0    0  0.48265243611E+02  0.23171049210E+02 -0.11054867146E+03  0.12283094083E+03  0.00000000000E+00 0. -1.
        -12    1    4    4    0    0  0.42924692539E+02  0.68346956742E+02 -0.36000269922E+02  0.88373384907E+02  0.00000000000E+00 0.  1.
        -11    1    3    3    0    0 -0.10136504373E+03 -0.58094017342E+01  0.51559760587E+02  0.11387286837E+03  0.00000000000E+00 0.  1.
         11    1    3    3    0    0 -0.10301231755E+02 -0.51827686075E+02  0.33787046513E+02  0.62719924518E+02  0.00000000000E+00 0. -1.
         21    1    1    2  502  501  0.20476339336E+02 -0.33880918142E+02  0.17302986666E+02  0.43204055762E+02  0.00000000000E+00 0. -1.
<scales pt_clust_5="13000.00000" pt_clust_6="13000.00000" pt_clust_7="13000.00000" pt_clust_8="13000.00000" pt_clust_9="39.58784"></scales>
<clustering>
<clus scale="   39.588">  1  9  2 -1</clus>
<clus scale="   80.247">  5  6 -1 -1</clus>
<clus scale="   90.053">  7  8 -1 -1</clus>
<clus scale="  150.678">  2  5  1 -1</clus>
<clus scale="  150.678">  2  5  1 -1</clus>
</clustering>
</event>
<event>
 9    1  0.2674825E-005  0.2853753E+03  0.7546771E-02  0.1093136E+00
         -2   -1    0    0    0  501 -0.00000000000E+00  0.00000000000E+00  0.24004171572E+03  0.24004171572E+03  0.00000000000E+00 0.  1.
          1   -1    0    0  502    0  0.00000000000E+00 -0.00000000000E+00 -0.39690033379E+03  0.39690033379E+03  0.00000000000E+00 0. -1.
        -24    2    1    2    0    0 -0.62775646121E+02  0.26343531607E+03 -0.30339266742E+02  0.28404497232E+03  0.80138178775E+02 0.  0.
         23    2    1    2    0    0  0.10050275888E+03 -0.25405918489E+03 -0.94221125182E+02  0.30235578432E+03  0.88851144675E+02 0.  0.
         13    1    3    3    0    0  0.15647643022E+02  0.98838584488E+02 -0.12587752604E+02  0.10085814807E+03  0.00000000000E+00 0. -1.
        -14    1    3    3    0    0 -0.78423289143E+02  0.16459673158E+03 -0.17751514138E+02  0.18318682426E+03  0.00000000000E+00 0.  1.
        -13    1    4    4    0    0  0.80135269711E+02 -0.14791536478E+03 -0.97095377896E+02  0.19423730074E+03  0.00000000000E+00 0.  1.
         13    1    4    4    0    0  0.20367489173E+02 -0.10614382011E+03  0.28742527147E+01  0.10811848358E+03  0.00000000000E+00 0. -1.
         21    1    1    2  502  501 -0.37727112763E+02 -0.93761311825E+01 -0.32298226141E+02  0.50541292873E+02  0.00000000000E+00 0. -1.
<scales pt_clust_5="13000.00000" pt_clust_6="13000.00000" pt_clust_7="13000.00000" pt_clust_8="13000.00000" pt_clust_9="38.87476"></scales>
<clustering>
<clus scale="   38.875">  2  9  1 -1</clus>
<clus scale="   80.138">  5  6 -1 -1</clus>
<clus scale="   88.851">  7  8 -1 -1</clus>
<clus scale="  282.784">  1  5  2 -1</clus>
<clus scale="   38.875">  2  5  1 -1</clus>
</clustering>
</event>
<event>
 9    1  0.2674825E-005  0.9376925E+02  0.7546771E-02  0.1299401E+00
          1   -1    0    0  502    0  0.00000000000E+00  0.00000000000E+00  0.10909945236E+03  0.10909945236E+03  0.00000000000E+00 0. -1.
         -2   -1    0    0    0  501 -0.00000000000E+00 -0.00000000000E+00 -0.15401489550E+03  0.15401489550E+03  0.00000000000E+00 0.  1.
        -24    2    1    2    0    0 -0.59897634472E+01 -0.18151487540E+02 -0.94304621273E+02  0.12501323607E+03  0.79809735201E+02 0.  0.
         23    2    1    2    0    0 -0.16026072925E+02  0.28025939900E+02  0.59381621687E+02  0.11198500969E+03  0.89287048784E+02 0.  0.
         11    1    3    3    0    0 -0.41795748452E+02 -0.59368905718E+01 -0.35847564737E+02  0.55382119460E+02  0.00000000000E+00 0. -1.
        -12    1    3    3    0    0  0.35805985005E+02 -0.12214596968E+02 -0.58457056536E+02  0.69631116608E+02  0.00000000000E+00 0.  1.
        -13    1    4    4    0    0  0.11683674101E+02  0.24512623856E+02 -0.16053293118E+02  0.31544970894E+02  0.00000000000E+00 0.  1.
         13    1    4    4    0    0 -0.27709747026E+02  0.35133160444E+01  0.75434914805E+02  0.80440038796E+02  0.00000000000E+00 0. -1.
         21    1    1    2  502  501  0.22015836372E+02 -0.98744523606E+01 -0.99924435572E+01  0.26116102099E+02  0.00000000000E+00 0. -1.
<scales pt_clust_5="13000.00000" pt_clust_6="13000.00000" pt_clust_7="13000.00000" pt_clust_8="13000.00000" pt_clust_9="24.12886"></scales>
<clustering>
<clus scale="   24.129">  2  9  1 -1</clus>
<clus scale="   79.810">  5  6 -1 -1</clus>
<clus scale="   84.794">  2  5  1 -1</clus>
<clus scale="   89.287">  7  8 -1 -1</clus>
<clus scale="   93.769">  1  5  2 -1</clus>
</clustering>
</event>
<event>
 9    1  0.2674825E-005  0.1292321E+03  0.7546771E-02  0.1240612E+00
          1   -1    0    0  502    0  0.00000000000E+00  0.00000000000E+00  0.28900237870E+03  0.28900237870E+03  0.00000000000E+00 0. -1.
         -2   -1    0    0    0  501 -0.00000000000E+00 -0.00000000000E+00 -0.15488386735E+03  0.15488386735E+03  0.00000000000E+00 0.  1.
         23    2    1    2    0    0 -0.64942619482E+02 -0.19943957914E+02 -0.10515873120E+03  0.16901651464E+03  0.11354698671E+03 0.  0.
        -24    2    1    2    0    0  0.25932416953E+02 -0.49248049301E+01  0.18677294908E+03  0.20489150551E+03  0.79997816049E+02 0.  0.
         13    1    4    4    0    0  0.43089725786E+02  0.49355345476E+01  0.17806589550E+03  0.18327178482E+03  0.00000000000E+00 0. -1.
        -14    1    4    4    0    0 -0.17157308833E+02 -0.98603394777E+01  0.87070535737E+01  0.21619720695E+02  0.00000000000E+00 0.  1.
        -11    1    3    3    0    0 -0.37624068635E+02 -0.41333651245E+02  0.24557763664E+01  0.55947047317E+02  0.00000000000E+00 0. -1.
         11    1    3    3    0    0 -0.27318550847E+02  0.21389693331E+02 -0.10761450757E+03  0.11306946732E+03  0.00000000000E+00 0.  1.
         21    1    1    2  502  501  0.39010202529E+02  0.24868762844E+02  0.52504293472E+02  0.69978225897E+02  0.00000000000E+00 0. -1.
<scales pt_clust_5="13000.00000" pt_clust_6="13000.00000" pt_clust_7="13000.00000" pt_clust_8="13000.00000" pt_clust_9="46.26285"></scales>
<clustering>
<clus scale="   46.263">  1  9  2 -1</clus>
<clus scale="   79.998">  5  6 -1 -1</clus>
<clus scale="  101.033">  1  5  2 -1</clus>
<clus scale="  113.547">  7  8 -1 -1</clus>
<clus scale="   46.263">  1  5  2 -1</clus>
</clustering>
</event>
<event>
 9    1  0.2674825E-005  0.1262732E+03  0.7546771E-02  0.1242089E+00
          3   -1    0    0  502    0  0.00000000000E+00  0.00000000000E+00  0.71558868166E+02  0.71558868166E+02  0.00000000000E+00 0. -1.
         -4   -1    0    0    0  501 -0.00000000000E+00 -0.00000000000E+00 -0.50075024081E+03  0.50075024081E+03  0.00000000000E+00 0.  1.
        -24    2    1    2    0    0 -0.36557536067E+02  0.73602538752E+02 -0.18358828108E+03  0.21582921058E+03  0.78254738101E+02 0.  0.
         23    2    1    2    0    0 -0.51586008471E+02  0.51629815511E+01 -0.27893152914E+02  0.10874837230E+03  0.91435265905E+02 0.  0.
         13    1    3    3    0    0 -0.17986367308E+02  0.86223022724E+02 -0.16343329621E+03  0.18565656834E+03  0.00000000000E+00 0. -1.
        -14    1    3    3    0    0 -0.18571168760E+02 -0.12620483971E+02 -0.20154984870E+02  0.30172642242E+02  0.00000000000E+00 0.  1.
        -13    1    4    4    0    0 -0.99371788020E+01 -0.34163248254E+02 -0.36328386952E+02  0.50849058520E+02  0.00000000000E+00 0.  1.
         13    1    4    4    0    0 -0.41648829669E+02  0.39326229805E+02  0.84352340383E+01  0.57899313785E+02  0.00000000000E+00 0. -1.
         21    1    1    2  502  501  0.88143544538E+02 -0.78765520304E+02 -0.21770993865E+03  0.24773152609E+03  0.00000000000E+00 0.  1.
<scales pt_clust_5="13000.00000" pt_clust_6="13000.00000" pt_clust_7="13000.00000" pt_clust_8="13000.00000" pt_clust_9="99.10156"></scales>
<clustering>
<clus scale="   78.255">  5  6 -1 -1</clus>
<clus scale="   91.435">  7  8 -1 -1</clus>
<clus scale="  105.110">  1  7  2 -1</clus>
<clus scale="   99.102">  1  9  2 -1</clus>
<clus scale="  105.110">  1  5  2 -1</clus>
</clustering>
</event>
<event>
 9    1  0.2674825E-005  0.9703265E+02  0.7546771E-02  0.1293712E+00
          1   -1    0    0  502    0  0.00000000000E+00  0.00000000000E+00  0.67263194302E+03  0.67263194302E+03  0.00000000000E+00 0. -1.
         -2   -1    0    0    0  501 -0.00000000000E+00 -0.00000000000E+00 -0.20270772673E+02  0.20270772673E+02  0.00000000000E+00 0.  1.
         23    2    1    2    0    0  0.60716211898E+01 -0.26657206061E+02  0.17064435979E+03  0.19668085814E+03  0.93895639998E+02 0.  0.
        -24    2    1    2    0    0  0.24149568361E+02  0.19250309980E+02  0.32649288222E+03  0.33790998075E+03  0.81435722307E+02 0.  0.
         13    1    4    4    0    0  0.18228261392E+02 -0.31203707106E+02  0.14580826041E+03  0.15021980447E+03  0.00000000000E+00 0. -1.
        -14    1    4    4    0    0  0.59213069694E+01  0.50454017087E+02  0.18068462181E+03  0.18769017629E+03  0.00000000000E+00 0.  1.
        -13    1    3    3    0    0 -0.36809183878E+01 -0.56026550875E+02  0.61684597598E+02  0.83411708675E+02  0.00000000000E+00 0. -1.
         13    1    3    3    0    0  0.97525395776E+01  0.29369344815E+02  0.10895976219E+03  0.11326914947E+03  0.00000000000E+00 0.  1.
         21    1    1    2  502  501 -0.30221189551E+02  0.74068960803E+01  0.15522392834E+03  0.15831187680E+03  0.00000000000E+00 0. -1.
<scales pt_clust_5="13000.00000" pt_clust_6="13000.00000" pt_clust_7="13000.00000" pt_clust_8="13000.00000" pt_clust_9="31.11563"></scales>
<clustering>
<clus scale="   31.116">  1  9  2 -1</clus>
<clus scale="   81.436">  5  6 -1 -1</clus>
<clus scale="   85.034">  1  5  2 -1</clus>
<clus scale="   93.896">  7  8 -1 -1</clus>
<clus scale="   31.116">  1  5  2 -1</clus>
</clustering>
</event>
<event>
 9    1  0.2674825E-005  0.1025638E+03  0.7546771E-02  0.1279388E+00
          1   -1    0    0  502    0  0.00000000000E+00  0.00000000000E+00  0.80553474638E+02  0.80553474638E+02  0.00000000000E+00 0. -1.
         -2   -1    0    0    0  501 -0.00000000000E+00 -0.00000000000E+00 -0.39379714004E+03  0.39379714004E+03  0.00000000000E+00 0.  1.
        -24    2    1    2    0    0 -0.41227333385E+02 -0.45199304243E+02 -0.27674934273E+03  0.29438455015E+03  0.79557492064E+02 0.  0.
         23    2    1    2    0    0  0.35927993643E+02 -0.28926449145E+02 -0.32496049103E+02  0.10554364513E+03  0.89195894707E+02 0.  0.
         13    1    3    3    0    0 -0.31499471439E+02  0.24030175033E+01 -0.32401731223E+02  0.45253324523E+02  0.00000000000E+00 0. -1.
        -14    1    3    3    0    0 -0.97278619452E+01 -0.47602321747E+02 -0.24434761151E+03  0.24913122563E+03  0.00000000000E+00 0.  1.
        -11    1    4    4    0    0  0.65159548268E+02 -0.11152241302E+02 -0.23616836616E+02  0.70198961447E+02  0.00000000000E+00 0. -1.
         11    1    4    4    0    0 -0.29231554625E+02 -0.17774207842E+02 -0.88792124861E+01  0.35344683682E+02  0.00000000000E+00 0.  1.
         21    1    1    2  502  501  0.52993397418E+01  0.74125753388E+02 -0.39982735648E+01  0.74422419394E+02  0.00000000000E+00 0. -1.
<scales pt_clust_5="13000.00000" pt_clust_6="13000.00000" pt_clust_7="13000.00000" pt_clust_8="13000.00000" pt_clust_9="74.31494"></scales>
<clustering>
<clus scale="   74.315">  1  9  2 -1</clus>
<clus scale="   79.557">  5  6 -1 -1</clus>
<clus scale="   89.196">  7  8 -1 -1</clus>
<clus scale="   94.302">  2  5  1 -1</clus>
<clus scale="   74.315">  1  5  2 -1</clus>
</clustering>
</event>
<event>
 9    1  0.2674825E-005  0.1796160E+03  0.7546771E-02  0.1184957E+00
         -2   -1    0    0    0  501 -0.00000000000E+00  0.00000000000E+00  0.81065151041E+03  0.81065151041E+03  0.00000000000E+00 0.  1.
          1   -1    0    0  502    0  0.00000000000E+00 -0.00000000000E+00 -0.21601840586E+03  0.21601840586E+03  0.00000000000E+00 0. -1.
        -24    2    1    2    0    0 -0.12941781710E+03  0.12525552303E+02 -0.12524891129E+03  0.19109113156E+03  0.62631221771E+02 0.  0.
         23    2    1    2    0    0 -0.31020964176E+02 -0.73884201550E+02  0.32580797705E+02  0.12713792562E+03  0.93173860582E+02 0.  0.
         11    1    3    3    0    0 -0.68726706277E+02  0.11424399084E+02 -0.10704270173E+03  0.12771850705E+03  0.00000000000E+00 0. -1.
        -12    1    3    3    0    0 -0.60691110823E+02  0.11011532187E+01 -0.18206209561E+02  0.63372624515E+02  0.00000000000E+00 0.  1.
        -11    1    4    4    0    0  0.15770212485E+02  0.15179176100E+02  0.19675708519E+01  0.21976767823E+02  0.00000000000E+00 0.  1.
         11    1    4    4    0    0 -0.46791176661E+02 -0.89063377650E+02  0.30613226853E+02  0.10516115780E+03  0.00000000000E+00 0. -1.
         21    1    1    2  502  501  0.16043878128E+03  0.61358649247E+02  0.68730121813E+03  0.70844085909E+03  0.00000000000E+00 0.  1.
<scales pt_clust_5="13000.00000" pt_clust_6="13000.00000" pt_clust_7="13000.00000" pt_clust_8="13000.00000" pt_clust_9="168.34258"></scales>
<clustering>
<clus scale="   62.631">  5  6 -1 -1</clus>
<clus scale="   93.174">  7  8 -1 -1</clus>
<clus scale="  122.892">  2  7  1 -1</clus>
<clus scale="  168.343">  1  9  2 -1</clus>
<clus scale="  122.892">  2  5  1 -1</clus>
</clustering>
</event>
<event>
 9    1  0.2674825E-005  0.1241521E+03  0.7546771E-02  0.1239633E+00
         -4   -1    0    0    0  501 -0.00000000000E+00  0.00000000000E+00  0.24428106356E+03  0.24428106356E+03  0.00000000000E+00 0.  1.
          3   -1    0    0  502    0  0.00000000000E+00 -0.00000000000E+00 -0.28620419085E+03  0.28620419085E+03  0.00000000000E+00 0. -1.
        -24    2    1    2    0    0 -0.15052036886E+02 -0.83541310480E+02  0.18730465481E+03  0.22126488126E+03  0.81666392087E+02 0.  0.
         23    2    1    2    0    0  0.32559127468E+02  0.66158487216E+02 -0.50306785369E+02  0.12860646494E+03  0.92584058876E+02 0.  0.
         11    1    3    3    0    0  0.31758703280E+02 -0.36306568356E+02  0.10423818820E+03  0.11485809514E+03  0.00000000000E+00 0. -1.
        -12    1    3    3    0    0 -0.46810740166E+02 -0.47234742124E+02  0.83066466607E+02  0.10640678612E+03  0.00000000000E+00 0.  1.
        -13    1    4    4    0    0 -0.77883711603E+01  0.69265832124E+02 -0.81611642985E+01  0.70178478381E+02  0.00000000000E+00 0.  1.
         13    1    4    4    0    0  0.40347498628E+02 -0.31073449077E+01 -0.42145621070E+02  0.58427986559E+02  0.00000000000E+00 0. -1.
         21    1    1    2  502  501 -0.17507090582E+02  0.17382823264E+02 -0.17892099673E+03  0.18061390820E+03  0.00000000000E+00 0. -1.
<scales pt_clust_5="13000.00000" pt_clust_6="13000.00000" pt_clust_7="13000.00000" pt_clust_8="13000.00000" pt_clust_9="24.67105"></scales>
<clustering>
<clus scale="   24.671">  2  9  1 -1</clus>
<clus scale="   81.666">  5  6 -1 -1</clus>
<clus scale="   92.584">  7  8 -1 -1</clus>
<clus scale="  116.238">  1  5  2 -1</clus>
<clus scale="   24.671">  2  5  1 -1</clus>
</clustering>
</event>
<event>
 9    1  0.2674825E-005  0.1116456E+03  0.7546771E-02  0.1257742E+00
         -2   -1    0    0    0  501 -0.00000000000E+00  0.00000000000E+00  0.35523266585E+03  0.35523266585E+03  0.00000000000E+00 0.  1.
          1   -1    0    0  502    0  0.00000000000E+00 -0.00000000000E+00 -0.19012838729E+03  0.19012838729E+03  0.00000000000E+00 0. -1.
         23    2    1    2    0    0 -0.42824159954E+02 -0.64244130471E+02  0.31999459677E+03  0.33899356617E+03  0.80986906139E+02 0.  0.
        -24    2    1    2    0    0  0.60276892058E+02  0.45480034526E+02 -0.11892731006E+03  0.16220837568E+03  0.80412155835E+02 0.  0.
         13    1    4    4    0    0  0.50011755107E+02 -0.11141920188E+02 -0.42692311455E+02  0.66692964335E+02  0.00000000000E+00 0. -1.
        -14    1    4    4    0    0  0.10265136951E+02  0.56621954714E+02 -0.76234998600E+02  0.95515411341E+02  0.00000000000E+00 0.  1.
        -11    1    3    3    0    0 -0.65193179009E+02 -0.57170945259E+02  0.27348402211E+03  0.28690098975E+03  0.00000000000E+00 0.  1.
         11    1    3    3    0    0  0.22369019055E+02 -0.70731852125E+01  0.46510574662E+02  0.52092576418E+02  0.00000000000E+00 0. -1.
         21    1    1    2  502  501 -0.17452732104E+02  0.18764095946E+02 -0.35963008154E+02  0.44159111291E+02  0.00000000000E+00 0.  1.
<scales pt_clust_5="13000.00000" pt_clust_6="13000.00000" pt_clust_7="13000.00000" pt_clust_8="13000.00000" pt_clust_9="25.62595"></scales>
<clustering>
<clus scale="   25.626">  2  9  1 -1</clus>
<clus scale="   80.412">  5  6 -1 -1</clus>
<clus scale="   80.987">  7  8 -1 -1</clus>
<clus scale="  111.229">  2  5  1 -1</clus>
<clus scale="   25.626">  2  5  1 -1</clus>
</clustering>
</event>
<event>
 9    1  0.2674825E-005  0.1018167E+03  0.7546771E-02  0.1282839E+00
          1   -1    0    0  502    0  0.00000000000E+00  0.00000000000E+00  0.25603081476E+03  0.25603081476E+03  0.00000000000E+00 0. -1.
         -2   -1    0    0    0  501 -0.00000000000E+00 -0.00000000000E+00 -0.79848933044E+02  0.79848933044E+02  0.00000000000E+00 0.  1.
        -24    2    1    2    0    0 -0.49368117065E+02 -0.10223868179E+02 -0.21442669510E+02  0.95448287654E+02  0.78159126641E+02 0.  0.
         23    2    1    2    0    0  0.21153672643E+02  0.26104429535E+02  0.10894004549E+03  0.14602177494E+03  0.91244211534E+02 0.  0.
         13    1    3    3    0    0 -0.29383817202E+02  0.30610977435E+02  0.52078901186E+01  0.42750003186E+02  0.00000000000E+00 0. -1.
        -14    1    3    3    0    0 -0.19984299863E+02 -0.40834845614E+02 -0.26650559629E+02  0.52698284468E+02  0.00000000000E+00 0.  1.
        -11    1    4    4    0    0  0.20272711183E+02 -0.58412472094E+01 -0.96510725547E+01  0.23200133386E+02  0.00000000000E+00 0.  1.
         11    1    4    4    0    0  0.88096145926E+00  0.31945676744E+02  0.11859111804E+03  0.12282164155E+03  0.00000000000E+00 0. -1.
         21    1    1    2  502  501  0.28214444422E+02 -0.15880561356E+02  0.88684505739E+02  0.94409685209E+02  0.00000000000E+00 0.  1.
<scales pt_clust_5="13000.00000" pt_clust_6="13000.00000" pt_clust_7="13000.00000" pt_clust_8="13000.00000" pt_clust_9="32.37664"></scales>
<clustering>
<clus scale="   32.377">  1  9  2 -1</clus>
<clus scale="   78.159">  5  6 -1 -1</clus>
<clus scale="   90.277">  2  5  1 -1</clus>
<clus scale="   91.244">  7  8 -1 -1</clus>
<clus scale="   32.377">  1  5  2 -1</clus>
</clustering>
</event>
<event>
 9    1  0.2674825E-005  0.1411597E+03  0.7546771E-02  0.1213678E+00
         -4   -1    0    0    0  501 -0.00000000000E+00  0.00000000000E+00  0.41769238429E+03  0.41769238429E+03  0.00000000000E+00 0.  1.
          3   -1    0    0  502    0  0.00000000000E+00 -0.00000000000E+00 -0.89834448582E+02  0.89834448582E+02  0.00000000000E+00 0. -1.
        -24    2    1    2    0    0 -0.84307266328E+02  0.67610455563E+02  0.29213896993E+03  0.32221228091E+03  0.82442024233E+02 0.  0.
         23    2    1    2    0    0  0.10417138190E+03 -0.37246840485E+02  0.16951692021E+02  0.14446430383E+03  0.91343151287E+02 0.  0.
         13    1    3    3    0    0 -0.31445668633E+02  0.20394113805E+02  0.23175448308E+02  0.44066442538E+02  0.00000000000E+00 0. -1.
        -14    1    3    3    0    0 -0.52861597695E+02  0.47216341758E+02  0.26896352162E+03  0.27814583837E+03  0.00000000000E+00 0.  1.
        -11    1    4    4    0    0  0.26098440026E+01  0.22627796498E+02  0.13580559853E+02  0.26519051001E+02  0.00000000000E+00 0.  1.
         11    1    4    4    0    0  0.10156153789E+03 -0.59874636984E+02  0.33711321682E+01  0.11794525283E+03  0.00000000000E+00 0. -1.
         21    1    1    2  502  501 -0.19864115568E+02 -0.30363615078E+02  0.18767273750E+02  0.40850248125E+02  0.00000000000E+00 0.  1.
<scales pt_clust_5="13000.00000" pt_clust_6="13000.00000" pt_clust_7="13000.00000" pt_clust_8="13000.00000" pt_clust_9="36.28405"></scales>
<clustering>
<clus scale="   36.284">  2  9  1 -1</clus>
<clus scale="   82.442">  5  6 -1 -1</clus>
<clus scale="   91.343">  7  8 -1 -1</clus>
<clus scale="  135.570">  1  5  2 -1</clus>
<clus scale="   36.284">  2  5  1 -1</clus>
</clustering>
</event>
<event>
 9    1  0.2674825E-005  0.2902640E+03  0.7546771E-02  0.1090600E+00
          1   -1    0    0  502    0  0.00000000000E+00  0.00000000000E+00  0.90500455076E+03  0.90500455076E+03  0.00000000000E+00 0. -1.
         -2   -1    0    0    0  501 -0.00000000000E+00 -0.00000000000E+00 -0.35816810681E+03  0.35816810681E+03  0.00000000000E+00 0.  1.
         23    2    1    2    0    0  0.19198358122E+03 -0.20425360742E+03 -0.26073956304E+03  0.39347110309E+03  0.90868903531E+02 0.  0.
        -24    2    1    2    0    0 -0.19437370354E+03  0.13027782276E+03  0.65167345473E+03  0.69712190562E+03  0.80914843897E+02 0.  0.
         13    1    4    4    0    0 -0.12880021356E+03  0.10134428338E+03  0.54089409146E+03  0.56517835854E+03  0.00000000000E+00 0. -1.
        -14    1    4    4    0    0 -0.65573489975E+02  0.28933539384E+02  0.11077936327E+03  0.13194354708E+03  0.00000000000E+00 0.  1.
        -13    1    3    3    0    0  0.99535286895E+00 -0.41781747413E+02 -0.21919730013E+02  0.47193004864E+02  0.00000000000E+00 0. -1.
         13    1    3    3    0    0  0.19098822835E+03 -0.16247186000E+03 -0.23881983303E+03  0.34627809822E+03  0.00000000000E+00 0.  1.
         21    1    1    2  502  501  0.23901223224E+01  0.73975784651E+02  0.15590255226E+03  0.17257964886E+03  0.00000000000E+00 0.  1.
<scales pt_clust_5="13000.00000" pt_clust_6="13000.00000" pt_clust_7="13000.00000" pt_clust_8="13000.00000" pt_clust_9="74.01439"></scales>
<clustering>
<clus scale="   74.014">  1  9  2 -1</clus>
<clus scale="   80.915">  5  6 -1 -1</clus>
<clus scale="   90.869">  7  8 -1 -1</clus>
<clus scale="  287.303">  1  5  2 -1</clus>
<clus scale="   74.014">  1  5  2 -1</clus>
</clustering>
</event>
<event>
 9    1  0.2674825E-005  0.8972281E+02  0.7546771E-02  0.1307502E+00
         -2   -1    0    0    0  501 -0.00000000000E+00  0.00000000000E+00  0.89612284624E+02  0.89612284624E+02  0.00000000000E+00 0.  1.
          1   -1    0    0  502    0  0.00000000000E+00 -0.00000000000E+00 -0.25749122813E+03  0.25749122813E+03  0.00000000000E+00 0. -1.
         23    2    1    2    0    0 -0.21480781462E+02 -0.18100275127E+02  0.33387033000E+02  0.97491180334E+02  0.87182523125E+02 0.  0.
        -24    2    1    2    0    0  0.15963335816E+02 -0.35172950051E+02 -0.94285695767E+02  0.12997429836E+03  0.80694245778E+02 0.  0.
         13    1    4    4    0    0  0.38345910789E+02 -0.41894382404E+02 -0.89685677795E+02  0.10615587102E+03  0.00000000000E+00 0. -1.
        -14    1    4    4    0    0 -0.22382574974E+02  0.67214323524E+01 -0.46000179718E+01  0.23818427334E+02  0.00000000000E+00 0.  1.
        -11    1    3    3    0    0  0.48255279391E+01 -0.36454323200E+02 -0.14771341426E+02  0.39628221350E+02  0.00000000000E+00 0. -1.
         11    1    3    3    0    0 -0.26306309401E+02  0.18354048073E+02  0.48158374427E+02  0.57862958984E+02  0.00000000000E+00 0.  1.
         21    1    1    2  502  501  0.55174456460E+01  0.53273225178E+02 -0.10698028074E+03  0.11963803406E+03  0.00000000000E+00 0. -1.
<scales pt_clust_5="13000.00000" pt_clust_6="13000.00000" pt_clust_7="13000.00000" pt_clust_8="13000.00000" pt_clust_9="53.55818"></scales>
<clustering>
<clus scale="   53.558">  2  9  1 -1</clus>
<clus scale="   80.694">  5  6 -1 -1</clus>
<clus scale="   83.432">  2  5  1 -1</clus>
<clus scale="   87.183">  7  8 -1 -1</clus>
<clus scale="   53.558">  2  5  1 -1</clus>
</clustering>
</event>
<event>
 9    1  0.2674825E-005  0.1143013E+03  0.7546771E-02  0.1263711E+00
          1   -1    0    0  502    0  0.00000000000E+00  0.00000000000E+00  0.24923710708E+03  0.24923710708E+03  0.00000000000E+00 0. -1.
         -2   -1    0    0    0  501 -0.00000000000E+00 -0.00000000000E+00 -0.14382188008E+03  0.14382188008E+03  0.00000000000E+00 0.  1.
        -24    2    1    2    0    0 -0.12840165225E+02  0.44730138995E+02 -0.10767986503E+03  0.14231657160E+03  0.80581623485E+02 0.  0.
         23    2    1    2    0    0  0.46083480439E+01 -0.23844172895E+02  0.19013248800E+03  0.21862906043E+03  0.10515950561E+03 0.  0.
         13    1    3    3    0    0 -0.96917599030E+01 -0.23134142086E+02 -0.30774057096E+02  0.39700898356E+02  0.00000000000E+00 0. -1.
        -14    1    3    3    0    0 -0.31484053223E+01  0.67864281082E+02 -0.76905807930E+02  0.10261567325E+03  0.00000000000E+00 0.  1.
        -11    1    4    4    0    0 -0.25384063727E+02 -0.56743019421E+02  0.12677395458E+03  0.14119403848E+03  0.00000000000E+00 0. -1.
         11    1    4    4    0    0  0.29992411771E+02  0.32898846526E+02  0.63358533426E+02  0.77435021951E+02  0.00000000000E+00 0.  1.
         21    1    1    2  502  501  0.82318171813E+01 -0.20885966101E+02  0.22962604021E+02  0.32113355127E+02  0.00000000000E+00 0.  1.
<scales pt_clust_5="13000.00000" pt_clust_6="13000.00000" pt_clust_7="13000.00000" pt_clust_8="13000.00000" pt_clust_9="22.44964"></scales>
<clustering>
<clus scale="   22.450">  1  9  2 -1</clus>
<clus scale="   80.582">  5  6 -1 -1</clus>
<clus scale="   92.194">  2  5  1 -1</clus>
<clus scale="  105.160">  7  8 -1 -1</clus>
<clus scale="   22.450">  1  5  2 -1</clus>
</clustering>
</event>
<event>
 9    1  0.2674825E-005  0.1368439E+03  0.7546771E-02  0.1218061E+00
          1   -1    0    0  502    0  0.00000000000E+00  0.00000000000E+00  0.14979633605E+04  0.14979633605E+04  0.00000000000E+00 0. -1.
         -2   -1    0    0    0  501 -0.00000000000E+00 -0.00000000000E+00 -0.45421919345E+02  0.45421919345E+02  0.00000000000E+00 0.  1.
         23    2    1    2    0    0  0.24829949135E+02 -0.85276933377E+02  0.12699661109E+03  0.17910135558E+03  0.89780145927E+02 0.  0.
        -24    2    1    2    0    0 -0.77762442476E+02  0.17867896601E+03  0.94536363911E+03  0.96923515954E+03  0.87927322173E+02 0.  0.
         13    1    4    4    0    0 -0.39327829402E+02  0.16978626878E+03  0.76224099676E+03  0.78191137118E+03  0.00000000000E+00 0. -1.
        -14    1    4    4    0    0 -0.38434613074E+02  0.88926972278E+01  0.18312264235E+03  0.18732378836E+03  0.00000000000E+00 0.  1.
        -11    1    3    3    0    0 -0.31964933313E+01 -0.95905751594E+02  0.90846415965E+02  0.13214084173E+03  0.00000000000E+00 0.  1.
         11    1    3    3    0    0  0.28026442466E+02  0.10628818217E+02  0.36150195124E+02  0.46960513855E+02  0.00000000000E+00 0. -1.
         21    1    1    2  502  501  0.52932493341E+02 -0.93402032634E+02  0.38018119092E+03  0.39504876469E+03  0.00000000000E+00 0.  1.
<scales pt_clust_5="13000.00000" pt_clust_6="13000.00000" pt_clust_7="13000.00000" pt_clust_8="13000.00000" pt_clust_9="107.35823"></scales>
<clustering>
<clus scale="   87.927">  5  6 -1 -1</clus>
<clus scale="   89.780">  7  8 -1 -1</clus>
<clus scale="  107.358">  1  9  2 -1</clus>
<clus scale="  135.635">  1  5  2 -1</clus>
<clus scale="  107.358">  1  5  2 -1</clus>
</clustering>
</event>
<event>
 9    1  0.2674825E-005  0.1319537E+03  0.7546771E-02  0.1226490E+00
          1   -1    0    0  502    0  0.00000000000E+00  0.00000000000E+00  0.35908249983E+03  0.35908249983E+03  0.00000000000E+00 0. -1.
         -2   -1    0    0    0  501 -0.00000000000E+00 -0.00000000000E+00 -0.81807526028E+02  0.81807526028E+02  0.00000000000E+00 0.  1.
         23    2    1    2    0    0 -0.62260663197E+02  0.81332729469E+02  0.11354251186E+02  0.13754781353E+03  0.91099280577E+02 0.  0.
        -24    2    1    2    0    0  0.49082984255E+02 -0.53464536519E+02  0.23468754372E+03  0.25945828743E+03  0.83503076172E+02 0.  0.
         11    1    4    4    0    0  0.20412820604E+02 -0.60032916118E+02  0.21477314102E+03  0.22393779575E+03  0.00000000000E+00 0. -1.
        -12    1    4    4    0    0  0.28670163651E+02  0.65683795991E+01  0.19914402707E+02  0.35520491685E+02  0.00000000000E+00 0.  1.
        -13    1    3    3    0    0 -0.29965627381E+01  0.68806893276E+02  0.28589319661E+02  0.74570216235E+02  0.00000000000E+00 0. -1.
         13    1    3    3    0    0 -0.59264100459E+02  0.12525836193E+02 -0.17235068474E+02  0.62977597293E+02  0.00000000000E+00 0.  1.
         21    1    1    2  502  501  0.13177678942E+02 -0.27868192950E+02  0.31233178890E+02  0.43883924895E+02  0.00000000000E+00 0.  1.
<scales pt_clust_5="13000.00000" pt_clust_6="13000.00000" pt_clust_7="13000.00000" pt_clust_8="13000.00000" pt_clust_9="30.82673"></scales>
<clustering>
<clus scale="   30.827">  1  9  2 -1</clus>
<clus scale="   83.503">  5  6 -1 -1</clus>
<clus scale="   91.099">  7  8 -1 -1</clus>
<clus scale="  126.828">  1  5  2 -1</clus>
<clus scale="   30.827">  1  5  2 -1</clus>
</clustering>
</event>
<event>
 9    1  0.2674825E-005  0.1046544E+03  0.7546771E-02  0.1270948E+00
         -2   -1    0    0    0  501 -0.00000000000E+00  0.00000000000E+00  0.36903739023E+02  0.36903739023E+02  0.00000000000E+00 0.  1.
          1   -1    0    0  502    0  0.00000000000E+00 -0.00000000000E+00 -0.65615759519E+03  0.65615759519E+03  0.00000000000E+00 0. -1.
         23    2    1    2    0    0  0.14038395148E+02  0.33893020111E+02 -0.84954511640E+02  0.13136962599E+03  0.93246427455E+02 0.  0.
        -24    2    1    2    0    0 -0.34606497641E+02 -0.72465404370E+02 -0.31531591174E+03  0.33838783566E+03  0.92915868493E+02 0.  0.
         13    1    4    4    0    0 -0.31592775914E+01 -0.77912512086E+02 -0.28058968180E+03  0.29122312770E+03  0.00000000000E+00 0. -1.
        -14    1    4    4    0    0 -0.31447220050E+02  0.54471077163E+01 -0.34726229943E+02  0.47164707965E+02  0.00000000000E+00 0.  1.
        -11    1    3    3    0    0  0.29112570027E+02 -0.80956363581E+01 -0.81152162018E+02  0.86595348962E+02  0.00000000000E+00 0. -1.
         11    1    3    3    0    0 -0.15074174879E+02  0.41988656469E+02 -0.38023496213E+01  0.44774277023E+02  0.00000000000E+00 0.  1.
         21    1    1    2  502  501  0.20568102494E+02  0.38572384259E+02 -0.21898343279E+03  0.22330387257E+03  0.00000000000E+00 0.  1.
<scales pt_clust_5="13000.00000" pt_clust_6="13000.00000" pt_clust_7="13000.00000" pt_clust_8="13000.00000" pt_clust_9="43.71356"></scales>
<clustering>
<clus scale="   43.714">  2  9  1 -1</clus>
<clus scale="   92.916">  5  6 -1 -1</clus>
<clus scale="   93.246">  7  8 -1 -1</clus>
<clus scale="  104.360">  2  5  1 -1</clus>
<clus scale="   43.714">  2  5  1 -1</clus>
</clustering>
</event>
<event>
 9    1  0.2674825E-005  0.9587283E+02  0.7546771E-02  0.1293953E+00
         -2   -1    0    0    0  501 -0.00000000000E+00  0.00000000000E+00  0.40184169478E+03  0.40184169478E+03  0.00000000000E+00 0.  1.
          1   -1    0    0  502    0  0.00000000000E+00 -0.00000000000E+00 -0.83306628439E+02  0.83306628439E+02  0.00000000000E+00 0. -1.
         23    2    1    2    0    0  0.36505728716E+02 -0.92469300449E+01  0.30644163233E+03  0.32124484456E+03  0.88733320615E+02 0.  0.
        -24    2    1    2    0    0 -0.23162767412E+02  0.31004556370E+02  0.61700115390E+02  0.10811591951E+03  0.79902137029E+02 0.  0.
         11    1    4    4    0    0 -0.15521362784E+02  0.23177942034E+02 -0.14290264344E+02  0.31342325291E+02  0.00000000000E+00 0. -1.
        -12    1    4    4    0    0 -0.76414046284E+01  0.78266143358E+01  0.75990379735E+02  0.76773594216E+02  0.00000000000E+00 0.  1.
        -13    1    3    3    0    0 -0.28848394831E+02  0.27534575046E+01  0.11517977329E+03  0.11876948929E+03  0.00000000000E+00 0. -1.
         13    1    3    3    0    0  0.65354123547E+02 -0.12000387549E+02  0.19126185904E+03  0.20247535526E+03  0.00000000000E+00 0.  1.
         21    1    1    2  502  501 -0.13342961304E+02 -0.21757626325E+02 -0.49606681374E+02  0.55787559156E+02  0.00000000000E+00 0. -1.
<scales pt_clust_5="13000.00000" pt_clust_6="13000.00000" pt_clust_7="13000.00000" pt_clust_8="13000.00000" pt_clust_9="25.52311"></scales>
<clustering>
<clus scale="   25.523">  2  9  1 -1</clus>
<clus scale="   79.902">  5  6 -1 -1</clus>
<clus scale="   87.763">  2  5  1 -1</clus>
<clus scale="   88.733">  7  8 -1 -1</clus>
<clus scale="   25.523">  2  5  1 -1</clus>
</clustering>
</event>
<event>
 9    1  0.2674825E-005  0.1237385E+03  0.7546771E-02  0.1240727E+00
          1   -1    0    0  502    0  0.00000000000E+00  0.00000000000E+00  0.78112685962E+02  0.78112685962E+02  0.00000000000E+00 0. -1.
         -2   -1    0    0    0  501 -0.00000000000E+00 -0.00000000000E+00 -0.36022024921E+03  0.36022024921E+03  0.00000000000E+00 0.  1.
         23    2    1    2    0    0  0.16454895786E+02  0.81133842937E+02 -0.25431188278E+03  0.28180579486E+03  0.88806014597E+02 0.  0.
        -24    2    1    2    0    0 -0.58752620104E+00 -0.98838672823E+02 -0.38531721992E+02  0.13044080277E+03  0.75899150169E+02 0.  0.
         11    1    4    4    0    0 -0.21281558880E+02 -0.52992290246E+02  0.12852952094E+02  0.58534485146E+02  0.00000000000E+00 0. -1.
        -12    1    4    4    0    0  0.20694032678E+02 -0.45846382577E+02 -0.51384674086E+02  0.71906317628E+02  0.00000000000E+00 0.  1.
        -11    1    3    3    0    0  0.52274854448E+02  0.57931929556E+02 -0.17842181621E+03  0.19473857699E+03  0.00000000000E+00 0.  1.
         11    1    3    3    0    0 -0.35819958663E+02  0.23201913380E+02 -0.75890066573E+02  0.87067217869E+02  0.00000000000E+00 0. -1.
         21    1    1    2  502  501 -0.15867369585E+02  0.17704829886E+02  0.10736041519E+02  0.26086337542E+02  0.00000000000E+00 0. -1.
<scales pt_clust_5="13000.00000" pt_clust_6="13000.00000" pt_clust_7="13000.00000" pt_clust_8="13000.00000" pt_clust_9="23.77466"></scales>
<clustering>
<clus scale="   23.775">  1  9  2 -1</clus>
<clus scale="   75.899">  5  6 -1 -1</clus>
<clus scale="   88.806">  7  8 -1 -1</clus>
<clus scale="  114.828">  1  5  2 -1</clus>
<clus scale="   23.775">  1  5  2 -1</clus>
</clustering>
</event>
<event>
 9    1  0.2674825E-005  0.1102310E+03  0.7546771E-02  0.1261700E+00
          1   -1    0    0  502    0  0.00000000000E+00  0.00000000000E+00  0.12685612508E+03  0.12685612508E+03  0.00000000000E+00 0. -1.
         -2   -1    0    0    0  501 -0.00000000000E+00 -0.00000000000E+00 -0.17495897358E+03  0.17495897358E+03  0.00000000000E+00 0.  1.
         23    2    1    2    0    0  0.54630650370E+02  0.25469749215E+02 -0.94659446146E+02  0.14286860187E+03  0.88418383664E+02 0.  0.
        -24    2    1    2    0    0 -0.71399508240E+02 -0.37097546187E+02  0.98021034382E+01  0.11690731148E+03  0.84244409525E+02 0.  0.
         13    1    4    4    0    0 -0.49794673255E+02 -0.49622746584E+02 -0.24527916604E+02  0.74454987449E+02  0.00000000000E+00 0. -1.
        -14    1    4    4    0    0 -0.21604834985E+02  0.12525200397E+02  0.34330020042E+02  0.42452324033E+02  0.00000000000E+00 0.  1.
        -13    1    3    3    0    0 -0.22400355197E+02  0.74533861174E+01 -0.66427174346E+01  0.24524570791E+02  0.00000000000E+00 0. -1.
         13    1    3    3    0    0  0.77031005568E+02  0.18016363097E+02 -0.88016728712E+02  0.11834403108E+03  0.00000000000E+00 0.  1.
         21    1    1    2  502  501  0.16768857870E+02  0.11627796972E+02  0.36754494206E+02  0.42039185304E+02  0.00000000000E+00 0. -1.
<scales pt_clust_5="13000.00000" pt_clust_6="13000.00000" pt_clust_7="13000.00000" pt_clust_8="13000.00000" pt_clust_9="20.40589"></scales>
<clustering>
<clus scale="   20.406">  1  9  2 -1</clus>
<clus scale="   84.244">  5  6 -1 -1</clus>
<clus scale="   88.418">  7  8 -1 -1</clus>
<clus scale="  106.912">  1  5  2 -1</clus>
<clus scale="   20.406">  1  5  2 -1</clus>
</clustering>
</event>
<event>
 9    1  0.2674825E-005  0.9682705E+02  0.7546771E-02  0.1295071E+00
         -2   -1    0    0    0  501 -0.00000000000E+00  0.00000000000E+00  0.27871304070E+03  0.27871304070E+03  0.00000000000E+00 0.  1.
          1   -1    0    0  502    0  0.00000000000E+00 -0.00000000000E+00 -0.12097423914E+03  0.12097423914E+03  0.00000000000E+00 0. -1.
        -24    2    1    2    0    0 -0.22149209598E+02 -0.17358622241E+02  0.20877324045E+03  0.22449302117E+03  0.77581836637E+02 0.  0.
         23    2    1    2    0    0  0.67179983905E+02  0.12158959371E+02 -0.59671444445E+02  0.12904878225E+03  0.91825466986E+02 0.  0.
         13    1    3    3    0    0 -0.24474917949E+02  0.43562769810E+01  0.14062560174E+02  0.28561413768E+02  0.00000000000E+00 0. -1.
        -14    1    3    3    0    0  0.23257083511E+01 -0.21714899222E+02  0.19471068027E+03  0.19593160740E+03  0.00000000000E+00 0.  1.
        -11    1    4    4    0    0  0.40618936213E+01 -0.33689515765E+02 -0.30916263183E+02  0.45905313216E+02  0.00000000000E+00 0.  1.
         11    1    4    4    0    0  0.63118090284E+02  0.45848475135E+02 -0.28755181262E+02  0.83143469032E+02  0.00000000000E+00 0. -1.
         21    1    1    2  502  501 -0.45030774307E+02  0.51996628702E+01  0.86370055589E+01  0.46145476416E+02  0.00000000000E+00 0.  1.
<scales pt_clust_5="13000.00000" pt_clust_6="13000.00000" pt_clust_7="13000.00000" pt_clust_8="13000.00000" pt_clust_9="45.32998"></scales>
<clustering>
<clus scale="   45.330">  2  9  1 -1</clus>
<clus scale="   77.582">  5  6 -1 -1</clus>
<clus scale="   83.442">  1  5  2 -1</clus>
<clus scale="   91.825">  7  8 -1 -1</clus>
<clus scale="   45.330">  2  5  1 -1</clus>
</clustering>
</event>
<event>
 9    1  0.2674825E-005  0.2473038E+03  0.7546771E-02  0.1115595E+00
          1   -1    0    0  502    0  0.00000000000E+00  0.00000000000E+00  0.13296426098E+04  0.13296426098E+04  0.00000000000E+00 0. -1.
         -2   -1    0    0    0  501 -0.00000000000E+00 -0.00000000000E+00 -0.54711095759E+02  0.54711095759E+02  0.00000000000E+00 0.  1.
        -24    2    1    2    0    0  0.16743463843E+03 -0.17278482616E+03  0.59409567671E+03  0.64607910274E+03  0.81114607937E+02 0.  0.
         23    2    1    2    0    0 -0.16829641272E+03  0.14417702078E+03  0.66191341524E+03  0.70396414900E+03  0.91243947482E+02 0.  0.
         11    1    3    3    0    0  0.32422396694E+02 -0.70001306538E+02  0.12127501217E+03  0.14373247128E+03  0.00000000000E+00 0. -1.
        -12    1    3    3    0    0  0.13501224173E+03 -0.10278351962E+03  0.47282066454E+03  0.50234663146E+03  0.00000000000E+00 0.  1.
        -13    1    4    4    0    0 -0.10574946848E+03  0.13463029072E+03  0.54182099852E+03  0.56822377607E+03  0.00000000000E+00 0. -1.
         13    1    4    4    0    0 -0.62546944236E+02  0.95467300587E+01  0.12009241673E+03  0.13574037293E+03  0.00000000000E+00 0.  1.
         21    1    1    2  502  501  0.86177428867E+00  0.28607805384E+02  0.18922422118E+02  0.34310453839E+02  0.00000000000E+00 0.  1.
<scales pt_clust_5="13000.00000" pt_clust_6="13000.00000" pt_clust_7="13000.00000" pt_clust_8="13000.00000" pt_clust_9="28.62078"></scales>
<clustering>
<clus scale="   28.621">  2  9  1 -1</clus>
<clus scale="   81.115">  5  6 -1 -1</clus>
<clus scale="   91.244">  7  8 -1 -1</clus>
<clus scale="  243.748">  2  5  1 -1</clus>
<clus scale="  247.304">  1  5  2 -1</clus>
</clustering>
</event>
<event>
 9    1  0.2674825E-005  0.2047829E+03  0.7546771E-02  0.1146419E+00
         -2   -1    0    0    0  501 -0.00000000000E+00  0.00000000000E+00  0.42092192499E+03  0.42092192499E+03  0.00000000000E+00 0.  1.
          1   -1    0    0  502    0  0.00000000000E+00 -0.00000000000E+00 -0.19846832847E+03  0.19846832847E+03  0.00000000000E+00 0. -1.
         23    2    1    2    0    0  0.11650862914E+03 -0.13923140688E+03  0.30809378736E+03  0.36950423311E+03  0.93015865047E+02 0.  0.
        -24    2    1    2    0    0 -0.98834270514E+02  0.16019576996E+03 -0.70438737221E+02  0.21853364142E+03  0.85816309574E+02 0.  0.
         13    1    4    4    0    0 -0.80394439752E+02  0.14335669823E+03 -0.89472066109E+02  0.18713540415E+03  0.00000000000E+00 0. -1.
        -14    1    4    4    0    0 -0.18439830761E+02  0.16839071729E+02  0.19033328889E+02  0.31398237272E+02  0.00000000000E+00 0.  1.
        -13    1    3    3    0    0  0.11103209897E+03 -0.70267785515E+02  0.16821230679E+03  0.21345038964E+03  0.00000000000E+00 0. -1.
         13    1    3    3    0    0  0.54765301673E+01 -0.68963621361E+02  0.13988148057E+03  0.15605384347E+03  0.00000000000E+00 0.  1.
         21    1    1    2  502  501 -0.17674358623E+02 -0.20964363084E+02 -0.15201453625E+02  0.31352378930E+02  0.00000000000E+00 0.  1.
<scales pt_clust_5="13000.00000" pt_clust_6="13000.00000" pt_clust_7="13000.00000" pt_clust_8="13000.00000" pt_clust_9="27.42057"></scales>
<clustering>
<clus scale="   27.421">  2  9  1 -1</clus>
<clus scale="   85.816">  5  6 -1 -1</clus>
<clus scale="   93.016">  7  8 -1 -1</clus>
<clus scale="  201.615">  2  5  1 -1</clus>
<clus scale="   27.421">  2  5  1 -1</clus>
</clustering>
</event>
<event>
 9    1  0.2674825E-005  0.1066317E+03  0.7546771E-02  0.1274310E+00
          1   -1    0    0  502    0  0.00000000000E+00  0.00000000000E+00  0.61753912676E+03  0.61753912676E+03  0.00000000000E+00 0. -1.
         -2   -1    0    0    0  501 -0.00000000000E+00 -0.00000000000E+00 -0.30790994471E+02  0.30790994471E+02  0.00000000000E+00 0.  1.
         23    2    1    2    0    0 -0.61686913673E+02 -0.16844763764E+02  0.98427361881E+02  0.14747942975E+03  0.89292862246E+02 0.  0.
        -24    2    1    2    0    0  0.36817170846E+02  0.11842483403E+02  0.42274931642E+03  0.43054320614E+03  0.71796374099E+02 0.  0.
         11    1    4    4    0    0  0.52257143757E+02 -0.10540637384E+02  0.31080331706E+03  0.31534206190E+03  0.00000000000E+00 0. -1.
        -12    1    4    4    0    0 -0.15439972911E+02  0.22383120788E+02  0.11194599936E+03  0.11520114424E+03  0.00000000000E+00 0.  1.
        -11    1    3    3    0    0 -0.53460425856E+02 -0.45727090829E+02  0.37893269037E+02  0.79905467940E+02  0.00000000000E+00 0.  1.
         11    1    3    3    0    0 -0.82264878165E+01  0.28882327065E+02  0.60534092843E+02  0.67573961811E+02  0.00000000000E+00 0. -1.
         21    1    1    2  502  501  0.24869742827E+02  0.50022803609E+01  0.65571453982E+02  0.70307485337E+02  0.00000000000E+00 0. -1.
<scales pt_clust_5="13000.00000" pt_clust_6="13000.00000" pt_clust_7="13000.00000" pt_clust_8="13000.00000" pt_clust_9="25.36783"></scales>
<clustering>
<clus scale="   25.368">  1  9  2 -1</clus>
<clus scale="   71.796">  5  6 -1 -1</clus>
<clus scale="   89.293">  7  8 -1 -1</clus>
<clus scale="   92.476">  1  5  2 -1</clus>
<clus scale="   25.368">  1  5  2 -1</clus>
</clustering>
</event>
<event>
 9    1  0.2674825E-005  0.9390168E+02  0.7546771E-02  0.1301634E+00
         -2   -1    0    0    0  501 -0.00000000000E+00  0.00000000000E+00  0.26571184414E+03  0.26571184414E+03  0.00000000000E+00 0.  1.
          1   -1    0    0  502    0  0.00000000000E+00 -0.00000000000E+00 -0.49575592080E+02  0.49575592080E+02  0.00000000000E+00 0. -1.
        -24    2    1    2    0    0  0.22227729357E+02 -0.76850388317E+01  0.16754600205E+03  0.18661881024E+03  0.78751417511E+02 0.  0.
         23    2    1    2    0    0 -0.91574614668E+01 -0.95420617695E+01  0.52496728335E+02  0.10669442586E+03  0.91939567006E+02 0.  0.
         13    1    3    3    0    0  0.56399871941E+01 -0.28946479397E+02  0.17762048402E+02  0.34426711845E+02  0.00000000000E+00 0. -1.
        -14    1    3    3    0    0  0.16587742163E+02  0.21261440565E+02  0.14978395364E+03  0.15219209840E+03  0.00000000000E+00 0.  1.
        -11    1    4    4    0    0  0.82448392597E+01  0.19889462769E+02  0.66385559676E+02  0.69789760260E+02  0.00000000000E+00 0.  1.
         11    1    4    4    0    0 -0.17402300726E+02 -0.29431524539E+02 -0.13888831342E+02  0.36904665603E+02  0.00000000000E+00 0. -1.
         21    1    1    2  502  501 -0.13070267890E+02  0.17227100601E+02 -0.39064783198E+01  0.21974200115E+02  0.00000000000E+00 0. -1.
<scales pt_clust_5="13000.00000" pt_clust_6="13000.00000" pt_clust_7="13000.00000" pt_clust_8="13000.00000" pt_clust_9="21.62417"></scales>
<clustering>
<clus scale="   21.624">  2  9  1 -1</clus>
<clus scale="   78.751">  5  6 -1 -1</clus>
<clus scale="   81.033">  1  5  2 -1</clus>
<clus scale="   91.940">  7  8 -1 -1</clus>
<clus scale="   21.624">  2  5  1 -1</clus>
</clustering>
</event>
<event>
 9    1  0.2674825E-005  0.1212883E+03  0.7546771E-02  0.1244942E+00
         -2   -1    0    0    0  501 -0.00000000000E+00  0.00000000000E+00  0.63461145061E+02  0.63461145061E+02  0.00000000000E+00 0.  1.
          1   -1    0    0  502    0  0.00000000000E+00 -0.00000000000E+00 -0.59960169247E+03  0.59960169247E+03  0.00000000000E+00 0. -1.
        -24    2    1    2    0    0 -0.59466784340E+02 -0.57795956106E+02 -0.38056882286E+01  0.11372716164E+03  0.77734889528E+02 0.  0.
         23    2    1    2    0    0  0.47531749580E+02  0.38888641642E+02 -0.48165951761E+03  0.49394685176E+03  0.90642196553E+02 0.  0.
         13    1    3    3    0    0 -0.84000260615E+01 -0.27116970610E+02 -0.36130395869E+02  0.45948841536E+02  0.00000000000E+00 0. -1.
        -14    1    3    3    0    0 -0.51066758279E+02 -0.30678985496E+02  0.32324707640E+02  0.67778320104E+02  0.00000000000E+00 0.  1.
        -11    1    4    4    0    0 -0.15084527120E+02  0.43505576474E+02 -0.17756851799E+03  0.18344169844E+03  0.00000000000E+00 0.  1.
         11    1    4    4    0    0  0.62616276700E+02 -0.46169348316E+01 -0.30409099962E+03  0.31050515333E+03  0.00000000000E+00 0. -1.
         21    1    1    2  502  501  0.11935034760E+02  0.18907314463E+02 -0.50675341568E+02  0.55388824125E+02  0.00000000000E+00 0. -1.
<scales pt_clust_5="13000.00000" pt_clust_6="13000.00000" pt_clust_7="13000.00000" pt_clust_8="13000.00000" pt_clust_9="22.35915"></scales>
<clustering>
<clus scale="   22.359">  2  9  1 -1</clus>
<clus scale="   77.735">  5  6 -1 -1</clus>
<clus scale="   90.642">  7  8 -1 -1</clus>
<clus scale="  111.971">  1  5  2 -1</clus>
<clus scale="   22.359">  2  5  1 -1</clus>
</clustering>
</event>
<event>
 9    1  0.2674825E-005  0.1842153E+03  0.7546771E-02  0.1191043E+00
          1   -1    0    0  502    0  0.00000000000E+00  0.00000000000E+00  0.23814062596E+03  0.23814062596E+03  0.00000000000E+00 0. -1.
         -2   -1    0    0    0  501 -0.00000000000E+00 -0.00000000000E+00 -0.23840348439E+03  0.23840348439E+03  0.00000000000E+00 0.  1.
         23    2    1    2    0    0 -0.22907266456E+02  0.43949648934E+01 -0.65586870858E+02  0.11920255306E+03  0.96765450727E+02 0.  0.
        -24    2    1    2    0    0  0.27353799251E+02  0.16292817832E+03  0.41993809835E+02  0.18834124883E+03  0.80094471225E+02 0.  0.
         13    1    4    4    0    0  0.18176563020E+02  0.15082856342E+03  0.91956580401E+01  0.15219790771E+03  0.00000000000E+00 0. -1.
        -14    1    4    4    0    0  0.91772362306E+01  0.12099614904E+02  0.32798151795E+02  0.36143341113E+02  0.00000000000E+00 0.  1.
        -11    1    3    3    0    0 -0.57270288093E+02 -0.67862698329E+01 -0.20022113998E+02  0.61047722361E+02  0.00000000000E+00 0.  1.
         11    1    3    3    0    0  0.34363021637E+02  0.11181234726E+02 -0.45564756860E+02  0.58154830700E+02  0.00000000000E+00 0. -1.
         21    1    1    2  502  501 -0.44465327952E+01 -0.16732314321E+03  0.23330202599E+02  0.16900030847E+03  0.00000000000E+00 0.  1.
<scales pt_clust_5="13000.00000" pt_clust_6="13000.00000" pt_clust_7="13000.00000" pt_clust_8="13000.00000" pt_clust_9="165.89195"></scales>
<clustering>
<clus scale="   80.094">  5  6 -1 -1</clus>
<clus scale="   96.765">  7  8 -1 -1</clus>
<clus scale="   99.537">  2  7  1 -1</clus>
<clus scale="  165.892">  2  9  1 -1</clus>
<clus scale="  184.215">  1  5  2 -1</clus>
</clustering>
</event>
<event>
 9    1  0.2674825E-005  0.1119169E+03  0.7546771E-02  0.1262726E+00
         -2   -1    0    0    0  501 -0.00000000000E+00  0.00000000000E+00  0.22609673574E+03  0.22609673574E+03  0.00000000000E+00 0.  1.
          1   -1    0    0  502    0  0.00000000000E+00 -0.00000000000E+00 -0.10755519159E+03  0.10755519159E+03  0.00000000000E+00 0. -1.
        -24    2    1    2    0    0  0.10659339414E+02  0.58837119784E+02  0.13807492275E+03  0.17013933279E+03  0.79418386344E+02 0.  0.
         23    2    1    2    0    0  0.29658988894E+02 -0.69403324750E+02 -0.10720735528E+02  0.12091124523E+03  0.93851574007E+02 0.  0.
         13    1    3    3    0    0  0.31104472675E+02  0.43214840014E+02  0.34567379462E+02  0.63481606318E+02  0.00000000000E+00 0. -1.
        -14    1    3    3    0    0 -0.20445133261E+02  0.15622279770E+02  0.10350754329E+03  0.10665772647E+03  0.00000000000E+00 0.  1.
        -11    1    4    4    0    0 -0.20926566437E+02 -0.34155019305E+02  0.27301048103E+02  0.48475083848E+02  0.00000000000E+00 0.  1.
         11    1    4    4    0    0  0.50585555331E+02 -0.35248305446E+02 -0.38021783631E+02  0.72436161380E+02  0.00000000000E+00 0. -1.
         21    1    1    2  502  501 -0.40318328309E+02  0.10566204967E+02 -0.88126430745E+01  0.42601349309E+02  0.00000000000E+00 0.  1.
<scales pt_clust_5="13000.00000" pt_clust_6="13000.00000" pt_clust_7="13000.00000" pt_clust_8="13000.00000" pt_clust_9="41.67988"></scales>
<clustering>
<clus scale="   41.680">  2  9  1 -1</clus>
<clus scale="   79.418">  5  6 -1 -1</clus>
<clus scale="   93.852">  7  8 -1 -1</clus>
<clus scale="  100.123">  1  5  2 -1</clus>
<clus scale="   41.680">  2  5  1 -1</clus>
</clustering>
</event>
<event>
 9    1  0.2674825E-005  0.2060358E+03  0.7546771E-02  0.1145446E+00
         -2   -1    0    0    0  501 -0.00000000000E+00  0.00000000000E+00  0.28904430865E+03  0.28904430865E+03  0.00000000000E+00 0.  1.
          1   -1    0    0  502    0  0.00000000000E+00 -0.00000000000E+00 -0.30561938803E+03  0.30561938803E+03  0.00000000000E+00 0. -1.
         23    2    1    2    0    0 -0.11061798223E+03 -0.15004285062E+03  0.18809454652E+03  0.27922667618E+03  0.88536903276E+02 0.  0.
        -24    2    1    2    0    0  0.13793495408E+03  0.12645368558E+03 -0.17953231533E+03  0.27145350040E+03  0.80240665961E+02 0.  0.
         13    1    4    4    0    0  0.14197726395E+03  0.10648874315E+03 -0.17746217448E+03  0.25097852352E+03  0.00000000000E+00 0. -1.
        -14    1    4    4    0    0 -0.40423098653E+01  0.19964942425E+02 -0.20701408587E+01  0.20474976880E+02  0.00000000000E+00 0.  1.
        -11    1    3    3    0    0 -0.50271308266E+02 -0.12085251510E+03  0.15954011400E+03  0.20636274571E+03  0.00000000000E+00 0.  1.
         11    1    3    3    0    0 -0.60346673967E+02 -0.29190335520E+02  0.28554432520E+02  0.72863930468E+02  0.00000000000E+00 0. -1.
         21    1    1    2  502  501 -0.27316971851E+02  0.23589165042E+02 -0.25137310563E+02  0.43983520105E+02  0.00000000000E+00 0. -1.
<scales pt_clust_5="13000.00000" pt_clust_6="13000.00000" pt_clust_7="13000.00000" pt_clust_8="13000.00000" pt_clust_9="36.09246"></scales>
<clustering>
<clus scale="   36.092">  2  9  1 -1</clus>
<clus scale="   80.241">  5  6 -1 -1</clus>
<clus scale="   88.537">  7  8 -1 -1</clus>
<clus scale="  202.609">  2  5  1 -1</clus>
<clus scale="   36.092">  2  5  1 -1</clus>
</clustering>
</event>
<event>
 9    1  0.2674825E-005  0.2171846E+03  0.7546771E-02  0.1136948E+00
          1   -1    0    0  502    0  0.00000000000E+00  0.00000000000E+00  0.12422067091E+04  0.12422067091E+04  0.00000000000E+00 0. -1.
         -2   -1    0    0    0  501 -0.00000000000E+00 -0.00000000000E+00 -0.49500035362E+02  0.49500035362E+02  0.00000000000E+00 0.  1.
        -24    2    1    2    0    0 -0.10996197359E+03  0.18132347372E+03  0.47321841418E+03  0.52474372065E+03  0.80314799897E+02 0.  0.
         23    2    1    2    0    0  0.13349351185E+03 -0.13266532392E+03  0.60576611797E+03  0.64105006053E+03  0.92585012556E+02 0.  0.
         11    1    3    3    0    0 -0.10846446128E+03  0.16619470217E+03  0.36501061967E+03  0.41547318910E+03  0.00000000000E+00 0. -1.
        -12    1    3    3    0    0 -0.14975123109E+01  0.15128771549E+02  0.10820779451E+03  0.10927053155E+03  0.00000000000E+00 0.  1.
        -11    1    4    4    0    0  0.49681513095E+02 -0.46677055117E+02  0.37256592357E+03  0.37875106287E+03  0.00000000000E+00 0. -1.
         11    1    4    4    0    0  0.83811998758E+02 -0.85988268805E+02  0.23320019440E+03  0.26229899767E+03  0.00000000000E+00 0.  1.
         21    1    1    2  502  501 -0.23531538259E+02 -0.48658149795E+02  0.11372214156E+03  0.12591296325E+03  0.00000000000E+00 0. -1.
<scales pt_clust_5="13000.00000" pt_clust_6="13000.00000" pt_clust_7="13000.00000" pt_clust_8="13000.00000" pt_clust_9="54.04950"></scales>
<clustering>
<clus scale="   54.050">  2  9  1 -1</clus>
<clus scale="   80.315">  5  6 -1 -1</clus>
<clus scale="   92.585">  7  8 -1 -1</clus>
<clus scale="  212.244">  2  5  1 -1</clus>
<clus scale="  217.185">  1  5  2 -1</clus>
</clustering>
</event>
<event>
 9    1  0.2674825E-005  0.1306230E+03  0.7546771E-02  0.1229486E+00
          3   -1    0    0  502    0  0.00000000000E+00  0.00000000000E+00  0.14479684825E+03  0.14479684825E+03  0.00000000000E+00 0. -1.
         -4   -1    0    0    0  501 -0.00000000000E+00 -0.00000000000E+00 -0.60188399759E+03  0.60188399759E+03  0.00000000000E+00 0.  1.
         23    2    1    2    0    0  0.81226952894E+02 -0.45784981222E+02 -0.54917171027E+03  0.56472370808E+03  0.92893577415E+02 0.  0.
        -24    2    1    2    0    0 -0.62837941535E+02  0.27599226907E+02  0.10783973006E+03  0.15167343334E+03  0.81640056220E+02 0.  0.
         11    1    4    4    0    0 -0.69447669285E+02 -0.66327180339E+01  0.85135110303E+02  0.11006797320E+03  0.00000000000E+00 0. -1.
        -12    1    4    4    0    0  0.66097277492E+01  0.34231944941E+02  0.22704619759E+02  0.41605460144E+02  0.00000000000E+00 0.  1.
        -11    1    3    3    0    0  0.49979600628E+01  0.23903270253E+02 -0.60226628469E+02  0.64989173793E+02  0.00000000000E+00 0. -1.
         11    1    3    3    0    0  0.76228992831E+02 -0.69688251475E+02 -0.48894508180E+03  0.49973453429E+03  0.00000000000E+00 0.  1.
         21    1    1    2  502  501 -0.18389011359E+02  0.18185754315E+02 -0.15755169134E+02  0.30283704416E+02  0.00000000000E+00 0. -1.
<scales pt_clust_5="13000.00000" pt_clust_6="13000.00000" pt_clust_7="13000.00000" pt_clust_8="13000.00000" pt_clust_9="25.86266"></scales>
<clustering>
<clus scale="   25.863">  1  9  2 -1</clus>
<clus scale="   81.640">  5  6 -1 -1</clus>
<clus scale="   92.894">  7  8 -1 -1</clus>
<clus scale="  122.875">  1  5  2 -1</clus>
<clus scale="   25.863">  1  5  2 -1</clus>
</clustering>
</event>
<event>
 9    1  0.2674825E-005  0.1148748E+03  0.7546771E-02  0.1255274E+00
          1   -1    0    0  502    0  0.00000000000E+00  0.00000000000E+00  0.15887228921E+03  0.15887228921E+03  0.00000000000E+00 0. -1.
         -2   -1    0    0    0  501 -0.00000000000E+00 -0.00000000000E+00 -0.13137679339E+03  0.13137679339E+03  0.00000000000E+00 0.  1.
        -24    2    1    2    0    0 -0.71516928577E+02 -0.24242606656E+01 -0.61791144089E+02  0.12375200751E+03  0.79849018535E+02 0.  0.
         23    2    1    2    0    0  0.71416803099E+02 -0.21059068885E+02  0.78513290962E+02  0.14066024403E+03  0.89872817064E+02 0.  0.
         11    1    3    3    0    0 -0.50181283123E+02 -0.33919089661E+02 -0.13113195701E+02  0.61972749824E+02  0.00000000000E+00 0. -1.
        -12    1    3    3    0    0 -0.21335645454E+02  0.31494828995E+02 -0.48677948388E+02  0.61779257681E+02  0.00000000000E+00 0.  1.
        -11    1    4    4    0    0 -0.11827775007E+02 -0.27230670821E+02  0.64434830726E+01  0.30379667034E+02  0.00000000000E+00 0.  1.
         11    1    4    4    0    0  0.83244578105E+02  0.61716019358E+01  0.72069807890E+02  0.11028057700E+03  0.00000000000E+00 0. -1.
         21    1    1    2  502  501  0.10012547854E+00  0.23483329551E+02  0.10773348938E+02  0.25836831060E+02  0.00000000000E+00 0. -1.
<scales pt_clust_5="13000.00000" pt_clust_6="13000.00000" pt_clust_7="13000.00000" pt_clust_8="13000.00000" pt_clust_9="23.48354"></scales>
<clustering>
<clus scale="   23.484">  1  9  2 -1</clus>
<clus scale="   79.849">  5  6 -1 -1</clus>
<clus scale="   89.873">  7  8 -1 -1</clus>
<clus scale="  107.215">  2  5  1 -1</clus>
<clus scale="   23.484">  1  5  2 -1</clus>
</clustering>
</event>
<event>
 9    1  0.2674825E-005  0.1184169E+03  0.7546771E-02  0.1248380E+00
          1   -1    0    0  502    0  0.00000000000E+00  0.00000000000E+00  0.75693420124E+03  0.75693420124E+03  0.00000000000E+00 0. -1.
         -2   -1    0    0    0  501 -0.00000000000E+00 -0.00000000000E+00 -0.12369734773E+03  0.12369734773E+03  0.00000000000E+00 0.  1.
         23    2    1    2    0    0  0.36161170527E+02  0.70905026502E+02 -0.68435529959E+02  0.13801548369E+03  0.89608587417E+02 0.  0.
        -24    2    1    2    0    0  0.43880684352E+02 -0.64073070405E+02  0.61190214943E+03  0.62215001582E+03  0.81335901594E+02 0.  0.
         13    1    4    4    0    0  0.63428133463E+02 -0.44413250139E+02  0.33350691879E+03  0.34237775889E+03  0.00000000000E+00 0. -1.
        -14    1    4    4    0    0 -0.19547449111E+02 -0.19659820266E+02  0.27839523065E+03  0.27977225693E+03  0.00000000000E+00 0.  1.
        -11    1    3    3    0    0  0.37085132139E+02  0.28408799445E+02 -0.81160776646E+02  0.93645280593E+02  0.00000000000E+00 0.  1.
         11    1    3    3    0    0 -0.92396161155E+00  0.42496227057E+02  0.12725246687E+02  0.44370203092E+02  0.00000000000E+00 0. -1.
         21    1    1    2  502  501 -0.80041854879E+02 -0.68319560974E+01  0.89770234032E+02  0.12046604947E+03  0.00000000000E+00 0. -1.
<scales pt_clust_5="13000.00000" pt_clust_6="13000.00000" pt_clust_7="13000.00000" pt_clust_8="13000.00000" pt_clust_9="80.33290"></scales>
<clustering>
<clus scale="   80.333">  1  9  2 -1</clus>
<clus scale="   81.336">  5  6 -1 -1</clus>
<clus scale="   89.609">  7  8 -1 -1</clus>
<clus scale="  112.287">  1  5  2 -1</clus>
<clus scale="   80.333">  1  5  2 -1</clus>
</clustering>
</event>
<event>
 9    1  0.2674825E-005  0.1287005E+03  0.7546771E-02  0.1244039E+00
          1   -1    0    0  502    0  0.00000000000E+00  0.00000000000E+00  0.61922008467E+03  0.61922008467E+03  0.00000000000E+00 0. -1.
         -2   -1    0    0    0  501 -0.00000000000E+00 -0.00000000000E+00 -0.89623964651E+02  0.89623964651E+02  0.00000000000E+00 0.  1.
         23    2    1    2    0    0 -0.26894622687E+02  0.13605803423E+02 -0.29484298446E+02  0.99889759273E+02  0.90554964174E+02 0.  0.
        -24    2    1    2    0    0 -0.86757393248E+02 -0.27424856939E+02  0.35061430159E+03  0.37111848776E+03  0.80743887789E+02 0.  0.
         11    1    4    4    0    0 -0.76530978281E+02 -0.53590730890E+02  0.27651612922E+03  0.29187347737E+03  0.00000000000E+00 0. -1.
        -12    1    4    4    0    0 -0.10226414967E+02  0.26165873951E+02  0.74098172364E+02  0.79245010381E+02  0.00000000000E+00 0.  1.
        -13    1    3    3    0    0 -0.33105748124E+01  0.47712082610E+02 -0.33255682648E+02  0.58252409057E+02  0.00000000000E+00 0.  1.
         13    1    3    3    0    0 -0.23584047874E+02 -0.34106279188E+02  0.37713842026E+01  0.41637350215E+02  0.00000000000E+00 0. -1.
         21    1    1    2  502  501  0.11365201593E+03  0.13819053517E+02  0.20846611688E+03  0.23783580230E+03  0.00000000000E+00 0.  1.
<scales pt_clust_5="13000.00000" pt_clust_6="13000.00000" pt_clust_7="13000.00000" pt_clust_8="13000.00000" pt_clust_9="100.22099"></scales>
<clustering>
<clus scale="   80.744">  5  6 -1 -1</clus>
<clus scale="   90.555">  7  8 -1 -1</clus>
<clus scale="   95.439">  2  7  1 -1</clus>
<clus scale="  100.221">  2  9  1 -1</clus>
<clus scale="  128.701">  1  5  2 -1</clus>
</clustering>
</event>
<event>
 9    1  0.2674825E-005  0.9555651E+02  0.7546771E-02  0.1297297E+00
          1   -1    0    0  502    0  0.00000000000E+00  0.00000000000E+00  0.30586071398E+03  0.30586071398E+03  0.00000000000E+00 0. -1.
         -2   -1    0    0    0  501 -0.00000000000E+00 -0.00000000000E+00 -0.60634269347E+02  0.60634269347E+02  0.00000000000E+00 0.  1.
        -24    2    1    2    0    0 -0.32835021049E+02 -0.15377211294E+02  0.72774589528E+01  0.88982935418E+02  0.80934567104E+02 0.  0.
         23    2    1    2    0    0  0.47099758391E+01  0.17355356728E+02  0.22888048015E+03  0.24789500856E+03  0.93500100508E+02 0.  0.
         11    1    3    3    0    0 -0.34789901737E+02  0.23739115161E+02  0.21534600951E+02  0.47303508217E+02  0.00000000000E+00 0. -1.
        -12    1    3    3    0    0  0.19548806884E+01 -0.39116326455E+02 -0.14257141998E+02  0.41679427201E+02  0.00000000000E+00 0.  1.
        -11    1    4    4    0    0 -0.16540737544E+02 -0.29363896508E+02  0.40708876732E+02  0.52849286290E+02  0.00000000000E+00 0.  1.
         11    1    4    4    0    0  0.21250713383E+02  0.46719253236E+02  0.18817160342E+03  0.19504572227E+03  0.00000000000E+00 0. -1.
         21    1    1    2  502  501  0.28125045210E+02 -0.19781454340E+01  0.90685055334E+01  0.29617039353E+02  0.00000000000E+00 0. -1.
<scales pt_clust_5="13000.00000" pt_clust_6="13000.00000" pt_clust_7="13000.00000" pt_clust_8="13000.00000" pt_clust_9="28.19452"></scales>
<clustering>
<clus scale="   28.195">  2  9  1 -1</clus>
<clus scale="   80.935">  5  6 -1 -1</clus>
<clus scale="   83.302">  2  5  1 -1</clus>
<clus scale="   93.500">  7  8 -1 -1</clus>
<clus scale="   95.557">  1  5  2 -1</clus>
</clustering>
</event>
<event>
 9    1  0.2674825E-005  0.1290408E+03  0.7546771E-02  0.1231272E+00
          1   -1    0    0  502    0  0.00000000000E+00  0.00000000000E+00  0.22400700327E+03  0.22400700327E+03  0.00000000000E+00 0. -1.
         -2   -1    0    0    0  501 -0.00000000000E+00 -0.00000000000E+00 -0.13488364223E+03  0.13488364223E+03  0.00000000000E+00 0.  1.
        -24    2    1    2    0    0  0.14648204322E+02  0.95430236607E+02 -0.54236680712E+02  0.13794886162E+03  0.82260384989E+02 0.  0.
         23    2    1    2    0    0  0.13181037914E+01 -0.79558459297E+02  0.61034345526E+02  0.13559334178E+03  0.91263777911E+02 0.  0.
         13    1    3    3    0    0 -0.46967863024E+01  0.10499535405E+03 -0.42357061827E+02  0.11331462774E+03  0.00000000000E+00 0. -1.
        -14    1    3    3    0    0  0.19344990625E+02 -0.95651174411E+01 -0.11879618885E+02  0.24634233879E+02  0.00000000000E+00 0.  1.
        -11    1    4    4    0    0 -0.29059391076E+02  0.63917047145E+01  0.18115721526E+02  0.34835060862E+02  0.00000000000E+00 0. -1.
         11    1    4    4    0    0  0.30377494867E+02 -0.85950164012E+02  0.42918624000E+02  0.10075828092E+03  0.00000000000E+00 0.  1.
         21    1    1    2  502  501 -0.15966308114E+02 -0.15871777310E+02  0.82325696227E+02  0.85348442100E+02  0.00000000000E+00 0. -1.
<scales pt_clust_5="13000.00000" pt_clust_6="13000.00000" pt_clust_7="13000.00000" pt_clust_8="13000.00000" pt_clust_9="22.51303"></scales>
<clustering>
<clus scale="   22.513">  1  9  2 -1</clus>
<clus scale="   82.260">  5  6 -1 -1</clus>
<clus scale="   91.264">  7  8 -1 -1</clus>
<clus scale="  122.838">  2  5  1 -1</clus>
<clus scale="   22.513">  1  5  2 -1</clus>
</clustering>
</event>
<event>
 9    1  0.2674825E-005  0.9577008E+02  0.7546771E-02  0.1294434E+00
         -2   -1    0    0    0  501 -0.00000000000E+00  0.00000000000E+00  0.38097738047E+02  0.38097738047E+02  0.00000000000E+00 0.  1.
          1   -1    0    0  502    0  0.00000000000E+00 -0.00000000000E+00 -0.31291989497E+03  0.31291989497E+03  0.00000000000E+00 0. -1.
        -24    2    1    2    0    0  0.16300206724E+02 -0.26447022319E+02 -0.78386660901E+02  0.11545377671E+03  0.78866749785E+02 0.  0.
         23    2    1    2    0    0 -0.41462819182E+02  0.26730721793E+02 -0.13091937836E+03  0.16538124290E+03  0.88189426857E+02 0.  0.
         13    1    3    3    0    0  0.23404869359E+02 -0.38674064446E+02 -0.87599924787E+02  0.98575950380E+02  0.00000000000E+00 0. -1.
        -14    1    3    3    0    0 -0.71046626348E+01  0.12227042127E+02  0.92132638865E+01  0.16877826335E+02  0.00000000000E+00 0.  1.
        -11    1    4    4    0    0 -0.13389687049E+02  0.26380036327E+02  0.18831615036E+01  0.29643487196E+02  0.00000000000E+00 0. -1.
         11    1    4    4    0    0 -0.28073132133E+02  0.35068546543E+00 -0.13280253986E+03  0.13573775570E+03  0.00000000000E+00 0.  1.
         21    1    1    2  502  501  0.25162612458E+02 -0.28369947384E+00 -0.65516117665E+02  0.70182613409E+02  0.00000000000E+00 0. -1.
<scales pt_clust_5="13000.00000" pt_clust_6="13000.00000" pt_clust_7="13000.00000" pt_clust_8="13000.00000" pt_clust_9="25.16421"></scales>
<clustering>
<clus scale="   25.164">  2  9  1 -1</clus>
<clus scale="   78.867">  5  6 -1 -1</clus>
<clus scale="   87.261">  1  5  2 -1</clus>
<clus scale="   88.189">  7  8 -1 -1</clus>
<clus scale="   25.164">  2  5  1 -1</clus>
</clustering>
</event>
<event>
 9    1  0.2674825E-005  0.1027080E+03  0.7546771E-02  0.1282327E+00
          1   -1    0    0  502    0  0.00000000000E+00  0.00000000000E+00  0.29900189576E+03  0.29900189576E+03  0.00000000000E+00 0. -1.
         -2   -1    0    0    0  501 -0.00000000000E+00 -0.00000000000E+00 -0.95359281878E+02  0.95359281878E+02  0.00000000000E+00 0.  1.
         23    2    1    2    0    0 -0.27403609131E+01 -0.34488054425E+02 -0.44540586385E+02  0.11057030503E+03  0.95105168330E+02 0.  0.
        -24    2    1    2    0    0 -0.38492544296E+01  0.66438867799E+02  0.20276899944E+03  0.22787372727E+03  0.79888851117E+02 0.  0.
         13    1    4    4    0    0 -0.39124660208E+02  0.48201938805E+02  0.14542619441E+03  0.15812319236E+03  0.00000000000E+00 0. -1.
        -14    1    4    4    0    0  0.35275405779E+02  0.18236928994E+02  0.57342805026E+02  0.69750534910E+02  0.00000000000E+00 0.  1.
        -13    1    3    3    0    0 -0.30455767119E+02 -0.33882797638E+02  0.12420502551E+02  0.47221463449E+02  0.00000000000E+00 0.  1.
         13    1    3    3    0    0  0.27715406206E+02 -0.60525678725E+00 -0.56961088936E+02  0.63348841582E+02  0.00000000000E+00 0. -1.
         21    1    1    2  502  501  0.65896153427E+01 -0.31950813374E+02  0.45414200823E+02  0.55917145331E+02  0.00000000000E+00 0.  1.
<scales pt_clust_5="13000.00000" pt_clust_6="13000.00000" pt_clust_7="13000.00000" pt_clust_8="13000.00000" pt_clust_9="32.62327"></scales>
<clustering>
<clus scale="   32.623">  1  9  2 -1</clus>
<clus scale="   79.889">  5  6 -1 -1</clus>
<clus scale="   88.804">  1  5  2 -1</clus>
<clus scale="   95.105">  7  8 -1 -1</clus>
<clus scale="   32.623">  1  5  2 -1</clus>
</clustering>
</event>
<event>
 9    1  0.2674825E-005  0.9602907E+02  0.7546771E-02  0.1294896E+00
         -2   -1    0    0    0  501 -0.00000000000E+00  0.00000000000E+00  0.22683011512E+02  0.22683011512E+02  0.00000000000E+00 0.  1.
          1   -1    0    0  502    0  0.00000000000E+00 -0.00000000000E+00 -0.11854303985E+04  0.11854303985E+04  0.00000000000E+00 0. -1.
         23    2    1    2    0    0 -0.19757106460E+02 -0.62548406042E+01 -0.13250136476E+03  0.16191249186E+03  0.90717016435E+02 0.  0.
        -24    2    1    2    0    0  0.60756322489E+02  0.58083175173E+02 -0.65075302307E+03  0.66099701320E+03  0.79828368792E+02 0.  0.
         11    1    4    4    0    0  0.62269410923E+02  0.75486883653E+02 -0.57395632885E+03  0.58223845336E+03  0.00000000000E+00 0. -1.
        -12    1    4    4    0    0 -0.15130884340E+01 -0.17403708480E+02 -0.76796694222E+02  0.78758559845E+02  0.00000000000E+00 0.  1.
        -13    1    3    3    0    0  0.24363669441E+02 -0.27784280392E+02 -0.88815208791E+02  0.96196132657E+02  0.00000000000E+00 0. -1.
         13    1    3    3    0    0 -0.44120775901E+02  0.21529439788E+02 -0.43686155968E+02  0.65716359204E+02  0.00000000000E+00 0.  1.
         21    1    1    2  502  501 -0.40999216030E+02 -0.51828334569E+02 -0.37949299918E+03  0.38520390497E+03  0.00000000000E+00 0.  1.
<scales pt_clust_5="13000.00000" pt_clust_6="13000.00000" pt_clust_7="13000.00000" pt_clust_8="13000.00000" pt_clust_9="66.08413"></scales>
<clustering>
<clus scale="   66.084">  2  9  1 -1</clus>
<clus scale="   79.828">  5  6 -1 -1</clus>
<clus scale="   85.817">  2  5  1 -1</clus>
<clus scale="   90.717">  7  8 -1 -1</clus>
<clus scale="   66.084">  2  5  1 -1</clus>
</clustering>
</event>
<event>
 9    1  0.2674825E-005  0.1209778E+03  0.7546771E-02  0.1244330E+00
          1   -1    0    0  502    0  0.00000000000E+00  0.00000000000E+00  0.64969536351E+03  0.64969536351E+03  0.00000000000E+00 0. -1.
         -2   -1    0    0    0  501 -0.00000000000E+00 -0.00000000000E+00 -0.55371921632E+02  0.55371921632E+02  0.00000000000E+00 0.  1.
        -24    2    1    2    0    0 -0.76650008911E+02 -0.37043273654E+02  0.32073010420E+02  0.12239004051E+03  0.81873170396E+02 0.  0.
         23    2    1    2    0    0  0.59244618966E+02  0.42086435306E+01  0.32923055731E+03  0.34671258142E+03  0.91045135461E+02 0.  0.
         11    1    3    3    0    0 -0.64556035244E+02  0.34280029265E+01 -0.67765896065E+01  0.65001192736E+02  0.00000000000E+00 0. -1.
        -12    1    3    3    0    0 -0.12093973667E+02 -0.40471276581E+02  0.38849600026E+02  0.57388847778E+02  0.00000000000E+00 0.  1.
        -11    1    4    4    0    0  0.57943164349E+02  0.25111712007E+02  0.31529352023E+03  0.32155561303E+03  0.00000000000E+00 0. -1.
         11    1    4    4    0    0  0.13014546176E+01 -0.20903068476E+02  0.13937037082E+02  0.25156968388E+02  0.00000000000E+00 0.  1.
         21    1    1    2  502  501  0.17405389945E+02  0.32834630123E+02  0.23301987415E+03  0.23596466321E+03  0.00000000000E+00 0. -1.
<scales pt_clust_5="13000.00000" pt_clust_6="13000.00000" pt_clust_7="13000.00000" pt_clust_8="13000.00000" pt_clust_9="37.16262"></scales>
<clustering>
<clus scale="   37.163">  1  9  2 -1</clus>
<clus scale="   81.873">  5  6 -1 -1</clus>
<clus scale="   91.045">  7  8 -1 -1</clus>
<clus scale="  114.235">  2  5  1 -1</clus>
<clus scale="   37.163">  1  5  2 -1</clus>
</clustering>
</event>
<event>
 9    1  0.2674825E-005  0.9239316E+02  0.7546771E-02  0.1304604E+00
          1   -1    0    0  502    0  0.00000000000E+00  0.00000000000E+00  0.48583879831E+03  0.48583879831E+03  0.00000000000E+00 0. -1.
         -2   -1    0    0    0  501 -0.00000000000E+00 -0.00000000000E+00 -0.29449502285E+02  0.29449502285E+02  0.00000000000E+00 0.  1.
        -24    2    1    2    0    0 -0.15912400760E+02 -0.80301010081E+01  0.75665314615E+02  0.11091024851E+03  0.79108510094E+02 0.  0.
         23    2    1    2    0    0  0.13162113717E+02 -0.25192360640E+02  0.21360342513E+03  0.23396509375E+03  0.91133668822E+02 0.  0.
         13    1    3    3    0    0  0.23371936181E+00  0.35019793485E+02  0.30097719405E+02  0.46176977747E+02  0.00000000000E+00 0. -1.
        -14    1    3    3    0    0 -0.16146120122E+02 -0.43049894493E+02  0.45567595210E+02  0.64733270766E+02  0.00000000000E+00 0.  1.
        -13    1    4    4    0    0  0.44509828316E+02 -0.34166014633E+02  0.17310283632E+03  0.18196986925E+03  0.00000000000E+00 0. -1.
         13    1    4    4    0    0 -0.31347714599E+02  0.89736539931E+01  0.40500588804E+02  0.51995224493E+02  0.00000000000E+00 0.  1.
         21    1    1    2  502  501  0.27502870425E+01  0.33222461648E+02  0.16712055628E+03  0.17041295833E+03  0.00000000000E+00 0. -1.
<scales pt_clust_5="13000.00000" pt_clust_6="13000.00000" pt_clust_7="13000.00000" pt_clust_8="13000.00000" pt_clust_9="33.33611"></scales>
<clustering>
<clus scale="   33.336">  1  9  2 -1</clus>
<clus scale="   79.109">  5  6 -1 -1</clus>
<clus scale="   80.556">  2  5  1 -1</clus>
<clus scale="   91.134">  7  8 -1 -1</clus>
<clus scale="   33.336">  1  5  2 -1</clus>
</clustering>
</event>
<event>
 9    1  0.2674825E-005  0.1175135E+03  0.7546771E-02  0.1250878E+00
          1   -1    0    0  502    0  0.00000000000E+00  0.00000000000E+00  0.37547683850E+03  0.37547683850E+03  0.00000000000E+00 0. -1.
         -2   -1    0    0    0  501 -0.00000000000E+00 -0.00000000000E+00 -0.28947524035E+03  0.28947524035E+03  0.00000000000E+00 0.  1.
        -24    2    1    2    0    0  0.11647069604E+02  0.70905070479E+02 -0.22557711336E+03  0.24958678375E+03  0.79027497114E+02 0.  0.
         23    2    1    2    0    0  0.38168809062E+02 -0.12093123019E+03  0.83329486577E+02  0.17644700969E+03  0.90047340178E+02 0.  0.
         11    1    3    3    0    0  0.16691208998E+02 -0.13266780152E+02 -0.32135503504E+02  0.38565457327E+02  0.00000000000E+00 0. -1.
        -12    1    3    3    0    0 -0.50441393939E+01  0.84171850631E+02 -0.19344160985E+03  0.21102132642E+03  0.00000000000E+00 0.  1.
        -11    1    4    4    0    0  0.73103394642E+01 -0.59516132858E+02 -0.97398607998E+01  0.60749288241E+02  0.00000000000E+00 0.  1.
         11    1    4    4    0    0  0.30858469597E+02 -0.61415097334E+02  0.93069347377E+02  0.11569772144E+03  0.00000000000E+00 0. -1.
         21    1    1    2  502  501 -0.49815878666E+02  0.50026159712E+02  0.22824922493E+03  0.23891828541E+03  0.00000000000E+00 0. -1.
<scales pt_clust_5="13000.00000" pt_clust_6="13000.00000" pt_clust_7="13000.00000" pt_clust_8="13000.00000" pt_clust_9="70.59914"></scales>
<clustering>
<clus scale="   70.599">  1  9  2 -1</clus>
<clus scale="   79.027">  5  6 -1 -1</clus>
<clus scale="   90.047">  7  8 -1 -1</clus>
<clus scale="  109.299">  2  5  1 -1</clus>
<clus scale="   70.599">  1  5  2 -1</clus>
</clustering>
</event>
<event>
 9    1  0.2674825E-005  0.2425861E+03  0.7546771E-02  0.1160981E+00
         -2   -1    0    0    0  501 -0.00000000000E+00  0.00000000000E+00  0.26109012126E+03  0.26109012126E+03  0.00000000000E+00 0.  1.
          1   -1    0    0  502    0  0.00000000000E+00 -0.00000000000E+00 -0.52177006465E+03  0.52177006465E+03  0.00000000000E+00 0. -1.
        -24    2    1    2    0    0 -0.55123824318E+01 -0.30214829467E+02  0.50893735866E+02  0.10000502607E+03  0.80420834420E+02 0.  0.
         23    2    1    2    0    0  0.95621145319E+02 -0.18024308531E+03  0.73012113831E+02  0.23528577384E+03  0.91638711076E+02 0.  0.
         11    1    3    3    0    0 -0.29411884499E+02 -0.38246471479E+02  0.61388141263E+01  0.48636782061E+02  0.00000000000E+00 0. -1.
        -12    1    3    3    0    0  0.23899502067E+02  0.80316420122E+01  0.44754921740E+02  0.51368244008E+02  0.00000000000E+00 0.  1.
        -13    1    4    4    0    0  0.40403038687E+02 -0.16633933320E+02 -0.82155115585E+01  0.44458833802E+02  0.00000000000E+00 0. -1.
         13    1    4    4    0    0  0.55218106632E+02 -0.16360915199E+03  0.81227625390E+02  0.19082694003E+03  0.00000000000E+00 0.  1.
         21    1    1    2  502  501 -0.90108762887E+02  0.21045791478E+03 -0.38458579309E+03  0.44756938600E+03  0.00000000000E+00 0. -1.
<scales pt_clust_5="13000.00000" pt_clust_6="13000.00000" pt_clust_7="13000.00000" pt_clust_8="13000.00000" pt_clust_9="224.61155"></scales>
<clustering>
<clus scale="   80.421">  5  6 -1 -1</clus>
<clus scale="   86.086">  1  5  2 -1</clus>
<clus scale="   91.639">  7  8 -1 -1</clus>
<clus scale="  224.612">  2  9  1 -1</clus>
<clus scale="  224.612">  2  5  1 -1</clus>
</clustering>
</event>
<event>
 9    1  0.2674825E-005  0.1651232E+03  0.7546771E-02  0.1207918E+00
         -2   -1    0    0    0  501 -0.00000000000E+00  0.00000000000E+00  0.13539588754E+03  0.13539588754E+03  0.00000000000E+00 0.  1.
          1   -1    0    0  502    0  0.00000000000E+00 -0.00000000000E+00 -0.76033299331E+03  0.76033299331E+03  0.00000000000E+00 0. -1.
        -24    2    1    2    0    0 -0.13876092971E+03  0.15932055795E+02  0.60834935010E+02  0.17884287099E+03  0.93677410133E+02 0.  0.
         23    2    1    2    0    0  0.26706585557E+02 -0.12798780490E+01 -0.32735356792E+03  0.34107400362E+03  0.91957803976E+02 0.  0.
         13    1    3    3    0    0 -0.34500906817E+02  0.47841248641E+02  0.17644520836E+02  0.61566441820E+02  0.00000000000E+00 0. -1.
        -14    1    3    3    0    0 -0.10426002289E+03 -0.31909192846E+02  0.43190414174E+02  0.11727642917E+03  0.00000000000E+00 0.  1.
        -11    1    4    4    0    0  0.42098798254E+02 -0.37297704180E+02 -0.20714157163E+03  0.21464169737E+03  0.00000000000E+00 0. -1.
         11    1    4    4    0    0 -0.15392212697E+02  0.36017826131E+02 -0.12021199629E+03  0.12643230625E+03  0.00000000000E+00 0.  1.
         21    1    1    2  502  501  0.11205434415E+03 -0.14652177746E+02 -0.35841847285E+03  0.37581200625E+03  0.00000000000E+00 0. -1.
<scales pt_clust_5="13000.00000" pt_clust_6="13000.00000" pt_clust_7="13000.00000" pt_clust_8="13000.00000" pt_clust_9="135.97870"></scales>
<clustering>
<clus scale="   91.958">  7  8 -1 -1</clus>
<clus scale="   93.677">  5  6 -1 -1</clus>
<clus scale="   95.766">  2  7  1 -1</clus>
<clus scale="  135.979">  2  9  1 -1</clus>
<clus scale="   95.766">  2  5  1 -1</clus>
</clustering>
</event>
<event>
 9    1  0.2674825E-005  0.9946940E+02  0.7546771E-02  0.1288304E+00
         -2   -1    0    0    0  501 -0.00000000000E+00  0.00000000000E+00  0.47349619834E+03  0.47349619834E+03  0.00000000000E+00 0.  1.
          1   -1    0    0  502    0  0.00000000000E+00 -0.00000000000E+00 -0.37161768416E+02  0.37161768416E+02  0.00000000000E+00 0. -1.
         23    2    1    2    0    0 -0.36984755332E+02 -0.75193884616E+01  0.36201044091E+03  0.37586455597E+03  0.93798676816E+02 0.  0.
        -24    2    1    2    0    0  0.16710692965E+02  0.16789917043E+02  0.74586510316E+02  0.11249881005E+03  0.80818847845E+02 0.  0.
         13    1    4    4    0    0 -0.22259394064E+02  0.27595226851E+02  0.10962105951E+02  0.37109903475E+02  0.00000000000E+00 0. -1.
        -14    1    4    4    0    0  0.38970087029E+02 -0.10805309808E+02  0.63624404365E+02  0.75388906570E+02  0.00000000000E+00 0.  1.
        -13    1    3    3    0    0  0.26630558770E+02 -0.23425740597E+02  0.13359995763E+03  0.13822771308E+03  0.00000000000E+00 0. -1.
         13    1    3    3    0    0 -0.63615314102E+02  0.15906352136E+02  0.22841048328E+03  0.23763684289E+03  0.00000000000E+00 0.  1.
         21    1    1    2  502  501  0.20274062367E+02 -0.92705285813E+01 -0.26252130159E+00  0.22294600747E+02  0.00000000000E+00 0. -1.
<scales pt_clust_5="13000.00000" pt_clust_6="13000.00000" pt_clust_7="13000.00000" pt_clust_8="13000.00000" pt_clust_9="22.29306"></scales>
<clustering>
<clus scale="   22.293">  2  9  1 -1</clus>
<clus scale="   80.819">  5  6 -1 -1</clus>
<clus scale="   87.336">  2  5  1 -1</clus>
<clus scale="   93.799">  7  8 -1 -1</clus>
<clus scale="   22.293">  2  5  1 -1</clus>
</clustering>
</event>
<event>
 9    1  0.2674825E-005  0.9297242E+02  0.7546771E-02  0.1303150E+00
          1   -1    0    0  502    0  0.00000000000E+00  0.00000000000E+00  0.16932060394E+03  0.16932060394E+03  0.00000000000E+00 0. -1.
         -2   -1    0    0    0  501 -0.00000000000E+00 -0.00000000000E+00 -0.69410136009E+02  0.69410136009E+02  0.00000000000E+00 0.  1.
         23    2    1    2    0    0 -0.26093399670E+02 -0.51838817444E+01 -0.99639990989E+00  0.94652445988E+02  0.90831462515E+02 0.  0.
        -24    2    1    2    0    0  0.35263126247E+01  0.10756608045E+02  0.76145940509E+02  0.11011607645E+03  0.78735040092E+02 0.  0.
         11    1    4    4    0    0  0.32329000740E+02 -0.13610112078E+02  0.14743665822E+02  0.38049640228E+02  0.00000000000E+00 0. -1.
        -12    1    4    4    0    0 -0.28802688116E+02  0.24366720123E+02  0.61402274687E+02  0.72066436217E+02  0.00000000000E+00 0.  1.
        -13    1    3    3    0    0 -0.31487890140E+02 -0.31138158833E+02 -0.31421386606E+02  0.54298947478E+02  0.00000000000E+00 0.  1.
         13    1    3    3    0    0  0.53944904702E+01  0.25954277088E+02  0.30424986696E+02  0.40353498511E+02  0.00000000000E+00 0. -1.
         21    1    1    2  502  501  0.22567087045E+02 -0.55727263007E+01  0.24760927329E+02  0.33962217512E+02  0.00000000000E+00 0. -1.
<scales pt_clust_5="13000.00000" pt_clust_6="13000.00000" pt_clust_7="13000.00000" pt_clust_8="13000.00000" pt_clust_9="23.24497"></scales>
<clustering>
<clus scale="   23.245">  1  9  2 -1</clus>
<clus scale="   78.735">  5  6 -1 -1</clus>
<clus scale="   81.196">  1  5  2 -1</clus>
<clus scale="   90.831">  7  8 -1 -1</clus>
<clus scale="   23.245">  1  5  2 -1</clus>
</clustering>
</event>
<event>
 9    1  0.2674825E-005  0.1173479E+03  0.7546771E-02  0.1253001E+00
         -2   -1    0    0    0  501 -0.00000000000E+00  0.00000000000E+00  0.13196505684E+02  0.13196505684E+02  0.00000000000E+00 0.  1.
          1   -1    0    0  502    0  0.00000000000E+00 -0.00000000000E+00 -0.11673803460E+04  0.11673803460E+04  0.00000000000E+00 0. -1.
         23    2    1    2    0    0 -0.18358549074E+02 -0.55130305960E+02 -0.43507945284E+03  0.44805957442E+03  0.89926998123E+02 0.  0.
        -24    2    1    2    0    0 -0.23623683335E+01  0.52219125430E+02 -0.55233303165E+03  0.56443837759E+03  0.10385801075E+03 0.  0.
         13    1    4    4    0    0 -0.47452413590E+02  0.57092457068E+01 -0.16726060195E+03  0.17395527013E+03  0.00000000000E+00 0. -1.
        -14    1    4    4    0    0  0.45090045256E+02  0.46509879723E+02 -0.38507242970E+03  0.39048310745E+03  0.00000000000E+00 0.  1.
        -11    1    3    3    0    0 -0.34661460705E+02  0.11393725322E+02 -0.19579082352E+03  0.19916144308E+03  0.00000000000E+00 0. -1.
         11    1    3    3    0    0  0.16302911630E+02 -0.66524031282E+02 -0.23928862932E+03  0.24889813135E+03  0.00000000000E+00 0.  1.
         21    1    1    2  502  501  0.20720917408E+02  0.29111805306E+01 -0.16677135579E+03  0.16807889964E+03  0.00000000000E+00 0.  1.
<scales pt_clust_5="13000.00000" pt_clust_6="13000.00000" pt_clust_7="13000.00000" pt_clust_8="13000.00000" pt_clust_9="20.92442"></scales>
<clustering>
<clus scale="   20.924">  2  9  1 -1</clus>
<clus scale="   89.927">  7  8 -1 -1</clus>
<clus scale="  103.858">  5  6 -1 -1</clus>
<clus scale="  105.218">  1  7  2 -1</clus>
<clus scale="   20.924">  2  5  1 -1</clus>
</clustering>
</event>
<event>
 9    1  0.2674825E-005  0.1157064E+03  0.7546771E-02  0.1259138E+00
         -2   -1    0    0    0  501 -0.00000000000E+00  0.00000000000E+00  0.13322817713E+03  0.13322817713E+03  0.00000000000E+00 0.  1.
          1   -1    0    0  502    0  0.00000000000E+00 -0.00000000000E+00 -0.12593243766E+03  0.12593243766E+03  0.00000000000E+00 0. -1.
        -24    2    1    2    0    0  0.19660181832E+01  0.33216486800E+02  0.49562105619E+02  0.12529759350E+03  0.11016299016E+03 0.  0.
         23    2    1    2    0    0  0.23165148131E+02 -0.37787617403E+02 -0.39087322430E+02  0.10812244877E+03  0.90543453852E+02 0.  0.
         13    1    3    3    0    0  0.25427174276E+02  0.50160880310E+02 -0.11792065350E+02  0.57460489994E+02  0.00000000000E+00 0. -1.
        -14    1    3    3    0    0 -0.23461156092E+02 -0.16944393510E+02  0.61354170969E+02  0.67837103505E+02  0.00000000000E+00 0.  1.
        -13    1    4    4    0    0  0.45814492604E+02  0.73352478042E+01 -0.33705057864E+02  0.57348099520E+02  0.00000000000E+00 0. -1.
         13    1    4    4    0    0 -0.22649344472E+02 -0.45122865207E+02 -0.53822645653E+01  0.50774349246E+02  0.00000000000E+00 0.  1.
         21    1    1    2  502  501 -0.25131166315E+02  0.45711306028E+01 -0.31790437205E+01  0.25740572533E+02  0.00000000000E+00 0.  1.
<scales pt_clust_5="13000.00000" pt_clust_6="13000.00000" pt_clust_7="13000.00000" pt_clust_8="13000.00000" pt_clust_9="25.54351"></scales>
<clustering>
<clus scale="   25.544">  2  9  1 -1</clus>
<clus scale="   90.543">  7  8 -1 -1</clus>
<clus scale="   97.212">  2  7  1 -1</clus>
<clus scale="  110.163">  5  6 -1 -1</clus>
<clus scale="   25.544">  2  5  1 -1</clus>
</clustering>
</event>
<event>
 9    1  0.2674825E-005  0.9308265E+02  0.7546771E-02  0.1301364E+00
         -2   -1    0    0    0  501 -0.00000000000E+00  0.00000000000E+00  0.73550910128E+02  0.73550910128E+02  0.00000000000E+00 0.  1.
          1   -1    0    0  502    0  0.00000000000E+00 -0.00000000000E+00 -0.26192730346E+03  0.26192730346E+03  0.00000000000E+00 0. -1.
        -24    2    1    2    0    0 -0.67952488871E+01 -0.87530697528E+01  0.66649349147E+01  0.82348423032E+02  0.81326808501E+02 0.  0.
         23    2    1    2    0    0  0.81521347800E+01  0.40541612247E+02 -0.65022812076E+02  0.11927476779E+03  0.91040784901E+02 0.  0.
         13    1    3    3    0    0  0.80549959844E+01  0.25402046374E+02 -0.22632362484E+02  0.34962419136E+02  0.00000000000E+00 0. -1.
        -14    1    3    3    0    0 -0.14850244872E+02 -0.34155116127E+02  0.29297297398E+02  0.47386003896E+02  0.00000000000E+00 0.  1.
        -13    1    4    4    0    0  0.47344447079E+02  0.37537813193E+02 -0.43600541572E+02  0.74509001563E+02  0.00000000000E+00 0. -1.
         13    1    4    4    0    0 -0.39192312299E+02  0.30037990543E+01 -0.21422270505E+02  0.44765766225E+02  0.00000000000E+00 0.  1.
         21    1    1    2  502  501 -0.13568858929E+01 -0.31788542494E+02 -0.13001851617E+03  0.13385502276E+03  0.00000000000E+00 0. -1.
<scales pt_clust_5="13000.00000" pt_clust_6="13000.00000" pt_clust_7="13000.00000" pt_clust_8="13000.00000" pt_clust_9="31.81749"></scales>
<clustering>
<clus scale="   31.817">  2  9  1 -1</clus>
<clus scale="   81.327">  5  6 -1 -1</clus>
<clus scale="   83.606">  1  5  2 -1</clus>
<clus scale="   91.041">  7  8 -1 -1</clus>
<clus scale="   31.817">  2  5  1 -1</clus>
</clustering>
</event>
<event>
 9    1  0.2674825E-005  0.1579542E+03  0.7546771E-02  0.1192933E+00
         -2   -1    0    0    0  501 -0.00000000000E+00  0.00000000000E+00  0.89813695682E+02  0.89813695682E+02  0.00000000000E+00 0.  1.
          1   -1    0    0  502    0  0.00000000000E+00 -0.00000000000E+00 -0.70845507785E+03  0.70845507785E+03  0.00000000000E+00 0. -1.
         23    2    1    2    0    0  0.69899151412E+02  0.11051157897E+03 -0.78799299325E+00  0.15971150603E+03  0.91697566887E+02 0.  0.
        -24    2    1    2    0    0 -0.71555039263E+02 -0.89154855705E+02 -0.54871581782E+03  0.56617732991E+03  0.79993801222E+02 0.  0.
         11    1    4    4    0    0 -0.33742996849E+02  0.19604669499E+01 -0.74493093746E+02  0.81802532253E+02  0.00000000000E+00 0. -1.
        -12    1    4    4    0    0 -0.37812042414E+02 -0.91115322655E+02 -0.47422272407E+03  0.48437479765E+03  0.00000000000E+00 0.  1.
        -13    1    3    3    0    0  0.96840770098E+01  0.74813141841E+02 -0.33382372734E+02  0.82493456401E+02  0.00000000000E+00 0. -1.
         13    1    3    3    0    0  0.60215074402E+02  0.35698437125E+02  0.32594379740E+02  0.77218049633E+02  0.00000000000E+00 0.  1.
         21    1    1    2  502  501  0.16558878508E+01 -0.21356723261E+02 -0.69137571351E+02  0.72379937589E+02  0.00000000000E+00 0.  1.
<scales pt_clust_5="13000.00000" pt_clust_6="13000.00000" pt_clust_7="13000.00000" pt_clust_8="13000.00000" pt_clust_9="21.42082"></scales>
<clustering>
<clus scale="   21.421">  2  9  1 -1</clus>
<clus scale="   79.994">  5  6 -1 -1</clus>
<clus scale="   91.698">  7  8 -1 -1</clus>
<clus scale="  151.460">  2  5  1 -1</clus>
<clus scale="   21.421">  2  5  1 -1</clus>
</clustering>
</event>
<event>
 9    1  0.2674825E-005  0.8879091E+02  0.7546771E-02  0.1308398E+00
          1   -1    0    0  502    0  0.00000000000E+00  0.00000000000E+00  0.34929605687E+03  0.34929605687E+03  0.00000000000E+00 0. -1.
         -2   -1    0    0    0  501 -0.00000000000E+00 -0.00000000000E+00 -0.56398391249E+03  0.56398391249E+03  0.00000000000E+00 0.  1.
        -24    2    1    2    0    0  0.25756366877E+02 -0.17553759268E+02 -0.47326189579E+03  0.48122784598E+03  0.81436434369E+02 0.  0.
         23    2    1    2    0    0  0.48320218162E+02  0.40507587417E+01 -0.52786822135E+02  0.11171595925E+03  0.85689875896E+02 0.  0.
         11    1    3    3    0    0 -0.79916909227E+01  0.28720903508E+02 -0.17376627831E+03  0.17630506771E+03  0.00000000000E+00 0. -1.
        -12    1    3    3    0    0  0.33748057800E+02 -0.46274662775E+02 -0.29949561748E+03  0.30492277827E+03  0.00000000000E+00 0.  1.
        -11    1    4    4    0    0  0.49146929495E+02  0.34635535285E+02 -0.54392858623E+02  0.81077888801E+02  0.00000000000E+00 0.  1.
         11    1    4    4    0    0 -0.82671133300E+00 -0.30584776543E+02  0.16060364878E+01  0.30638070452E+02  0.00000000000E+00 0. -1.
         21    1    1    2  502  501 -0.74076585039E+02  0.13503000526E+02  0.31136086231E+03  0.32033616413E+03  0.00000000000E+00 0. -1.
<scales pt_clust_5="13000.00000" pt_clust_6="13000.00000" pt_clust_7="13000.00000" pt_clust_8="13000.00000" pt_clust_9="75.29722"></scales>
<clustering>
<clus scale="   75.297">  1  9  2 -1</clus>
<clus scale="   81.436">  5  6 -1 -1</clus>
<clus scale="   84.693">  2  5  1 -1</clus>
<clus scale="   85.690">  7  8 -1 -1</clus>
<clus scale="   75.297">  1  5  2 -1</clus>
</clustering>
</event>
<event>
 9    1  0.2674825E-005  0.1306177E+03  0.7546771E-02  0.1241392E+00
          1   -1    0    0  502    0  0.00000000000E+00  0.00000000000E+00  0.31260457990E+03  0.31260457990E+03  0.00000000000E+00 0. -1.
         -2   -1    0    0    0  501 -0.00000000000E+00 -0.00000000000E+00 -0.13665301121E+03  0.13665301121E+03  0.00000000000E+00 0.  1.
        -24    2    1    2    0    0  0.45399398201E+02 -0.31050085099E+02 -0.47959343947E+02  0.10759627178E+03  0.79067350326E+02 0.  0.
         23    2    1    2    0    0  0.57056460010E+02  0.24572259117E+02  0.18771750779E+02  0.11226811795E+03  0.91610676964E+02 0.  0.
         11    1    3    3    0    0  0.22157029905E+02 -0.15661650494E+02  0.20285521294E+02  0.33878070261E+02  0.00000000000E+00 0. -1.
        -12    1    3    3    0    0  0.23242368296E+02 -0.15388434605E+02 -0.68244865241E+02  0.73718201520E+02  0.00000000000E+00 0.  1.
        -13    1    4    4    0    0 -0.89289663303E+01  0.29977320712E+02  0.32005808858E+02  0.44751960822E+02  0.00000000000E+00 0. -1.
         13    1    4    4    0    0  0.65985426340E+02 -0.54050615946E+01 -0.13234058079E+02  0.67516157128E+02  0.00000000000E+00 0.  1.
         21    1    1    2  502  501 -0.10245585821E+03  0.64778259821E+01  0.20513916185E+03  0.22939320137E+03  0.00000000000E+00 0. -1.
<scales pt_clust_5="13000.00000" pt_clust_6="13000.00000" pt_clust_7="13000.00000" pt_clust_8="13000.00000" pt_clust_9="93.10460"></scales>
<clustering>
<clus scale="   79.067">  5  6 -1 -1</clus>
<clus scale="   91.611">  7  8 -1 -1</clus>
<clus scale="   96.316">  2  5  1 -1</clus>
<clus scale="   93.105">  1  9  2 -1</clus>
<clus scale="   93.105">  1  5  2 -1</clus>
</clustering>
</event>
<event>
 9    1  0.2674825E-005  0.9451546E+02  0.7546771E-02  0.1296693E+00
         -2   -1    0    0    0  501 -0.00000000000E+00  0.00000000000E+00  0.66442180055E+02  0.66442180055E+02  0.00000000000E+00 0.  1.
          1   -1    0    0  502    0  0.00000000000E+00 -0.00000000000E+00 -0.47365173625E+03  0.47365173625E+03  0.00000000000E+00 0. -1.
        -24    2    1    2    0    0 -0.23119305323E+02 -0.26893824876E+02 -0.52341668067E+00  0.90714266320E+02  0.83492658683E+02 0.  0.
         23    2    1    2    0    0 -0.29961351328E+02  0.12372599062E+02 -0.10547663737E+03  0.14318430990E+03  0.91245064465E+02 0.  0.
         13    1    3    3    0    0  0.18556993855E+02  0.15957675051E+02 -0.15654558574E+02  0.29052962295E+02  0.00000000000E+00 0. -1.
        -14    1    3    3    0    0 -0.41676299178E+02 -0.42851499926E+02  0.15131141893E+02  0.61661304025E+02  0.00000000000E+00 0.  1.
        -11    1    4    4    0    0  0.27830866756E+02 -0.88549333131E+01 -0.59709200050E+02  0.66469207600E+02  0.00000000000E+00 0. -1.
         11    1    4    4    0    0 -0.57792218084E+02  0.21227532375E+02 -0.45767437322E+02  0.76715102300E+02  0.00000000000E+00 0.  1.
         21    1    1    2  502  501  0.53080656650E+02  0.14521225813E+02 -0.30120950215E+03  0.30619534009E+03  0.00000000000E+00 0. -1.
<scales pt_clust_5="13000.00000" pt_clust_6="13000.00000" pt_clust_7="13000.00000" pt_clust_8="13000.00000" pt_clust_9="55.03110"></scales>
<clustering>
<clus scale="   55.031">  2  9  1 -1</clus>
<clus scale="   83.493">  5  6 -1 -1</clus>
<clus scale="   87.055">  1  5  2 -1</clus>
<clus scale="   91.245">  7  8 -1 -1</clus>
<clus scale="   55.031">  2  5  1 -1</clus>
</clustering>
</event>
<event>
 9    1  0.2674825E-005  0.9814019E+02  0.7546771E-02  0.1295934E+00
          1   -1    0    0  502    0  0.00000000000E+00  0.00000000000E+00  0.10875294124E+03  0.10875294124E+03  0.00000000000E+00 0. -1.
         -2   -1    0    0    0  501 -0.00000000000E+00 -0.00000000000E+00 -0.10749502500E+03  0.10749502500E+03  0.00000000000E+00 0.  1.
         23    2    1    2    0    0  0.24294613525E+02 -0.31229069689E+02 -0.44305601414E+02  0.11013935586E+03  0.92748090829E+02 0.  0.
        -24    2    1    2    0    0 -0.86482364050E+01  0.17605097446E+02  0.31454396447E+02  0.81018990259E+02  0.72041420570E+02 0.  0.
         13    1    4    4    0    0 -0.23163051177E+01 -0.23259052991E+02  0.32043770715E+02  0.39662980940E+02  0.00000000000E+00 0. -1.
        -14    1    4    4    0    0 -0.63319312873E+01  0.40864150437E+02 -0.58937426759E+00  0.41356009319E+02  0.00000000000E+00 0.  1.
        -13    1    3    3    0    0  0.49607445531E+02  0.78779417831E+01 -0.38308900856E+02  0.63170661732E+02  0.00000000000E+00 0.  1.
         13    1    3    3    0    0 -0.25312832006E+02 -0.39107011472E+02 -0.59967005589E+01  0.46968694127E+02  0.00000000000E+00 0. -1.
         21    1    1    2  502  501 -0.15646377120E+02  0.13623972243E+02  0.14109121202E+02  0.25089620120E+02  0.00000000000E+00 0. -1.
<scales pt_clust_5="13000.00000" pt_clust_6="13000.00000" pt_clust_7="13000.00000" pt_clust_8="13000.00000" pt_clust_9="20.74661"></scales>
<clustering>
<clus scale="   20.747">  1  9  2 -1</clus>
<clus scale="   72.041">  5  6 -1 -1</clus>
<clus scale="   78.862">  1  5  2 -1</clus>
<clus scale="   92.748">  7  8 -1 -1</clus>
<clus scale="   20.747">  1  5  2 -1</clus>
</clustering>
</event>
<event>
 9    1  0.2674825E-005  0.1678950E+03  0.7546771E-02  0.1182379E+00
         -2   -1    0    0    0  501 -0.00000000000E+00  0.00000000000E+00  0.18999019745E+03  0.18999019745E+03  0.00000000000E+00 0.  1.
          1   -1    0    0  502    0  0.00000000000E+00 -0.00000000000E+00 -0.64789761234E+03  0.64789761234E+03  0.00000000000E+00 0. -1.
        -24    2    1    2    0    0  0.46433565905E+02 -0.12619704879E+03  0.12978181127E+03  0.20402535565E+03  0.81861199886E+02 0.  0.
         23    2    1    2    0    0 -0.81732707390E+02  0.14868418578E+03 -0.48581879918E+03  0.52372942271E+03  0.97392915634E+02 0.  0.
         13    1    3    3    0    0 -0.19366274025E+01 -0.85083788698E+02  0.39922940134E+02  0.94004482733E+02  0.00000000000E+00 0. -1.
        -14    1    3    3    0    0  0.48370193307E+02 -0.41113260088E+02  0.89858871138E+02  0.11002087292E+03  0.00000000000E+00 0.  1.
        -13    1    4    4    0    0 -0.13132001765E+02  0.10144177537E+03 -0.34774846954E+03  0.36248018060E+03  0.00000000000E+00 0. -1.
         13    1    4    4    0    0 -0.68600705625E+02  0.47242410416E+02 -0.13807032964E+03  0.16124924211E+03  0.00000000000E+00 0.  1.
         21    1    1    2  502  501  0.35299141486E+02 -0.22487136996E+02 -0.10187042698E+03  0.11013303143E+03  0.00000000000E+00 0.  1.
<scales pt_clust_5="13000.00000" pt_clust_6="13000.00000" pt_clust_7="13000.00000" pt_clust_8="13000.00000" pt_clust_9="41.85332"></scales>
<clustering>
<clus scale="   41.853">  2  9  1 -1</clus>
<clus scale="   81.861">  5  6 -1 -1</clus>
<clus scale="   97.393">  7  8 -1 -1</clus>
<clus scale="  159.388">  1  5  2 -1</clus>
<clus scale="   41.853">  2  5  1 -1</clus>
</clustering>
</event>
<event>
 9    1  0.2674825E-005  0.1194396E+03  0.7546771E-02  0.1246994E+00
         -2   -1    0    0    0  501 -0.00000000000E+00  0.00000000000E+00  0.24173275261E+03  0.24173275261E+03  0.00000000000E+00 0.  1.
          1   -1    0    0  502    0  0.00000000000E+00 -0.00000000000E+00 -0.10174224178E+03  0.10174224178E+03  0.00000000000E+00 0. -1.
        -24    2    1    2    0    0 -0.46184259971E+02 -0.76313851889E+02  0.14612965184E+03  0.18884038751E+03  0.79687056342E+02 0.  0.
         23    2    1    2    0    0  0.20902162439E+01  0.59309573773E+02 -0.69716484130E+01  0.10736809405E+03  0.89203751008E+02 0.  0.
         13    1    3    3    0    0 -0.64158352751E+02 -0.75984413655E+02  0.10876623157E+03  0.14737713010E+03  0.00000000000E+00 0. -1.
        -14    1    3    3    0    0  0.17974092780E+02 -0.32943823376E+00  0.37363420268E+02  0.41463257409E+02  0.00000000000E+00 0.  1.
        -13    1    4    4    0    0 -0.23400648579E+02  0.74050460319E+02 -0.62865565058E+01  0.77913938548E+02  0.00000000000E+00 0. -1.
         13    1    4    4    0    0  0.25490864823E+02 -0.14740886546E+02 -0.68509190720E+00  0.29454155505E+02  0.00000000000E+00 0.  1.
         21    1    1    2  502  501  0.44094043727E+02  0.17004278117E+02  0.83250741021E+00  0.47266512829E+02  0.00000000000E+00 0. -1.
<scales pt_clust_5="13000.00000" pt_clust_6="13000.00000" pt_clust_7="13000.00000" pt_clust_8="13000.00000" pt_clust_9="47.25918"></scales>
<clustering>
<clus scale="   47.259">  2  9  1 -1</clus>
<clus scale="   79.687">  5  6 -1 -1</clus>
<clus scale="   89.204">  7  8 -1 -1</clus>
<clus scale="  112.510">  1  5  2 -1</clus>
<clus scale="   47.259">  2  5  1 -1</clus>
</clustering>
</event>
<event>
 9    1  0.2674825E-005  0.1642266E+03  0.7546771E-02  0.1228128E+00
          1   -1    0    0  502    0  0.00000000000E+00  0.00000000000E+00  0.15058059094E+03  0.15058059094E+03  0.00000000000E+00 0. -1.
         -2   -1    0    0    0  501 -0.00000000000E+00 -0.00000000000E+00 -0.31656668267E+03  0.31656668267E+03  0.00000000000E+00 0.  1.
         23    2    1    2    0    0  0.98564616563E+02 -0.90217238307E+02 -0.19806871547E+03  0.25615535504E+03  0.92359169240E+02 0.  0.
        -24    2    1    2    0    0  0.21385978125E+02  0.12593028228E+02  0.23723405275E+02  0.67871201380E+02  0.58547037488E+02 0.  0.
         11    1    4    4    0    0  0.20755657500E+02 -0.12096849249E+02  0.33571985970E+02  0.41282070224E+02  0.00000000000E+00 0. -1.
        -12    1    4    4    0    0  0.63032062487E+00  0.24689877477E+02 -0.98485806955E+01  0.26589131156E+02  0.00000000000E+00 0.  1.
        -13    1    3    3    0    0  0.51870059993E+02 -0.79414823967E+02 -0.65721733802E+02  0.11539741628E+03  0.00000000000E+00 0. -1.
         13    1    3    3    0    0  0.46694556570E+02 -0.10802414339E+02 -0.13234698167E+03  0.14075793876E+03  0.00000000000E+00 0.  1.
         21    1    1    2  502  501 -0.11995059469E+03  0.77624210079E+02  0.83592184609E+01  0.14312071719E+03  0.00000000000E+00 0.  1.
<scales pt_clust_5="13000.00000" pt_clust_6="13000.00000" pt_clust_7="13000.00000" pt_clust_8="13000.00000" pt_clust_9="135.79458"></scales>
<clustering>
<clus scale="   58.547">  5  6 -1 -1</clus>
<clus scale="   63.590">  1  5  2 -1</clus>
<clus scale="   92.359">  7  8 -1 -1</clus>
<clus scale="  135.795">  1  9  2 -1</clus>
<clus scale="   63.590">  1  5  2 -1</clus>
</clustering>
</event>
<event>
 9    1  0.2674825E-005  0.1163405E+03  0.7546771E-02  0.1253498E+00
         -2   -1    0    0    0  501 -0.00000000000E+00  0.00000000000E+00  0.24516513765E+02  0.24516513765E+02  0.00000000000E+00 0.  1.
          1   -1    0    0  502    0  0.00000000000E+00 -0.00000000000E+00 -0.14910837109E+04  0.14910837109E+04  0.00000000000E+00 0. -1.
        -24    2    1    2    0    0 -0.58606750708E+02 -0.65278379941E+02 -0.30554048792E+03  0.32826159440E+03  0.81882027832E+02 0.  0.
         23    2    1    2    0    0  0.73906309046E+02 -0.33031224466E+02 -0.37295324591E+03  0.39300958109E+03  0.93857353923E+02 0.  0.
         13    1    3    3    0    0 -0.51932952466E+02 -0.59888027002E+02 -0.12829443567E+03  0.15080805534E+03  0.00000000000E+00 0. -1.
        -14    1    3    3    0    0 -0.66737982429E+01 -0.53903529390E+01 -0.17724605225E+03  0.17745353907E+03  0.00000000000E+00 0.  1.
        -11    1    4    4    0    0  0.74468608727E+02  0.14269385462E+02 -0.25103296737E+03  0.26223413156E+03  0.00000000000E+00 0. -1.
         11    1    4    4    0    0 -0.56229968102E+00 -0.47300609928E+02 -0.12192027854E+03  0.13077544953E+03  0.00000000000E+00 0.  1.
         21    1    1    2  502  501 -0.15299558338E+02  0.98309604407E+02 -0.78807346326E+03  0.79432904913E+03  0.00000000000E+00 0.  1.
<scales pt_clust_5="13000.00000" pt_clust_6="13000.00000" pt_clust_7="13000.00000" pt_clust_8="13000.00000" pt_clust_9="99.49299"></scales>
<clustering>
<clus scale="   81.882">  5  6 -1 -1</clus>
<clus scale="   93.857">  7  8 -1 -1</clus>
<clus scale="   99.493">  2  9  1 -1</clus>
<clus scale="  106.914">  1  5  2 -1</clus>
<clus scale="   99.493">  2  5  1 -1</clus>
</clustering>
</event>
<event>
 9    1  0.2674825E-005  0.9434608E+02  0.7546771E-02  0.1297026E+00
         -2   -1    0    0    0  501 -0.00000000000E+00  0.00000000000E+00  0.99318346372E+02  0.99318346372E+02  0.00000000000E+00 0.  1.
          1   -1    0    0  502    0  0.00000000000E+00 -0.00000000000E+00 -0.28606962732E+03  0.28606962732E+03  0.00000000000E+00 0. -1.
        -24    2    1    2    0    0  0.14632149546E+02  0.70358936809E+01  0.40206292090E+02  0.95412284878E+02  0.84990320518E+02 0.  0.
         23    2    1    2    0    0  0.17656515154E+02  0.15169179311E+02 -0.23163667791E+03  0.25051029693E+03  0.92509468626E+02 0.  0.
         13    1    3    3    0    0  0.37516570110E+01  0.28459824707E+02 -0.17001592636E+02  0.33363014026E+02  0.00000000000E+00 0. -1.
        -14    1    3    3    0    0  0.10880492535E+02 -0.21423931026E+02  0.57207884727E+02  0.62049270852E+02  0.00000000000E+00 0.  1.
        -11    1    4    4    0    0 -0.36477044493E+02  0.39330569766E+01 -0.12663394303E+03  0.13184156871E+03  0.00000000000E+00 0.  1.
         11    1    4    4    0    0  0.54133559646E+02  0.11236122334E+02 -0.10500273488E+03  0.11866872822E+03  0.00000000000E+00 0. -1.
         21    1    1    2  502  501 -0.32288664700E+02 -0.22205072992E+02  0.46791048682E+01  0.39465391890E+02  0.00000000000E+00 0.  1.
<scales pt_clust_5="13000.00000" pt_clust_6="13000.00000" pt_clust_7="13000.00000" pt_clust_8="13000.00000" pt_clust_9="39.18703"></scales>
<clustering>
<clus scale="   39.187">  1  9  2 -1</clus>
<clus scale="   84.990">  5  6 -1 -1</clus>
<clus scale="   86.986">  1  5  2 -1</clus>
<clus scale="   92.509">  7  8 -1 -1</clus>
<clus scale="   94.346">  2  5  1 -1</clus>
</clustering>
</event>
<event>
 9    1  0.2674825E-005  0.1805205E+03  0.7546771E-02  0.1168870E+00
         -2   -1    0    0    0  501 -0.00000000000E+00  0.00000000000E+00  0.62050562550E+03  0.62050562550E+03  0.00000000000E+00 0.  1.
          1   -1    0    0  502    0  0.00000000000E+00 -0.00000000000E+00 -0.31056411256E+03  0.31056411256E+03  0.00000000000E+00 0. -1.
         23    2    1    2    0    0  0.18231752516E+03  0.12765479978E+02  0.54646325775E+03  0.58391969246E+03  0.94538234173E+02 0.  0.
        -24    2    1    2    0    0 -0.15231707766E+03  0.69057807254E+01 -0.25395273759E+03  0.30726489977E+03  0.81679518533E+02 0.  0.
         11    1    4    4    0    0 -0.12951820927E+03  0.11193821187E+02 -0.25252409790E+03  0.28402233748E+03  0.00000000000E+00 0. -1.
        -12    1    4    4    0    0 -0.22798868388E+02 -0.42880404618E+01 -0.14286396934E+01  0.23242562297E+02  0.00000000000E+00 0.  1.
        -11    1    3    3    0    0  0.58076769255E+02  0.48683820487E+02  0.22484439304E+03  0.23727205184E+03  0.00000000000E+00 0. -1.
         11    1    3    3    0    0  0.12424075591E+03 -0.35918340509E+02  0.32161886471E+03  0.34664764063E+03  0.00000000000E+00 0.  1.
         21    1    1    2  502  501 -0.30000447502E+02 -0.19671260703E+02  0.17430992782E+02  0.39885145823E+02  0.00000000000E+00 0.  1.
<scales pt_clust_5="13000.00000" pt_clust_6="13000.00000" pt_clust_7="13000.00000" pt_clust_8="13000.00000" pt_clust_9="35.87458"></scales>
<clustering>
<clus scale="   35.875">  1  9  2 -1</clus>
<clus scale="   81.680">  5  6 -1 -1</clus>
<clus scale="   94.538">  7  8 -1 -1</clus>
<clus scale="  174.131">  2  5  1 -1</clus>
<clus scale="  174.131">  2  5  1 -1</clus>
</clustering>
</event>
<event>
 9    1  0.2674825E-005  0.1409826E+03  0.7546771E-02  0.1234819E+00
          1   -1    0    0  502    0  0.00000000000E+00  0.00000000000E+00  0.16927126444E+03  0.16927126444E+03  0.00000000000E+00 0. -1.
         -2   -1    0    0    0  501 -0.00000000000E+00 -0.00000000000E+00 -0.18799788148E+03  0.18799788148E+03  0.00000000000E+00 0.  1.
         23    2    1    2    0    0 -0.67576339581E+02 -0.58281962508E+02 -0.39750279160E+02  0.13367778287E+03  0.91248649935E+02 0.  0.
        -24    2    1    2    0    0 -0.32455683167E+02 -0.28253739020E+02  0.25618969724E+02  0.91243525640E+02  0.76271909791E+02 0.  0.
         13    1    4    4    0    0 -0.19367453810E+02  0.24259606318E+02  0.19782375036E+02  0.36809905296E+02  0.00000000000E+00 0. -1.
        -14    1    4    4    0    0 -0.13088229357E+02 -0.52513345338E+02  0.58365946875E+01  0.54433620345E+02  0.00000000000E+00 0.  1.
        -13    1    3    3    0    0 -0.67825474787E+02 -0.79974014864E+02 -0.39283871319E+02  0.11197928661E+03  0.00000000000E+00 0.  1.
         13    1    3    3    0    0  0.24913520654E+00  0.21692052356E+02 -0.46640784086E+00  0.21698496262E+02  0.00000000000E+00 0. -1.
         21    1    1    2  502  501  0.10003202275E+03  0.86535701528E+02 -0.45953076025E+01  0.13234783741E+03  0.00000000000E+00 0. -1.
<scales pt_clust_5="13000.00000" pt_clust_6="13000.00000" pt_clust_7="13000.00000" pt_clust_8="13000.00000" pt_clust_9="107.46989"></scales>
<clustering>
<clus scale="   76.272">  5  6 -1 -1</clus>
<clus scale="   87.573">  1  5  2 -1</clus>
<clus scale="   91.249">  7  8 -1 -1</clus>
<clus scale="  107.470">  1  9  2 -1</clus>
<clus scale="   87.573">  1  5  2 -1</clus>
</clustering>
</event>
<event>
 9    1  0.2674825E-005  0.1089048E+03  0.7546771E-02  0.1267709E+00
          1   -1    0    0  502    0  0.00000000000E+00  0.00000000000E+00  0.31405024126E+03  0.31405024126E+03  0.00000000000E+00 0. -1.
         -2   -1    0    0    0  501 -0.00000000000E+00 -0.00000000000E+00 -0.75137386959E+02  0.75137386959E+02  0.00000000000E+00 0.  1.
         23    2    1    2    0    0  0.16971893888E+02  0.59659218763E+02 -0.12604893052E+02  0.11254396435E+03  0.93059083479E+02 0.  0.
        -24    2    1    2    0    0 -0.10934059415E+02 -0.33772485078E+02  0.18312202682E+03  0.20326415029E+03  0.80762018803E+02 0.  0.
         11    1    4    4    0    0 -0.22392861797E+02 -0.57034345411E+02  0.14190727771E+03  0.15457047675E+03  0.00000000000E+00 0. -1.
        -12    1    4    4    0    0  0.11458802382E+02  0.23261860333E+02  0.41214749115E+02  0.48693673539E+02  0.00000000000E+00 0.  1.
        -13    1    3    3    0    0  0.36702158482E+02  0.76112734187E+02 -0.17748704558E+02  0.86343576808E+02  0.00000000000E+00 0.  1.
         13    1    3    3    0    0 -0.19730264594E+02 -0.16453515423E+02  0.51438115058E+01  0.26200387545E+02  0.00000000000E+00 0. -1.
         21    1    1    2  502  501 -0.60378344736E+01 -0.25886733685E+02  0.68395720535E+02  0.73379513582E+02  0.00000000000E+00 0. -1.
<scales pt_clust_5="13000.00000" pt_clust_6="13000.00000" pt_clust_7="13000.00000" pt_clust_8="13000.00000" pt_clust_9="26.58154"></scales>
<clustering>
<clus scale="   26.582">  1  9  2 -1</clus>
<clus scale="   80.762">  5  6 -1 -1</clus>
<clus scale="   93.059">  7  8 -1 -1</clus>
<clus scale="   98.604">  1  5  2 -1</clus>
<clus scale="   26.582">  1  5  2 -1</clus>
</clustering>
</event>
<event>
 9    1  0.2674825E-005  0.9041947E+02  0.7546771E-02  0.1307433E+00
          1   -1    0    0  502    0  0.00000000000E+00  0.00000000000E+00  0.26368864920E+03  0.26368864920E+03  0.00000000000E+00 0. -1.
         -2   -1    0    0    0  501 -0.00000000000E+00 -0.00000000000E+00 -0.75428023618E+02  0.75428023618E+02  0.00000000000E+00 0.  1.
        -24    2    1    2    0    0  0.16321092201E+02  0.59806672771E+01 -0.34435404624E+02  0.88876940366E+02  0.80069763366E+02 0.  0.
         23    2    1    2    0    0 -0.99121208300E+01  0.16217167186E+02  0.17797861928E+03  0.19990618887E+03  0.89021619734E+02 0.  0.
         13    1    3    3    0    0  0.34144766204E+02  0.33505459332E+02 -0.12563799325E+02  0.49460387359E+02  0.00000000000E+00 0. -1.
        -14    1    3    3    0    0 -0.17823674004E+02 -0.27524792054E+02 -0.21871605298E+02  0.39416553007E+02  0.00000000000E+00 0.  1.
        -13    1    4    4    0    0 -0.20008264827E+00 -0.28059857341E+02  0.17320599034E+02  0.32975730136E+02  0.00000000000E+00 0.  1.
         13    1    4    4    0    0 -0.97120381817E+01  0.44277024528E+02  0.16065802024E+03  0.16693045874E+03  0.00000000000E+00 0. -1.
         21    1    1    2  502  501 -0.64089713707E+01 -0.22197834463E+02  0.44717410925E+02  0.50333543574E+02  0.00000000000E+00 0.  1.
<scales pt_clust_5="13000.00000" pt_clust_6="13000.00000" pt_clust_7="13000.00000" pt_clust_8="13000.00000" pt_clust_9="23.10452"></scales>
<clustering>
<clus scale="   23.105">  1  9  2 -1</clus>
<clus scale="   80.070">  5  6 -1 -1</clus>
<clus scale="   81.621">  2  5  1 -1</clus>
<clus scale="   89.022">  7  8 -1 -1</clus>
<clus scale="   23.105">  1  5  2 -1</clus>
</clustering>
</event>
<event>
 9    1  0.2674825E-005  0.1067501E+03  0.7546771E-02  0.1271240E+00
          3   -1    0    0  502    0  0.00000000000E+00  0.00000000000E+00  0.74594825012E+02  0.74594825012E+02  0.00000000000E+00 0. -1.
         -4   -1    0    0    0  501 -0.00000000000E+00 -0.00000000000E+00 -0.71774315702E+03  0.71774315702E+03  0.00000000000E+00 0.  1.
        -24    2    1    2    0    0  0.34354965875E+02  0.49182113575E+02 -0.61824486645E+03  0.62648007242E+03  0.81556252192E+02 0.  0.
         23    2    1    2    0    0  0.11365844565E+01 -0.18619618926E+02 -0.56216615099E+02  0.10951760824E+03  0.92118492544E+02 0.  0.
         11    1    3    3    0    0 -0.25749038818E+02  0.49945128263E+01 -0.13709785850E+03  0.13958431489E+03  0.00000000000E+00 0. -1.
        -12    1    3    3    0    0  0.60104004693E+02  0.44187600749E+02 -0.48114700796E+03  0.48689575753E+03  0.00000000000E+00 0.  1.
        -11    1    4    4    0    0  0.42096547642E+02  0.35727965918E+01 -0.90158666274E+01  0.43199190385E+02  0.00000000000E+00 0.  1.
         11    1    4    4    0    0 -0.40959963186E+02 -0.22192415518E+02 -0.47200748471E+02  0.66318417856E+02  0.00000000000E+00 0. -1.
         21    1    1    2  502  501 -0.35491550332E+02 -0.30562494649E+02  0.31313149542E+02  0.56340301369E+02  0.00000000000E+00 0. -1.
<scales pt_clust_5="13000.00000" pt_clust_6="13000.00000" pt_clust_7="13000.00000" pt_clust_8="13000.00000" pt_clust_9="46.83712"></scales>
<clustering>
<clus scale="   46.837">  1  9  2 -1</clus>
<clus scale="   81.556">  5  6 -1 -1</clus>
<clus scale="   92.118">  7  8 -1 -1</clus>
<clus scale="   97.781">  2  5  1 -1</clus>
<clus scale="   46.837">  1  5  2 -1</clus>
</clustering>
</event>
<event>
 9    1  0.2674825E-005  0.1137134E+03  0.7546771E-02  0.1256578E+00
         -4   -1    0    0    0  501 -0.00000000000E+00  0.00000000000E+00  0.57460296174E+03  0.57460296174E+03  0.00000000000E+00 0.  1.
          3   -1    0    0  502    0  0.00000000000E+00 -0.00000000000E+00 -0.15039102750E+03  0.15039102750E+03  0.00000000000E+00 0. -1.
         23    2    1    2    0    0 -0.13315596907E+02 -0.29225056520E+02  0.47292744716E+03  0.48206334860E+03  0.87711417370E+02 0.  0.
        -24    2    1    2    0    0  0.50500557619E+02  0.54418599415E+02 -0.11782978515E+03  0.16050359087E+03  0.79786302903E+02 0.  0.
         13    1    4    4    0    0  0.13876587684E+02  0.51954569415E+02 -0.11075692029E+03  0.12312161614E+03  0.00000000000E+00 0. -1.
        -14    1    4    4    0    0  0.36623969935E+02  0.24640299997E+01 -0.70728648687E+01  0.37381974735E+02  0.00000000000E+00 0.  1.
        -13    1    3    3    0    0 -0.54485472830E+01 -0.60607739621E+02  0.32347654111E+03  0.32915050876E+03  0.00000000000E+00 0.  1.
         13    1    3    3    0    0 -0.78670496243E+01  0.31382683101E+02  0.14945090605E+03  0.15291283984E+03  0.00000000000E+00 0. -1.
         21    1    1    2  502  501 -0.37184960712E+02 -0.25193542895E+02  0.69114272228E+02  0.82427049762E+02  0.00000000000E+00 0. -1.
<scales pt_clust_5="13000.00000" pt_clust_6="13000.00000" pt_clust_7="13000.00000" pt_clust_8="13000.00000" pt_clust_9="44.91588"></scales>
<clustering>
<clus scale="   44.916">  1  9  2 -1</clus>
<clus scale="   79.786">  5  6 -1 -1</clus>
<clus scale="   87.711">  7  8 -1 -1</clus>
<clus scale="  107.719">  2  5  1 -1</clus>
<clus scale="  107.719">  2  5  1 -1</clus>
</clustering>
</event>
<event>
 9    1  0.6593045E-005  0.9342834E+02  0.7546771E-02  0.1299576E+00
          1   -1    0    0  502    0  0.00000000000E+00  0.00000000000E+00  0.43399459776E+03  0.43399459776E+03  0.00000000000E+00 0. -1.
         -2   -1    0    0    0  501 -0.00000000000E+00 -0.00000000000E+00 -0.24565644213E+03  0.24565644213E+03  0.00000000000E+00 0.  1.
         23    2    1    2    0    0  0.10549484592E+02  0.17216910221E+02 -0.22732357881E+03  0.24576259795E+03  0.91189535834E+02 0.  0.
        -24    2    1    2    0    0 -0.35435640419E+02 -0.83108826994E+01  0.37173545928E+03  0.38262290062E+03  0.82995644516E+02 0.  0.
         13    1    4    4    0    0 -0.61610172082E+02 -0.13905260194E+01  0.29149406283E+03  0.29793713353E+03  0.00000000000E+00 0. -1.
        -14    1    4    4    0    0  0.26174531663E+02 -0.69203566800E+01  0.80241396446E+02  0.84685767092E+02  0.00000000000E+00 0.  1.
        -13    1    3    3    0    0 -0.31051289927E+02 -0.10573074438E+02 -0.15087123989E+03  0.15439593109E+03  0.00000000000E+00 0.  1.
         13    1    3    3    0    0  0.41600774519E+02  0.27789984660E+02 -0.76452338917E+02  0.91366666864E+02  0.00000000000E+00 0. -1.
         21    1    1    2  502  501  0.24886155827E+02 -0.89060275218E+01  0.43926275160E+02  0.51265541326E+02  0.00000000000E+00 0. -1.
<scales pt_clust_5="13000.00000" pt_clust_6="13000.00000" pt_clust_7="13000.00000" pt_clust_8="13000.00000" pt_clust_9="26.43176"></scales>
<clustering>
<clus scale="   26.432">  1  9  2 -1</clus>
<clus scale="   82.996">  5  6 -1 -1</clus>
<clus scale="   85.449">  1  5  2 -1</clus>
<clus scale="   91.190">  7  8 -1 -1</clus>
<clus scale="   26.432">  1  5  2 -1</clus>
</clustering>
</event>
<event>
 9    1  0.2674825E-005  0.9380260E+02  0.7546771E-02  0.1300089E+00
         -2   -1    0    0    0  501 -0.00000000000E+00  0.00000000000E+00  0.68099590359E+02  0.68099590359E+02  0.00000000000E+00 0.  1.
          1   -1    0    0  502    0  0.00000000000E+00 -0.00000000000E+00 -0.29765311105E+03  0.29765311105E+03  0.00000000000E+00 0. -1.
         23    2    1    2    0    0 -0.15064412795E+02 -0.51982979274E+01  0.10653793443E+02  0.93081048408E+02  0.91085780580E+02 0.  0.
        -24    2    1    2    0    0  0.96560283184E+01 -0.23609759679E+02 -0.22346894971E+03  0.23891772509E+03  0.80576970930E+02 0.  0.
         13    1    4    4    0    0 -0.24227519928E+02 -0.39384110616E+02 -0.10600558303E+03  0.11565147869E+03  0.00000000000E+00 0. -1.
        -14    1    4    4    0    0  0.33883548246E+02  0.15774350937E+02 -0.11746336668E+03  0.12326624640E+03  0.00000000000E+00 0.  1.
        -11    1    3    3    0    0  0.28538808130E+02 -0.15238140483E+02 -0.20733451461E+02  0.38425779164E+02  0.00000000000E+00 0. -1.
         11    1    3    3    0    0 -0.43603220925E+02  0.10039842555E+02  0.31387244904E+02  0.54655269244E+02  0.00000000000E+00 0.  1.
         21    1    1    2  502  501  0.54083844766E+01  0.28808057606E+02 -0.16738364423E+02  0.33753927908E+02  0.00000000000E+00 0.  1.
<scales pt_clust_5="13000.00000" pt_clust_6="13000.00000" pt_clust_7="13000.00000" pt_clust_8="13000.00000" pt_clust_9="29.31134"></scales>
<clustering>
<clus scale="   29.311">  1  9  2 -1</clus>
<clus scale="   80.577">  5  6 -1 -1</clus>
<clus scale="   83.636">  2  5  1 -1</clus>
<clus scale="   91.086">  7  8 -1 -1</clus>
<clus scale="   83.636">  2  5  1 -1</clus>
</clustering>
</event>
<event>
 9    1  0.2674825E-005  0.1118611E+03  0.7546771E-02  0.1260892E+00
          1   -1    0    0  502    0  0.00000000000E+00  0.00000000000E+00  0.51785667342E+02  0.51785667342E+02  0.00000000000E+00 0. -1.
         -2   -1    0    0    0  501 -0.00000000000E+00 -0.00000000000E+00 -0.43474952062E+03  0.43474952062E+03  0.00000000000E+00 0.  1.
        -24    2    1    2    0    0  0.29378725049E+02  0.66141106725E+02 -0.33562626285E+03  0.35224840867E+03  0.78715929872E+02 0.  0.
         23    2    1    2    0    0 -0.18217696747E+02 -0.44713701747E+02 -0.34295849018E+02  0.10683155655E+03  0.88913309552E+02 0.  0.
         11    1    3    3    0    0  0.24680165746E+02  0.82224199445E+02 -0.23401208215E+03  0.24926207924E+03  0.00000000000E+00 0. -1.
        -12    1    3    3    0    0  0.46985593025E+01 -0.16083092720E+02 -0.10161418070E+03  0.10298632943E+03  0.00000000000E+00 0.  1.
        -13    1    4    4    0    0 -0.31200900714E+00  0.26256041053E+02 -0.18030364614E+02  0.31852332560E+02  0.00000000000E+00 0. -1.
         13    1    4    4    0    0 -0.17905687740E+02 -0.70969742800E+02 -0.16265484403E+02  0.74979223986E+02  0.00000000000E+00 0.  1.
         21    1    1    2  502  501 -0.11161028302E+02 -0.21427404978E+02 -0.13041741415E+02  0.27455222745E+02  0.00000000000E+00 0.  1.
<scales pt_clust_5="13000.00000" pt_clust_6="13000.00000" pt_clust_7="13000.00000" pt_clust_8="13000.00000" pt_clust_9="24.15993"></scales>
<clustering>
<clus scale="   24.160">  1  9  2 -1</clus>
<clus scale="   78.716">  5  6 -1 -1</clus>
<clus scale="   88.913">  7  8 -1 -1</clus>
<clus scale="  103.940">  2  5  1 -1</clus>
<clus scale="   24.160">  1  5  2 -1</clus>
</clustering>
</event>
<event>
 9    1  0.2674825E-005  0.9220423E+02  0.7546771E-02  0.1303933E+00
          1   -1    0    0  502    0  0.00000000000E+00  0.00000000000E+00  0.11251481652E+03  0.11251481652E+03  0.00000000000E+00 0. -1.
         -2   -1    0    0    0  501 -0.00000000000E+00 -0.00000000000E+00 -0.14706616277E+03  0.14706616277E+03  0.00000000000E+00 0.  1.
        -24    2    1    2    0    0 -0.42000787324E+02  0.35197944669E+01 -0.69533364925E+02  0.11461424845E+03  0.80777979809E+02 0.  0.
         23    2    1    2    0    0  0.33227095588E+01 -0.88810343352E+01  0.48539800381E+02  0.10363212018E+03  0.91069154726E+02 0.  0.
         13    1    3    3    0    0 -0.57948297696E+02  0.25602994900E+02 -0.54085880650E+02  0.83299466021E+02  0.00000000000E+00 0. -1.
        -14    1    3    3    0    0  0.15947510372E+02 -0.22083200433E+02 -0.15447484275E+02  0.31314782433E+02  0.00000000000E+00 0.  1.
        -11    1    4    4    0    0 -0.29941207288E+02  0.15560737343E+02 -0.69711125999E+01  0.34455897194E+02  0.00000000000E+00 0.  1.
         11    1    4    4    0    0  0.33263916847E+02 -0.24441771679E+02  0.55510912981E+02  0.69176222987E+02  0.00000000000E+00 0. -1.
         21    1    1    2  502  501  0.38678077765E+02  0.53612398683E+01 -0.13557781710E+02  0.41334610648E+02  0.00000000000E+00 0.  1.
<scales pt_clust_5="13000.00000" pt_clust_6="13000.00000" pt_clust_7="13000.00000" pt_clust_8="13000.00000" pt_clust_9="39.04788"></scales>
<clustering>
<clus scale="   39.048">  2  9  1 -1</clus>
<clus scale="   80.778">  5  6 -1 -1</clus>
<clus scale="   82.056">  2  5  1 -1</clus>
<clus scale="   91.069">  7  8 -1 -1</clus>
<clus scale="   92.204">  1  5  2 -1</clus>
</clustering>
</event>
<event>
 9    1  0.2674825E-005  0.1455382E+03  0.7546771E-02  0.1208587E+00
         -2   -1    0    0    0  501 -0.00000000000E+00  0.00000000000E+00  0.68201078827E+03  0.68201078827E+03  0.00000000000E+00 0.  1.
          1   -1    0    0  502    0  0.00000000000E+00 -0.00000000000E+00 -0.49547525533E+02  0.49547525533E+02  0.00000000000E+00 0. -1.
        -24    2    1    2    0    0  0.62341598854E+02 -0.11395444959E+03  0.42315845037E+03  0.44970046209E+03  0.79343178390E+02 0.  0.
         23    2    1    2    0    0 -0.86411812803E+01  0.82568195615E+02  0.11620440216E+03  0.16989125774E+03  0.92018473325E+02 0.  0.
         13    1    3    3    0    0  0.78402051489E+02 -0.83458125883E+02  0.35968920489E+03  0.37747644241E+03  0.00000000000E+00 0. -1.
        -14    1    3    3    0    0 -0.16060452635E+02 -0.30496323702E+02  0.63469245474E+02  0.72224019683E+02  0.00000000000E+00 0.  1.
        -11    1    4    4    0    0 -0.76783255744E+01  0.23662912068E+02 -0.12868708446E+02  0.28008815544E+02  0.00000000000E+00 0. -1.
         11    1    4    4    0    0 -0.96285570594E+00  0.58905283547E+02  0.12907311061E+03  0.14188244219E+03  0.00000000000E+00 0.  1.
         21    1    1    2  502  501 -0.53700417574E+02  0.31386253971E+02  0.93100410210E+02  0.11196659398E+03  0.00000000000E+00 0.  1.
<scales pt_clust_5="13000.00000" pt_clust_6="13000.00000" pt_clust_7="13000.00000" pt_clust_8="13000.00000" pt_clust_9="62.19993"></scales>
<clustering>
<clus scale="   62.200">  2  9  1 -1</clus>
<clus scale="   79.343">  5  6 -1 -1</clus>
<clus scale="   92.018">  7  8 -1 -1</clus>
<clus scale="  137.874">  1  5  2 -1</clus>
<clus scale="   62.200">  2  5  1 -1</clus>
</clustering>
</event>
<event>
 9    1  0.2674825E-005  0.1295062E+03  0.7546771E-02  0.1229737E+00
         -2   -1    0    0    0  501 -0.00000000000E+00  0.00000000000E+00  0.37967730399E+03  0.37967730399E+03  0.00000000000E+00 0.  1.
          1   -1    0    0  502    0  0.00000000000E+00 -0.00000000000E+00 -0.84267170684E+02  0.84267170684E+02  0.00000000000E+00 0. -1.
         23    2    1    2    0    0  0.81274893260E+02 -0.16482224488E+02  0.13424348275E+03  0.18233381360E+03  0.91362108786E+02 0.  0.
        -24    2    1    2    0    0 -0.10090881209E+03 -0.43044739729E+02  0.16852061667E+03  0.21849940174E+03  0.85483052971E+02 0.  0.
         11    1    4    4    0    0 -0.20061548221E+02 -0.38404953545E+02  0.16708180106E+02  0.46438878715E+02  0.00000000000E+00 0. -1.
        -12    1    4    4    0    0 -0.80847263867E+02 -0.46397861841E+01  0.15181243656E+03  0.17206052303E+03  0.00000000000E+00 0.  1.
        -11    1    3    3    0    0  0.24046367221E+02 -0.31867469220E+02  0.51045816744E+01  0.40246989019E+02  0.00000000000E+00 0. -1.
         11    1    3    3    0    0  0.57228526039E+02  0.15385244732E+02  0.12913890107E+03  0.14208682458E+03  0.00000000000E+00 0.  1.
         21    1    1    2  502  501  0.19633918829E+02  0.59526964217E+02 -0.73539661064E+01  0.63111259335E+02  0.00000000000E+00 0.  1.
<scales pt_clust_5="13000.00000" pt_clust_6="13000.00000" pt_clust_7="13000.00000" pt_clust_8="13000.00000" pt_clust_9="62.68134"></scales>
<clustering>
<clus scale="   62.681">  2  9  1 -1</clus>
<clus scale="   85.483">  5  6 -1 -1</clus>
<clus scale="   91.362">  7  8 -1 -1</clus>
<clus scale="  125.428">  2  5  1 -1</clus>
<clus scale="   62.681">  2  5  1 -1</clus>
</clustering>
</event>
<event>
 9    1  0.2674825E-005  0.1088345E+03  0.7546771E-02  0.1268161E+00
          3   -1    0    0  502    0  0.00000000000E+00  0.00000000000E+00  0.13767273909E+03  0.13767273909E+03  0.00000000000E+00 0. -1.
         -4   -1    0    0    0  501 -0.00000000000E+00 -0.00000000000E+00 -0.21953338737E+03  0.21953338737E+03  0.00000000000E+00 0.  1.
        -24    2    1    2    0    0 -0.43333761244E+02 -0.46797425510E+02 -0.14020552105E+03  0.17407573607E+03  0.81098457796E+02 0.  0.
         23    2    1    2    0    0  0.44312042567E+02 -0.20091889106E+02  0.26762621221E+02  0.10915352876E+03  0.93973474029E+02 0.  0.
         13    1    3    3    0    0  0.86669205940E+01 -0.50309371816E+02 -0.68617593438E+02  0.85524981931E+02  0.00000000000E+00 0. -1.
        -14    1    3    3    0    0 -0.52000681838E+02  0.35119463052E+01 -0.71587927613E+02  0.88550754138E+02  0.00000000000E+00 0.  1.
        -13    1    4    4    0    0  0.58589571763E+02  0.12193608483E+02 -0.70651556658E+01  0.60260587715E+02  0.00000000000E+00 0.  1.
         13    1    4    4    0    0 -0.14277529196E+02 -0.32285497589E+02  0.33827776887E+02  0.48892941041E+02  0.00000000000E+00 0. -1.
         21    1    1    2  502  501 -0.97828132287E+00  0.66889314616E+02  0.31582251549E+02  0.73976861633E+02  0.00000000000E+00 0.  1.
<scales pt_clust_5="13000.00000" pt_clust_6="13000.00000" pt_clust_7="13000.00000" pt_clust_8="13000.00000" pt_clust_9="66.89647"></scales>
<clustering>
<clus scale="   66.896">  1  9  2 -1</clus>
<clus scale="   81.098">  5  6 -1 -1</clus>
<clus scale="   93.973">  7  8 -1 -1</clus>
<clus scale="   97.933">  2  5  1 -1</clus>
<clus scale="   66.896">  1  5  2 -1</clus>
</clustering>
</event>
<event>
 9    1  0.2674825E-005  0.1310496E+03  0.7546771E-02  0.1227691E+00
          1   -1    0    0  502    0  0.00000000000E+00  0.00000000000E+00  0.99473043527E+03  0.99473043527E+03  0.00000000000E+00 0. -1.
         -2   -1    0    0    0  501 -0.00000000000E+00 -0.00000000000E+00 -0.54109337206E+02  0.54109337206E+02  0.00000000000E+00 0.  1.
         23    2    1    2    0    0  0.62555840034E+02  0.64719656668E+02  0.48482864460E+02  0.13708470485E+03  0.91322292322E+02 0.  0.
        -24    2    1    2    0    0 -0.96774952232E+02 -0.79083484043E+02  0.69736452896E+03  0.71347732506E+03  0.84338711761E+02 0.  0.
         13    1    4    4    0    0 -0.75415449738E+02 -0.95027603521E+02  0.51024520587E+03  0.52446916554E+03  0.00000000000E+00 0. -1.
        -14    1    4    4    0    0 -0.21359502495E+02  0.15944119478E+02  0.18711932309E+03  0.18900815952E+03  0.00000000000E+00 0.  1.
        -11    1    3    3    0    0 -0.11019059949E+02  0.43751269034E+02 -0.24378338328E+01  0.45183362624E+02  0.00000000000E+00 0. -1.
         11    1    3    3    0    0  0.73574899983E+02  0.20968387634E+02  0.50920698293E+02  0.91901342222E+02  0.00000000000E+00 0.  1.
         21    1    1    2  502  501  0.34219112199E+02  0.14363827375E+02  0.19477370464E+03  0.19827774257E+03  0.00000000000E+00 0. -1.
<scales pt_clust_5="13000.00000" pt_clust_6="13000.00000" pt_clust_7="13000.00000" pt_clust_8="13000.00000" pt_clust_9="37.11155"></scales>
<clustering>
<clus scale="   37.112">  1  9  2 -1</clus>
<clus scale="   84.339">  5  6 -1 -1</clus>
<clus scale="   91.322">  7  8 -1 -1</clus>
<clus scale="  126.282">  1  5  2 -1</clus>
<clus scale="   37.112">  1  5  2 -1</clus>
</clustering>
</event>
<event>
 9    1  0.2674825E-005  0.9231169E+02  0.7546771E-02  0.1304507E+00
         -4   -1    0    0    0  501 -0.00000000000E+00  0.00000000000E+00  0.21672107565E+03  0.21672107565E+03  0.00000000000E+00 0.  1.
          3   -1    0    0  502    0  0.00000000000E+00 -0.00000000000E+00 -0.19571123249E+03  0.19571123249E+03  0.00000000000E+00 0. -1.
         23    2    1    2    0    0 -0.14735493174E+02 -0.38556125553E+01  0.17349336308E+03  0.19661540158E+03  0.91245101781E+02 0.  0.
        -24    2    1    2    0    0 -0.18314457126E+02  0.46251407276E+02 -0.69159034930E+02  0.11665707386E+03  0.79694973205E+02 0.  0.
         11    1    4    4    0    0 -0.11226409465E+02  0.17578222400E+02 -0.81882290057E+02  0.84496956142E+02  0.00000000000E+00 0. -1.
        -12    1    4    4    0    0 -0.70880476611E+01  0.28673184875E+02  0.12723255127E+02  0.32160117717E+02  0.00000000000E+00 0.  1.
        -13    1    3    3    0    0 -0.15873745788E+02  0.41642097294E+02  0.10826854701E+03  0.11708167382E+03  0.00000000000E+00 0.  1.
         13    1    3    3    0    0  0.11382526145E+01 -0.45497709849E+02  0.65224816062E+02  0.79533727756E+02  0.00000000000E+00 0. -1.
         21    1    1    2  502  501  0.33049950300E+02 -0.42395794720E+02 -0.83324484979E+02  0.99159832704E+02  0.00000000000E+00 0. -1.
<scales pt_clust_5="13000.00000" pt_clust_6="13000.00000" pt_clust_7="13000.00000" pt_clust_8="13000.00000" pt_clust_9="53.75595"></scales>
<clustering>
<clus scale="   53.756">  2  9  1 -1</clus>
<clus scale="   79.695">  5  6 -1 -1</clus>
<clus scale="   80.914">  2  5  1 -1</clus>
<clus scale="   91.245">  7  8 -1 -1</clus>
<clus scale="   53.756">  2  5  1 -1</clus>
</clustering>
</event>
<event>
 9    1  0.2674825E-005  0.1616909E+03  0.7546771E-02  0.1213201E+00
         -2   -1    0    0    0  501 -0.00000000000E+00  0.00000000000E+00  0.37170046100E+02  0.37170046100E+02  0.00000000000E+00 0.  1.
          1   -1    0    0  502    0  0.00000000000E+00 -0.00000000000E+00 -0.14817480839E+04  0.14817480839E+04  0.00000000000E+00 0. -1.
         23    2    1    2    0    0 -0.78497502232E+01  0.29314179353E+01 -0.80009869974E+02  0.12126500169E+03  0.90738137257E+02 0.  0.
        -24    2    1    2    0    0  0.35297156055E+02 -0.13786031562E+03 -0.79342475203E+03  0.81014655904E+03  0.81013913312E+02 0.  0.
         13    1    4    4    0    0  0.47515358268E+02 -0.13014283490E+03 -0.77180596503E+03  0.78414240696E+03  0.00000000000E+00 0. -1.
        -14    1    4    4    0    0 -0.12218202214E+02 -0.77174807217E+01 -0.21618787004E+02  0.26004152083E+02  0.00000000000E+00 0.  1.
        -11    1    3    3    0    0 -0.33021504712E+02  0.34420835699E+02 -0.58793225235E+02  0.75709028769E+02  0.00000000000E+00 0.  1.
         11    1    3    3    0    0  0.25171754489E+02 -0.31489417764E+02 -0.21216644739E+02  0.45555972925E+02  0.00000000000E+00 0. -1.
         21    1    1    2  502  501 -0.27447405832E+02  0.13492889768E+03 -0.57114341576E+03  0.58750656923E+03  0.00000000000E+00 0.  1.
<scales pt_clust_5="13000.00000" pt_clust_6="13000.00000" pt_clust_7="13000.00000" pt_clust_8="13000.00000" pt_clust_9="139.93108"></scales>
<clustering>
<clus scale="   81.014">  5  6 -1 -1</clus>
<clus scale="   90.738">  7  8 -1 -1</clus>
<clus scale="   91.124">  1  7  2 -1</clus>
<clus scale="  139.931">  1  9  2 -1</clus>
<clus scale="  161.691">  2  5  1 -1</clus>
</clustering>
</event>
<event>
 9    1  0.2674825E-005  0.1112195E+03  0.7546771E-02  0.1262279E+00
         -2   -1    0    0    0  501 -0.00000000000E+00  0.00000000000E+00  0.25887333750E+03  0.25887333750E+03  0.00000000000E+00 0.  1.
          1   -1    0    0  502    0  0.00000000000E+00 -0.00000000000E+00 -0.71628149865E+02  0.71628149865E+02  0.00000000000E+00 0. -1.
         23    2    1    2    0    0  0.62442728103E+02  0.14557668760E+02  0.15793225479E+03  0.19334929493E+03  0.91270656487E+02 0.  0.
        -24    2    1    2    0    0 -0.54895006533E+02 -0.34417148893E+02  0.42603146929E+02  0.11209232726E+03  0.80942324046E+02 0.  0.
         11    1    4    4    0    0 -0.75322596692E+02 -0.22123356986E+02  0.40004250824E+02  0.88109457953E+02  0.00000000000E+00 0. -1.
        -12    1    4    4    0    0  0.20427590160E+02 -0.12293791906E+02  0.25988961050E+01  0.23982869306E+02  0.00000000000E+00 0.  1.
        -11    1    3    3    0    0  0.73946413010E+02  0.38588493439E+02  0.13217031618E+03  0.15628863140E+03  0.00000000000E+00 0.  1.
         11    1    3    3    0    0 -0.11503684907E+02 -0.24030824679E+02  0.25761938601E+02  0.37060663535E+02  0.00000000000E+00 0. -1.
         21    1    1    2  502  501 -0.75477215707E+01  0.19859480133E+02 -0.13290214084E+02  0.25059865172E+02  0.00000000000E+00 0. -1.
<scales pt_clust_5="13000.00000" pt_clust_6="13000.00000" pt_clust_7="13000.00000" pt_clust_8="13000.00000" pt_clust_9="21.24540"></scales>
<clustering>
<clus scale="   21.245">  2  9  1 -1</clus>
<clus scale="   80.942">  5  6 -1 -1</clus>
<clus scale="   91.271">  7  8 -1 -1</clus>
<clus scale="  102.913">  2  5  1 -1</clus>
<clus scale="   21.245">  2  5  1 -1</clus>
</clustering>
</event>
<event>
 9    1  0.2674825E-005  0.1148106E+03  0.7546771E-02  0.1268441E+00
         -2   -1    0    0    0  501 -0.00000000000E+00  0.00000000000E+00  0.85033002474E+02  0.85033002474E+02  0.00000000000E+00 0.  1.
          1   -1    0    0  502    0  0.00000000000E+00 -0.00000000000E+00 -0.33872305883E+03  0.33872305883E+03  0.00000000000E+00 0. -1.
        -24    2    1    2    0    0  0.19710738706E+02  0.19490373477E+02 -0.12574806584E+01  0.82981020564E+02  0.78204096041E+02 0.  0.
         23    2    1    2    0    0  0.46166108981E+02  0.39201556273E+02 -0.22132478645E+03  0.24722186746E+03  0.92010428876E+02 0.  0.
         13    1    3    3    0    0  0.35100414264E+02 -0.19760979132E+02  0.40674280856E+01  0.40485544939E+02  0.00000000000E+00 0. -1.
        -14    1    3    3    0    0 -0.15389675558E+02  0.39251352609E+02 -0.53249087439E+01  0.42495475624E+02  0.00000000000E+00 0.  1.
        -11    1    4    4    0    0  0.36437386980E+02  0.68171764106E+02 -0.13390516316E+03  0.15461457018E+03  0.00000000000E+00 0.  1.
         11    1    4    4    0    0  0.97287220008E+01 -0.28970207833E+02 -0.87419623293E+02  0.92607297285E+02  0.00000000000E+00 0. -1.
         21    1    1    2  502  501 -0.65876847687E+02 -0.58691929750E+02 -0.31107789250E+02  0.93553173281E+02  0.00000000000E+00 0. -1.
<scales pt_clust_5="13000.00000" pt_clust_6="13000.00000" pt_clust_7="13000.00000" pt_clust_8="13000.00000" pt_clust_9="68.66994"></scales>
<clustering>
<clus scale="   78.204">  5  6 -1 -1</clus>
<clus scale="   82.971">  1  5  2 -1</clus>
<clus scale="   68.670">  1  9  2 -1</clus>
<clus scale="   92.010">  7  8 -1 -1</clus>
<clus scale="  114.811">  2  5  1 -1</clus>
</clustering>
</event>
<event>
 9    1  0.2674825E-005  0.1025480E+03  0.7546771E-02  0.1281914E+00
          1   -1    0    0  502    0  0.00000000000E+00  0.00000000000E+00  0.71395444257E+03  0.71395444257E+03  0.00000000000E+00 0. -1.
         -2   -1    0    0    0  501 -0.00000000000E+00 -0.00000000000E+00 -0.38430888858E+02  0.38430888858E+02  0.00000000000E+00 0.  1.
        -24    2    1    2    0    0  0.38175010465E+02 -0.43621782591E+01  0.37905833972E+02  0.98079737367E+02  0.81892750654E+02 0.  0.
         23    2    1    2    0    0 -0.22595917529E+02  0.39080261454E+02  0.40357803744E+03  0.41719248533E+03  0.95585015529E+02 0.  0.
         13    1    3    3    0    0 -0.37343908752E+01  0.27090923375E+02  0.36568740512E+02  0.45663295842E+02  0.00000000000E+00 0. -1.
        -14    1    3    3    0    0  0.41909401341E+02 -0.31453101634E+02  0.13370934598E+01  0.52416441524E+02  0.00000000000E+00 0.  1.
        -13    1    4    4    0    0 -0.25091964541E+02 -0.28537988339E+02  0.15097105500E+03  0.15568006588E+03  0.00000000000E+00 0. -1.
         13    1    4    4    0    0  0.24960470117E+01  0.67618249792E+02  0.25260698243E+03  0.26151241945E+03  0.00000000000E+00 0.  1.
         21    1    1    2  502  501 -0.15579092936E+02 -0.34718083195E+02  0.23403968231E+03  0.23711310873E+03  0.00000000000E+00 0.  1.
<scales pt_clust_5="13000.00000" pt_clust_6="13000.00000" pt_clust_7="13000.00000" pt_clust_8="13000.00000" pt_clust_9="38.05330"></scales>
<clustering>
<clus scale="   38.053">  1  9  2 -1</clus>
<clus scale="   81.893">  5  6 -1 -1</clus>
<clus scale="   89.922">  2  5  1 -1</clus>
<clus scale="   95.585">  7  8 -1 -1</clus>
<clus scale="   38.053">  1  5  2 -1</clus>
</clustering>
</event>
<event>
 9    1  0.2674825E-005  0.9164756E+02  0.7546771E-02  0.1305302E+00
          1   -1    0    0  502    0  0.00000000000E+00  0.00000000000E+00  0.32397715038E+03  0.32397715038E+03  0.00000000000E+00 0. -1.
         -2   -1    0    0    0  501 -0.00000000000E+00 -0.00000000000E+00 -0.10083551528E+03  0.10083551528E+03  0.00000000000E+00 0.  1.
         23    2    1    2    0    0  0.24363640016E+01  0.46590813719E+01 -0.45077517103E+02  0.10120702161E+03  0.90461239031E+02 0.  0.
        -24    2    1    2    0    0 -0.70505164056E+02 -0.19550144612E+02  0.13453143177E+03  0.17284917851E+03  0.80155761273E+02 0.  0.
         13    1    4    4    0    0 -0.16600986674E+02  0.29694800372E+02  0.56772929712E+02  0.66185644031E+02  0.00000000000E+00 0. -1.
        -14    1    4    4    0    0 -0.53904177382E+02 -0.49244944984E+02  0.77758502061E+02  0.10666353448E+03  0.00000000000E+00 0.  1.
        -11    1    3    3    0    0  0.28495379397E+02  0.19947048328E+02 -0.58569028237E+02  0.68119031501E+02  0.00000000000E+00 0. -1.
         11    1    3    3    0    0 -0.26059015395E+02 -0.15287966956E+02  0.13491511134E+02  0.33087990113E+02  0.00000000000E+00 0.  1.
         21    1    1    2  502  501  0.68068800054E+02  0.14891063240E+02  0.13368772043E+03  0.15075646553E+03  0.00000000000E+00 0. -1.
<scales pt_clust_5="13000.00000" pt_clust_6="13000.00000" pt_clust_7="13000.00000" pt_clust_8="13000.00000" pt_clust_9="69.67859"></scales>
<clustering>
<clus scale="   69.679">  1  9  2 -1</clus>
<clus scale="   80.156">  5  6 -1 -1</clus>
<clus scale="   81.492">  1  5  2 -1</clus>
<clus scale="   90.461">  7  8 -1 -1</clus>
<clus scale="   69.679">  1  5  2 -1</clus>
</clustering>
</event>
<event>
 9    1  0.2674825E-005  0.1059193E+03  0.7546771E-02  0.1272642E+00
         -2   -1    0    0    0  501 -0.00000000000E+00  0.00000000000E+00  0.66679095797E+03  0.66679095797E+03  0.00000000000E+00 0.  1.
          1   -1    0    0  502    0  0.00000000000E+00 -0.00000000000E+00 -0.29288623179E+02  0.29288623179E+02  0.00000000000E+00 0. -1.
        -24    2    1    2    0    0 -0.56103472481E+02  0.15496623385E+02  0.44506038118E+03  0.45595066343E+03  0.80153101145E+02 0.  0.
         23    2    1    2    0    0  0.37147978685E+02 -0.38709361468E+02  0.17843818156E+03  0.20704950439E+03  0.90282476954E+02 0.  0.
         13    1    3    3    0    0  0.15405471947E+02  0.21236487302E+02  0.91574365721E+02  0.95258497868E+02  0.00000000000E+00 0. -1.
        -14    1    3    3    0    0 -0.71508944428E+02 -0.57398639167E+01  0.35348601546E+03  0.36069216556E+03  0.00000000000E+00 0.  1.
        -11    1    4    4    0    0  0.40848578307E+02 -0.59616866393E+02  0.16901980632E+03  0.18382184864E+03  0.00000000000E+00 0.  1.
         11    1    4    4    0    0 -0.37005996222E+01  0.20907504924E+02  0.94183752413E+01  0.23227655756E+02  0.00000000000E+00 0. -1.
         21    1    1    2  502  501  0.18955493796E+02  0.23212738083E+02  0.14003772046E+02  0.33079413324E+02  0.00000000000E+00 0. -1.
<scales pt_clust_5="13000.00000" pt_clust_6="13000.00000" pt_clust_7="13000.00000" pt_clust_8="13000.00000" pt_clust_9="29.96902"></scales>
<clustering>
<clus scale="   29.969">  2  9  1 -1</clus>
<clus scale="   80.153">  5  6 -1 -1</clus>
<clus scale="   90.282">  7  8 -1 -1</clus>
<clus scale="   97.429">  1  5  2 -1</clus>
<clus scale="   29.969">  2  5  1 -1</clus>
</clustering>
</event>
<event>
 9    1  0.2674825E-005  0.1084963E+03  0.7546771E-02  0.1268242E+00
         -4   -1    0    0    0  501 -0.00000000000E+00  0.00000000000E+00  0.15043159520E+03  0.15043159520E+03  0.00000000000E+00 0.  1.
          3   -1    0    0  502    0  0.00000000000E+00 -0.00000000000E+00 -0.15400406949E+03  0.15400406949E+03  0.00000000000E+00 0. -1.
         23    2    1    2    0    0 -0.50483822749E+01  0.49375753098E+02  0.69335910498E+02  0.12455534998E+03  0.90791605161E+02 0.  0.
        -24    2    1    2    0    0 -0.61315448321E+01 -0.85612249556E+02 -0.25711166814E+02  0.11933568794E+03  0.78821882756E+02 0.  0.
         13    1    4    4    0    0  0.35525048595E+02 -0.43454875585E+02 -0.20829931832E+02  0.59868533888E+02  0.00000000000E+00 0. -1.
        -14    1    4    4    0    0 -0.41656593427E+02 -0.42157373971E+02 -0.48812349813E+01  0.59467154052E+02  0.00000000000E+00 0.  1.
        -11    1    3    3    0    0  0.29388997671E+02  0.55201353815E+02  0.63536713137E+02  0.89150527555E+02  0.00000000000E+00 0. -1.
         11    1    3    3    0    0 -0.34437379946E+02 -0.58256007168E+01  0.57991973603E+01  0.35404822429E+02  0.00000000000E+00 0.  1.
         21    1    1    2  502  501  0.11179927107E+02  0.36236496457E+02 -0.47197217979E+02  0.60544626769E+02  0.00000000000E+00 0. -1.
<scales pt_clust_5="13000.00000" pt_clust_6="13000.00000" pt_clust_7="13000.00000" pt_clust_8="13000.00000" pt_clust_9="37.92195"></scales>
<clustering>
<clus scale="   37.922">  2  9  1 -1</clus>
<clus scale="   78.822">  5  6 -1 -1</clus>
<clus scale="   90.792">  7  8 -1 -1</clus>
<clus scale="   98.698">  2  5  1 -1</clus>
<clus scale="   37.922">  2  5  1 -1</clus>
</clustering>
</event>
<event>
 9    1  0.2674825E-005  0.1696454E+03  0.7546771E-02  0.1180260E+00
         -2   -1    0    0    0  501 -0.00000000000E+00  0.00000000000E+00  0.51094360433E+02  0.51094360433E+02  0.00000000000E+00 0.  1.
          1   -1    0    0  502    0  0.00000000000E+00 -0.00000000000E+00 -0.11919806227E+04  0.11919806227E+04  0.00000000000E+00 0. -1.
         23    2    1    2    0    0 -0.10844294054E+03 -0.31510445536E+02 -0.13308812953E+03  0.19834356078E+03  0.94206891196E+02 0.  0.
        -24    2    1    2    0    0  0.14830806449E+03 -0.21990208708E+02 -0.91393453296E+03  0.92957099739E+03  0.79668421547E+02 0.  0.
         13    1    4    4    0    0  0.14352034357E+03 -0.15985291665E+01 -0.69681634629E+03  0.71144477282E+03  0.00000000000E+00 0. -1.
        -14    1    4    4    0    0  0.47877209257E+01 -0.20391679541E+02 -0.21711818666E+03  0.21812622457E+03  0.00000000000E+00 0.  1.
        -11    1    3    3    0    0 -0.74806331513E+01  0.26027598997E+02 -0.94914077906E+01  0.28696386598E+02  0.00000000000E+00 0.  1.
         11    1    3    3    0    0 -0.10096230739E+03 -0.57538044534E+02 -0.12359672174E+03  0.16964717418E+03  0.00000000000E+00 0. -1.
         21    1    1    2  502  501 -0.39865123949E+02  0.53500654244E+02 -0.93863599743E+02  0.11516042492E+03  0.00000000000E+00 0.  1.
<scales pt_clust_5="13000.00000" pt_clust_6="13000.00000" pt_clust_7="13000.00000" pt_clust_8="13000.00000" pt_clust_9="66.71992"></scales>
<clustering>
<clus scale="   66.720">  1  9  2 -1</clus>
<clus scale="   79.668">  5  6 -1 -1</clus>
<clus scale="   94.207">  7  8 -1 -1</clus>
<clus scale="  162.024">  2  5  1 -1</clus>
<clus scale="  162.024">  2  5  1 -1</clus>
</clustering>
</event>
<event>
 9    1  0.2674825E-005  0.9301163E+02  0.7546771E-02  0.1303600E+00
          1   -1    0    0  502    0  0.00000000000E+00  0.00000000000E+00  0.38999149356E+03  0.38999149356E+03  0.00000000000E+00 0. -1.
         -2   -1    0    0    0  501 -0.00000000000E+00 -0.00000000000E+00 -0.19746290509E+03  0.19746290509E+03  0.00000000000E+00 0.  1.
         23    2    1    2    0    0  0.18027863410E+02 -0.77503435442E+01 -0.17389320654E+03  0.19741715769E+03  0.91376228780E+02 0.  0.
        -24    2    1    2    0    0  0.99995071320E+01 -0.31514596485E+01  0.13393195163E+03  0.15561047181E+03  0.78529799625E+02 0.  0.
         11    1    4    4    0    0 -0.29739499123E+02 -0.12189488174E+02  0.90566338829E+02  0.96100380639E+02  0.00000000000E+00 0. -1.
        -12    1    4    4    0    0  0.39739006255E+02  0.90380285254E+01  0.43365612804E+02  0.59510091175E+02  0.00000000000E+00 0.  1.
        -11    1    3    3    0    0 -0.11669432296E+02 -0.44184402631E+02 -0.73212824873E+02  0.86305010352E+02  0.00000000000E+00 0. -1.
         11    1    3    3    0    0  0.29697295706E+02  0.36434059087E+02 -0.10068038167E+03  0.11111214734E+03  0.00000000000E+00 0.  1.
         21    1    1    2  502  501 -0.28027370542E+02  0.10901803193E+02  0.23248984339E+03  0.23442676914E+03  0.00000000000E+00 0. -1.
<scales pt_clust_5="13000.00000" pt_clust_6="13000.00000" pt_clust_7="13000.00000" pt_clust_8="13000.00000" pt_clust_9="30.07296"></scales>
<clustering>
<clus scale="   30.073">  1  9  2 -1</clus>
<clus scale="   78.530">  5  6 -1 -1</clus>
<clus scale="   80.427">  1  5  2 -1</clus>
<clus scale="   91.376">  7  8 -1 -1</clus>
<clus scale="   30.073">  1  5  2 -1</clus>
</clustering>
</event>
<event>
 9    1  0.2674825E-005  0.1120594E+03  0.7546771E-02  0.1259872E+00
          1   -1    0    0  502    0  0.00000000000E+00  0.00000000000E+00  0.32938699710E+03  0.32938699710E+03  0.00000000000E+00 0. -1.
         -2   -1    0    0    0  501 -0.00000000000E+00 -0.00000000000E+00 -0.16303498975E+03  0.16303498975E+03  0.00000000000E+00 0.  1.
         23    2    1    2    0    0  0.66872994148E+02  0.34235909888E+02 -0.11598993191E+03  0.16429392035E+03  0.88852310540E+02 0.  0.
        -24    2    1    2    0    0 -0.13882243080E+02  0.14360948512E+02  0.21169678340E+03  0.22732919551E+03  0.80399511910E+02 0.  0.
         11    1    4    4    0    0 -0.32420745437E+02 -0.16125111857E+02  0.16292009045E+03  0.16689541587E+03  0.00000000000E+00 0. -1.
        -12    1    4    4    0    0  0.18538502357E+02  0.30486060369E+02  0.48776692954E+02  0.60433779644E+02  0.00000000000E+00 0.  1.
        -11    1    3    3    0    0  0.30686772593E+02 -0.29653452122E+02 -0.47972265857E+02  0.64205478943E+02  0.00000000000E+00 0. -1.
         11    1    3    3    0    0  0.36186221555E+02  0.63889362010E+02 -0.68017666050E+02  0.10008844141E+03  0.00000000000E+00 0.  1.
         21    1    1    2  502  501 -0.52990751068E+02 -0.48596858400E+02  0.70645155857E+02  0.10079887098E+03  0.00000000000E+00 0. -1.
<scales pt_clust_5="13000.00000" pt_clust_6="13000.00000" pt_clust_7="13000.00000" pt_clust_8="13000.00000" pt_clust_9="71.90045"></scales>
<clustering>
<clus scale="   71.900">  1  9  2 -1</clus>
<clus scale="   80.400">  5  6 -1 -1</clus>
<clus scale="   88.852">  7  8 -1 -1</clus>
<clus scale="  105.483">  1  5  2 -1</clus>
<clus scale="   71.900">  1  5  2 -1</clus>
</clustering>
</event>
<event>
 9    1  0.2674825E-005  0.1158692E+03  0.7546771E-02  0.1251930E+00
         -2   -1    0    0    0  501 -0.00000000000E+00  0.00000000000E+00  0.31418073671E+02  0.31418073671E+02  0.00000000000E+00 0.  1.
          1   -1    0    0  502    0  0.00000000000E+00 -0.00000000000E+00 -0.87877188819E+03  0.87877188819E+03  0.00000000000E+00 0. -1.
         23    2    1    2    0    0  0.75804710420E+02 -0.31102929959E+02 -0.12741180575E+03  0.17475120290E+03  0.87123293645E+02 0.  0.
        -24    2    1    2    0    0 -0.39047654405E+02  0.54683029378E+02 -0.47013748621E+03  0.48184577455E+03  0.81431821121E+02 0.  0.
         13    1    4    4    0    0 -0.62825799590E+02  0.52164912261E+02 -0.36551501977E+03  0.37452568516E+03  0.00000000000E+00 0. -1.
        -14    1    4    4    0    0  0.23778145185E+02  0.25181171167E+01 -0.10462246644E+03  0.10732008939E+03  0.00000000000E+00 0.  1.
        -13    1    3    3    0    0  0.14399520347E+02  0.28613386720E+02 -0.49516518028E+02  0.58974211681E+02  0.00000000000E+00 0. -1.
         13    1    3    3    0    0  0.61405190073E+02 -0.59716316679E+02 -0.77895287722E+02  0.11577699122E+03  0.00000000000E+00 0.  1.
         21    1    1    2  502  501 -0.36757056015E+02 -0.23580099419E+02 -0.24980452255E+03  0.25359298441E+03  0.00000000000E+00 0.  1.
<scales pt_clust_5="13000.00000" pt_clust_6="13000.00000" pt_clust_7="13000.00000" pt_clust_8="13000.00000" pt_clust_9="43.67038"></scales>
<clustering>
<clus scale="   43.670">  2  9  1 -1</clus>
<clus scale="   81.432">  5  6 -1 -1</clus>
<clus scale="   87.123">  7  8 -1 -1</clus>
<clus scale="  111.653">  2  5  1 -1</clus>
<clus scale="   43.670">  2  5  1 -1</clus>
</clustering>
</event>
<event>
 9    1  0.2674825E-005  0.1984434E+03  0.7546771E-02  0.1151432E+00
          1   -1    0    0  502    0  0.00000000000E+00  0.00000000000E+00  0.69772326303E+03  0.69772326303E+03  0.00000000000E+00 0. -1.
         -2   -1    0    0    0  501 -0.00000000000E+00 -0.00000000000E+00 -0.68887798259E+02  0.68887798259E+02  0.00000000000E+00 0.  1.
        -24    2    1    2    0    0 -0.14349147166E+03  0.10791650791E+03  0.18378112913E+03  0.26984628798E+03  0.82496912646E+02 0.  0.
         23    2    1    2    0    0  0.15453459482E+03 -0.87724089300E+02  0.39977607511E+03  0.44597299036E+03  0.86571017439E+02 0.  0.
         11    1    3    3    0    0 -0.37553353844E+00  0.36003892512E+02  0.22019033639E+02  0.42204965867E+02  0.00000000000E+00 0. -1.
        -12    1    3    3    0    0 -0.14311593812E+03  0.71912615397E+02  0.16176209549E+03  0.22764132212E+03  0.00000000000E+00 0.  1.
        -11    1    4    4    0    0  0.10334419123E+03 -0.17136248289E+02  0.16412012934E+03  0.19470256732E+03  0.00000000000E+00 0.  1.
         11    1    4    4    0    0  0.51190403588E+02 -0.70587841011E+02  0.23565594576E+03  0.25127042303E+03  0.00000000000E+00 0. -1.
         21    1    1    2  502  501 -0.11043123160E+02 -0.20192418609E+02  0.45278260532E+02  0.50791782950E+02  0.00000000000E+00 0.  1.
<scales pt_clust_5="13000.00000" pt_clust_6="13000.00000" pt_clust_7="13000.00000" pt_clust_8="13000.00000" pt_clust_9="23.01487"></scales>
<clustering>
<clus scale="   23.015">  1  9  2 -1</clus>
<clus scale="   82.497">  5  6 -1 -1</clus>
<clus scale="   86.571">  7  8 -1 -1</clus>
<clus scale="  196.700">  2  5  1 -1</clus>
<clus scale="   23.015">  1  5  2 -1</clus>
</clustering>
</event>
<event>
 9    1  0.2674825E-005  0.9649334E+02  0.7546771E-02  0.1294520E+00
          1   -1    0    0  502    0  0.00000000000E+00  0.00000000000E+00  0.13990288835E+03  0.13990288835E+03  0.00000000000E+00 0. -1.
         -2   -1    0    0    0  501 -0.00000000000E+00 -0.00000000000E+00 -0.27396248955E+03  0.27396248955E+03  0.00000000000E+00 0.  1.
        -24    2    1    2    0    0  0.23779223026E+02 -0.41584138611E+01 -0.16307211100E+03  0.18324862152E+03  0.80029994675E+02 0.  0.
         23    2    1    2    0    0 -0.43060756864E+02 -0.32058089502E+02 -0.67262696427E+02  0.12596338569E+03  0.91981271576E+02 0.  0.
         13    1    3    3    0    0 -0.14085251674E+02  0.27869438953E+02 -0.41388735036E+02  0.51847153539E+02  0.00000000000E+00 0. -1.
        -14    1    3    3    0    0  0.37864474700E+02 -0.32027852814E+02 -0.12168337597E+03  0.13140146798E+03  0.00000000000E+00 0.  1.
        -11    1    4    4    0    0  0.26830769833E+02 -0.72818480713E+01 -0.32278061689E+01  0.27988109150E+02  0.00000000000E+00 0.  1.
         11    1    4    4    0    0 -0.69891526697E+02 -0.24776241431E+02 -0.64034890258E+02  0.97975276544E+02  0.00000000000E+00 0. -1.
         21    1    1    2  502  501  0.19281533838E+02  0.36216503363E+02  0.96275206229E+02  0.10465337069E+03  0.00000000000E+00 0. -1.
<scales pt_clust_5="13000.00000" pt_clust_6="13000.00000" pt_clust_7="13000.00000" pt_clust_8="13000.00000" pt_clust_9="41.02941"></scales>
<clustering>
<clus scale="   41.029">  1  9  2 -1</clus>
<clus scale="   80.030">  5  6 -1 -1</clus>
<clus scale="   85.178">  2  5  1 -1</clus>
<clus scale="   91.981">  7  8 -1 -1</clus>
<clus scale="   41.029">  1  5  2 -1</clus>
</clustering>
</event>
<event>
 9    1  0.2674825E-005  0.9446323E+02  0.7546771E-02  0.1300547E+00
         -2   -1    0    0    0  501 -0.00000000000E+00  0.00000000000E+00  0.14753401030E+03  0.14753401030E+03  0.00000000000E+00 0.  1.
          1   -1    0    0  502    0  0.00000000000E+00 -0.00000000000E+00 -0.27674309720E+03  0.27674309720E+03  0.00000000000E+00 0. -1.
        -24    2    1    2    0    0  0.49309327382E+02  0.37109704638E+02  0.27241574202E+02  0.10308233175E+03  0.77944363543E+02 0.  0.
         23    2    1    2    0    0 -0.10331548690E+02 -0.14021279767E+02 -0.22240053381E+03  0.24118397457E+03  0.91675378182E+02 0.  0.
         11    1    3    3    0    0  0.22374761807E+02  0.36033752814E+02 -0.21371907647E+02  0.47495470776E+02  0.00000000000E+00 0. -1.
        -12    1    3    3    0    0  0.26934565575E+02  0.10759518244E+01  0.48613481849E+02  0.55586860970E+02  0.00000000000E+00 0.  1.
        -11    1    4    4    0    0 -0.14091326608E+00  0.39084496553E+02 -0.86494615854E+02  0.94915416551E+02  0.00000000000E+00 0.  1.
         11    1    4    4    0    0 -0.10190635424E+02 -0.53105776320E+02 -0.13590591796E+03  0.14626855802E+03  0.00000000000E+00 0. -1.
         21    1    1    2  502  501 -0.38977778692E+02 -0.23088424872E+02  0.65949872710E+02  0.80010801179E+02  0.00000000000E+00 0.  1.
<scales pt_clust_5="13000.00000" pt_clust_6="13000.00000" pt_clust_7="13000.00000" pt_clust_8="13000.00000" pt_clust_9="45.30279"></scales>
<clustering>
<clus scale="   45.303">  1  9  2 -1</clus>
<clus scale="   77.944">  5  6 -1 -1</clus>
<clus scale="   81.205">  1  5  2 -1</clus>
<clus scale="   91.675">  7  8 -1 -1</clus>
<clus scale="   94.463">  2  5  1 -1</clus>
</clustering>
</event>
<event>
 9    1  0.2674825E-005  0.3137075E+03  0.7546771E-02  0.1098873E+00
          1   -1    0    0  502    0  0.00000000000E+00  0.00000000000E+00  0.86196831357E+03  0.86196831357E+03  0.00000000000E+00 0. -1.
         -2   -1    0    0    0  501 -0.00000000000E+00 -0.00000000000E+00 -0.33166826665E+03  0.33166826665E+03  0.00000000000E+00 0.  1.
         23    2    1    2    0    0 -0.15989327628E+03  0.77390111900E+00 -0.12921790284E+02  0.18368309994E+03  0.89476532211E+02 0.  0.
        -24    2    1    2    0    0  0.45814583060E+02  0.28923507215E+03 -0.79204265670E+02  0.31386914174E+03  0.80527134920E+02 0.  0.
         11    1    4    4    0    0  0.27647872902E+02  0.15947464875E+03 -0.21550293819E+01  0.16186788632E+03  0.00000000000E+00 0. -1.
        -12    1    4    4    0    0  0.18166710159E+02  0.12976042339E+03 -0.77049236288E+02  0.15200125542E+03  0.00000000000E+00 0.  1.
        -13    1    3    3    0    0 -0.14992747481E+03 -0.26495736467E+02 -0.20634256395E+02  0.15364258619E+03  0.00000000000E+00 0.  1.
         13    1    3    3    0    0 -0.99658014758E+01  0.27269637586E+02  0.77124661110E+01  0.30040513755E+02  0.00000000000E+00 0. -1.
         21    1    1    2  502  501  0.11407869322E+03 -0.29000897327E+03  0.62242610287E+03  0.69608433854E+03  0.00000000000E+00 0. -1.
<scales pt_clust_5="13000.00000" pt_clust_6="13000.00000" pt_clust_7="13000.00000" pt_clust_8="13000.00000" pt_clust_9="303.19594"></scales>
<clustering>
<clus scale="   80.527">  5  6 -1 -1</clus>
<clus scale="   89.477">  7  8 -1 -1</clus>
<clus scale="  183.228">  2  7  1 -1</clus>
<clus scale="  303.196">  1  9  2 -1</clus>
<clus scale="  303.196">  1  5  2 -1</clus>
</clustering>
</event>
<event>
 9    1  0.2674825E-005  0.9976850E+02  0.7546771E-02  0.1286115E+00
          1   -1    0    0  502    0  0.00000000000E+00  0.00000000000E+00  0.21912438872E+03  0.21912438872E+03  0.00000000000E+00 0. -1.
         -2   -1    0    0    0  501 -0.00000000000E+00 -0.00000000000E+00 -0.67577967836E+02  0.67577967836E+02  0.00000000000E+00 0.  1.
        -24    2    1    2    0    0  0.58299891927E+02  0.25558829616E+01  0.47157218380E+02  0.10895503886E+03  0.79006248563E+02 0.  0.
         23    2    1    2    0    0 -0.21979141243E+02  0.27702043740E+02  0.73089084767E+02  0.12105131758E+03  0.89782633612E+02 0.  0.
         11    1    3    3    0    0 -0.18925030668E+01 -0.29166879245E+02  0.73982381188E+01  0.30149997346E+02  0.00000000000E+00 0. -1.
        -12    1    3    3    0    0  0.60192394994E+02  0.31722762206E+02  0.39758980262E+02  0.78805041517E+02  0.00000000000E+00 0.  1.
        -11    1    4    4    0    0  0.31284993458E+02  0.16383095932E+02  0.80400698920E+01  0.36218770987E+02  0.00000000000E+00 0.  1.
         11    1    4    4    0    0 -0.53264134701E+02  0.11318947808E+02  0.65049014875E+02  0.84832546591E+02  0.00000000000E+00 0. -1.
         21    1    1    2  502  501 -0.36320750683E+02 -0.30257926701E+02  0.31300117735E+02  0.56696000112E+02  0.00000000000E+00 0. -1.
<scales pt_clust_5="13000.00000" pt_clust_6="13000.00000" pt_clust_7="13000.00000" pt_clust_8="13000.00000" pt_clust_9="47.27303"></scales>
<clustering>
<clus scale="   47.273">  1  9  2 -1</clus>
<clus scale="   79.006">  5  6 -1 -1</clus>
<clus scale="   89.783">  7  8 -1 -1</clus>
<clus scale="   90.193">  2  5  1 -1</clus>
<clus scale="   47.273">  1  5  2 -1</clus>
</clustering>
</event>
<event>
 9    1  0.2674825E-005  0.1020291E+03  0.7546771E-02  0.1280651E+00
         -2   -1    0    0    0  501 -0.00000000000E+00  0.00000000000E+00  0.26600483939E+03  0.26600483939E+03  0.00000000000E+00 0.  1.
          1   -1    0    0  502    0  0.00000000000E+00 -0.00000000000E+00 -0.10373560160E+03  0.10373560160E+03  0.00000000000E+00 0. -1.
         23    2    1    2    0    0 -0.33359646881E+02  0.19067801329E+02  0.17699886417E+03  0.20266761688E+03  0.90934690451E+02 0.  0.
        -24    2    1    2    0    0  0.65320160172E+02 -0.30471877219E+02  0.28318419118E+02  0.11225803068E+03  0.81269145221E+02 0.  0.
         13    1    4    4    0    0  0.16841378847E+02  0.27415462940E+02  0.17807310970E+01  0.32224379791E+02  0.00000000000E+00 0. -1.
        -14    1    4    4    0    0  0.48478781325E+02 -0.57887340159E+02  0.26537688021E+02  0.80033650891E+02  0.00000000000E+00 0.  1.
        -11    1    3    3    0    0 -0.40350268967E+02  0.47453278532E+02  0.80183735117E+02  0.10153516251E+03  0.00000000000E+00 0.  1.
         11    1    3    3    0    0  0.69906220854E+01 -0.28385477203E+02  0.96815129052E+02  0.10113245437E+03  0.00000000000E+00 0. -1.
         21    1    1    2  502  501 -0.31960513291E+02  0.11404075890E+02 -0.43048045501E+02  0.54814793425E+02  0.00000000000E+00 0. -1.
<scales pt_clust_5="13000.00000" pt_clust_6="13000.00000" pt_clust_7="13000.00000" pt_clust_8="13000.00000" pt_clust_9="33.93416"></scales>
<clustering>
<clus scale="   33.934">  2  9  1 -1</clus>
<clus scale="   81.269">  5  6 -1 -1</clus>
<clus scale="   90.935">  7  8 -1 -1</clus>
<clus scale="   93.517">  2  5  1 -1</clus>
<clus scale="   33.934">  2  5  1 -1</clus>
</clustering>
</event>
<event>
 9    1  0.2674825E-005  0.1147734E+03  0.7546771E-02  0.1253127E+00
          1   -1    0    0  502    0  0.00000000000E+00  0.00000000000E+00  0.11069815077E+03  0.11069815077E+03  0.00000000000E+00 0. -1.
         -2   -1    0    0    0  501 -0.00000000000E+00 -0.00000000000E+00 -0.18948852692E+03  0.18948852692E+03  0.00000000000E+00 0.  1.
         23    2    1    2    0    0 -0.73463752729E+02 -0.68590934446E+01 -0.96243715226E+02  0.15123964280E+03  0.90369279652E+02 0.  0.
        -24    2    1    2    0    0  0.64045078024E+02 -0.27854171279E+02  0.17583943257E+02  0.11297844806E+03  0.87047732819E+02 0.  0.
         11    1    4    4    0    0 -0.62751413929E+01 -0.38249742076E+02  0.15839606944E+02  0.41872584307E+02  0.00000000000E+00 0. -1.
        -12    1    4    4    0    0  0.70320219417E+02  0.10395570797E+02  0.17443363131E+01  0.71105863754E+02  0.00000000000E+00 0.  1.
        -11    1    3    3    0    0 -0.38185545939E+02 -0.44675047855E+02 -0.26641895074E+02  0.64527408073E+02  0.00000000000E+00 0. -1.
         11    1    3    3    0    0 -0.35278206790E+02  0.37815954410E+02 -0.69601820153E+02  0.86712234724E+02  0.00000000000E+00 0.  1.
         21    1    1    2  502  501  0.94186747054E+01  0.34713264724E+02 -0.13060417936E+00  0.35968586828E+02  0.00000000000E+00 0. -1.
<scales pt_clust_5="13000.00000" pt_clust_6="13000.00000" pt_clust_7="13000.00000" pt_clust_8="13000.00000" pt_clust_9="35.96835"></scales>
<clustering>
<clus scale="   35.968">  1  9  2 -1</clus>
<clus scale="   87.048">  5  6 -1 -1</clus>
<clus scale="   90.369">  7  8 -1 -1</clus>
<clus scale="  112.177">  1  5  2 -1</clus>
<clus scale="   35.968">  1  5  2 -1</clus>
</clustering>
</event>
<event>
 9    1  0.2674825E-005  0.1459916E+03  0.7546771E-02  0.1208082E+00
          1   -1    0    0  502    0  0.00000000000E+00  0.00000000000E+00  0.56998297203E+03  0.56998297203E+03  0.00000000000E+00 0. -1.
         -2   -1    0    0    0  501 -0.00000000000E+00 -0.00000000000E+00 -0.10944919444E+03  0.10944919444E+03  0.00000000000E+00 0.  1.
        -24    2    1    2    0    0  0.85798154106E+02  0.61192826102E+02 -0.21779210230E+02  0.13425133121E+03  0.80269550378E+02 0.  0.
         23    2    1    2    0    0 -0.15028614094E+03 -0.66398320362E+02  0.37444988487E+03  0.41940227351E+03  0.93224941098E+02 0.  0.
         11    1    3    3    0    0  0.61646297269E+02 -0.38712051629E+01 -0.89141413242E+00  0.61774159773E+02  0.00000000000E+00 0. -1.
        -12    1    3    3    0    0  0.24151856837E+02  0.65064031265E+02 -0.20887796097E+02  0.72477171433E+02  0.00000000000E+00 0.  1.
        -11    1    4    4    0    0 -0.68081563040E+01 -0.41332285954E+02  0.10616452422E+03  0.11412981669E+03  0.00000000000E+00 0.  1.
         11    1    4    4    0    0 -0.14347798464E+03 -0.25066034408E+02  0.26828536065E+03  0.30527245682E+03  0.00000000000E+00 0. -1.
         21    1    1    2  502  501  0.64487986837E+02  0.52054942597E+01  0.10786310296E+03  0.12577856175E+03  0.00000000000E+00 0.  1.
<scales pt_clust_5="13000.00000" pt_clust_6="13000.00000" pt_clust_7="13000.00000" pt_clust_8="13000.00000" pt_clust_9="64.69774"></scales>
<clustering>
<clus scale="   64.698">  1  9  2 -1</clus>
<clus scale="   80.270">  5  6 -1 -1</clus>
<clus scale="   93.225">  7  8 -1 -1</clus>
<clus scale="  138.079">  2  5  1 -1</clus>
<clus scale="   64.698">  1  5  2 -1</clus>
</clustering>
</event>
<event>
 9    1  0.2674825E-005  0.1248552E+03  0.7546771E-02  0.1236561E+00
         -4   -1    0    0    0  501 -0.00000000000E+00  0.00000000000E+00  0.70499205101E+02  0.70499205101E+02  0.00000000000E+00 0.  1.
          3   -1    0    0  502    0  0.00000000000E+00 -0.00000000000E+00 -0.29262080883E+03  0.29262080883E+03  0.00000000000E+00 0. -1.
         23    2    1    2    0    0  0.10842490701E+01 -0.69860668617E+02 -0.75720499737E+02  0.14037482496E+03  0.95340488700E+02 0.  0.
        -24    2    1    2    0    0 -0.71418631995E+01  0.91945108443E+02 -0.79615087090E+02  0.15214214920E+03  0.91124981731E+02 0.  0.
         11    1    4    4    0    0 -0.22190147820E+02 -0.82954210527E+01 -0.32874379146E+02  0.40520877026E+02  0.00000000000E+00 0. -1.
        -12    1    4    4    0    0  0.15048284620E+02  0.10024052950E+03 -0.46740707945E+02  0.11162127218E+03  0.00000000000E+00 0.  1.
        -13    1    3    3    0    0 -0.30229906772E+02 -0.11346960371E+00  0.33156071781E+01  0.30411402299E+02  0.00000000000E+00 0.  1.
         13    1    3    3    0    0  0.31314155842E+02 -0.69747199013E+02 -0.79036106915E+02  0.10996342266E+03  0.00000000000E+00 0. -1.
         21    1    1    2  502  501  0.60576141294E+01 -0.22084439825E+02 -0.66786016899E+02  0.70603039769E+02  0.00000000000E+00 0. -1.
<scales pt_clust_5="13000.00000" pt_clust_6="13000.00000" pt_clust_7="13000.00000" pt_clust_8="13000.00000" pt_clust_9="22.90016"></scales>
<clustering>
<clus scale="   22.900">  2  9  1 -1</clus>
<clus scale="   91.125">  5  6 -1 -1</clus>
<clus scale="   95.340">  7  8 -1 -1</clus>
<clus scale="  121.667">  2  5  1 -1</clus>
<clus scale="   22.900">  2  5  1 -1</clus>
</clustering>
</event>
<event>
 9    1  0.2674825E-005  0.9709905E+02  0.7546771E-02  0.1293832E+00
          1   -1    0    0  502    0  0.00000000000E+00  0.00000000000E+00  0.13102915882E+03  0.13102915882E+03  0.00000000000E+00 0. -1.
         -2   -1    0    0    0  501 -0.00000000000E+00 -0.00000000000E+00 -0.12580618665E+03  0.12580618665E+03  0.00000000000E+00 0.  1.
        -24    2    1    2    0    0  0.22274373814E+02 -0.25542022887E+02 -0.61508947212E+02  0.10680080412E+03  0.80464392815E+02 0.  0.
         23    2    1    2    0    0  0.13083589028E+02  0.91237630588E+01  0.53537932537E+02  0.10887842297E+03  0.93454681068E+02 0.  0.
         13    1    3    3    0    0 -0.13309338693E+02  0.21838266119E+02 -0.75659942876E+01  0.26670069987E+02  0.00000000000E+00 0. -1.
        -14    1    3    3    0    0  0.35583712507E+02 -0.47380289006E+02 -0.53942952924E+02  0.80130734130E+02  0.00000000000E+00 0.  1.
        -13    1    4    4    0    0  0.39576864015E+02 -0.28437208485E+02  0.24956071986E+02  0.54752246718E+02  0.00000000000E+00 0.  1.
         13    1    4    4    0    0 -0.26493274988E+02  0.37560971544E+02  0.28581860551E+02  0.54126176250E+02  0.00000000000E+00 0. -1.
         21    1    1    2  502  501 -0.35357962842E+02  0.16418259828E+02  0.13193986840E+02  0.41156118389E+02  0.00000000000E+00 0. -1.
<scales pt_clust_5="13000.00000" pt_clust_6="13000.00000" pt_clust_7="13000.00000" pt_clust_8="13000.00000" pt_clust_9="38.98390"></scales>
<clustering>
<clus scale="   38.984">  1  9  2 -1</clus>
<clus scale="   80.464">  5  6 -1 -1</clus>
<clus scale="   84.670">  2  5  1 -1</clus>
<clus scale="   93.455">  7  8 -1 -1</clus>
<clus scale="   38.984">  1  5  2 -1</clus>
</clustering>
</event>
<event>
 9    1  0.2674825E-005  0.1276250E+03  0.7546771E-02  0.1232744E+00
         -4   -1    0    0    0  501 -0.00000000000E+00  0.00000000000E+00  0.69822665225E+02  0.69822665225E+02  0.00000000000E+00 0.  1.
          3   -1    0    0  502    0  0.00000000000E+00 -0.00000000000E+00 -0.42346432395E+03  0.42346432395E+03  0.00000000000E+00 0. -1.
         23    2    1    2    0    0 -0.58344634483E+02  0.81217720927E+02 -0.29165991776E+02  0.13656086532E+03  0.88305154412E+02 0.  0.
        -24    2    1    2    0    0  0.49453065091E+02 -0.44423122754E+02 -0.27452685868E+03  0.29405407339E+03  0.81754403312E+02 0.  0.
         11    1    4    4    0    0  0.38935574757E+02  0.10417991203E+02 -0.17829840442E+03  0.18279724982E+03  0.00000000000E+00 0. -1.
        -12    1    4    4    0    0  0.10517490334E+02 -0.54841113957E+02 -0.96228454258E+02  0.11125682357E+03  0.00000000000E+00 0.  1.
        -13    1    3    3    0    0 -0.81571351542E+01 -0.19335240193E+02 -0.58526853887E+01  0.21786332722E+02  0.00000000000E+00 0.  1.
         13    1    3    3    0    0 -0.50187499329E+02  0.10055296112E+03 -0.23313306387E+02  0.11477453260E+03  0.00000000000E+00 0. -1.
         21    1    1    2  502  501  0.88915693928E+01 -0.36794598174E+02 -0.49948808268E+02  0.62672050457E+02  0.00000000000E+00 0.  1.
<scales pt_clust_5="13000.00000" pt_clust_6="13000.00000" pt_clust_7="13000.00000" pt_clust_8="13000.00000" pt_clust_9="37.85370"></scales>
<clustering>
<clus scale="   37.854">  2  9  1 -1</clus>
<clus scale="   81.754">  5  6 -1 -1</clus>
<clus scale="   88.305">  7  8 -1 -1</clus>
<clus scale="  123.183">  2  5  1 -1</clus>
<clus scale="   37.854">  2  5  1 -1</clus>
</clustering>
</event>
<event>
 9    1  0.2674825E-005  0.1188410E+03  0.7546771E-02  0.1249468E+00
          1   -1    0    0  502    0  0.00000000000E+00  0.00000000000E+00  0.27933822723E+03  0.27933822723E+03  0.00000000000E+00 0. -1.
         -2   -1    0    0    0  501 -0.00000000000E+00 -0.00000000000E+00 -0.79410677601E+02  0.79410677601E+02  0.00000000000E+00 0.  1.
        -24    2    1    2    0    0 -0.38223908367E+02  0.28965625022E+02 -0.43186197769E+01  0.94460912325E+02  0.81265853080E+02 0.  0.
         23    2    1    2    0    0  0.69258015807E+02 -0.42692619522E+02  0.19056532345E+03  0.22769958247E+03  0.94406699134E+02 0.  0.
         11    1    3    3    0    0 -0.18116070810E+02 -0.27346937325E+02 -0.10263286499E+02  0.34371238738E+02  0.00000000000E+00 0. -1.
        -12    1    3    3    0    0 -0.20107837557E+02  0.56312562347E+02  0.59446667222E+01  0.60089673587E+02  0.00000000000E+00 0.  1.
        -11    1    4    4    0    0 -0.11193001302E+02  0.18538720980E+02  0.20317281273E+02  0.29694433351E+02  0.00000000000E+00 0.  1.
         11    1    4    4    0    0  0.80451017109E+02 -0.61231340503E+02  0.17024804217E+03  0.19800514912E+03  0.00000000000E+00 0. -1.
         21    1    1    2  502  501 -0.31034107440E+02  0.13726994500E+02  0.13680845954E+02  0.36588410032E+02  0.00000000000E+00 0.  1.
<scales pt_clust_5="13000.00000" pt_clust_6="13000.00000" pt_clust_7="13000.00000" pt_clust_8="13000.00000" pt_clust_9="33.93444"></scales>
<clustering>
<clus scale="   33.934">  2  9  1 -1</clus>
<clus scale="   81.266">  5  6 -1 -1</clus>
<clus scale="   94.407">  7  8 -1 -1</clus>
<clus scale="  108.695">  2  5  1 -1</clus>
<clus scale="  118.841">  1  5  2 -1</clus>
</clustering>
</event>
<event>
 9    1  0.2674825E-005  0.9235221E+02  0.7546771E-02  0.1310112E+00
          1   -1    0    0  502    0  0.00000000000E+00  0.00000000000E+00  0.30047717277E+02  0.30047717277E+02  0.00000000000E+00 0. -1.
         -2   -1    0    0    0  501 -0.00000000000E+00 -0.00000000000E+00 -0.76022337481E+03  0.76022337481E+03  0.00000000000E+00 0.  1.
        -24    2    1    2    0    0  0.13483905969E+02 -0.22261386633E+01 -0.63265634123E+03  0.63681694338E+03  0.71379281708E+02 0.  0.
         23    2    1    2    0    0 -0.32813507230E+02 -0.52058765423E+01 -0.73139463133E+02  0.12146593877E+03  0.91108538598E+02 0.  0.
         11    1    3    3    0    0  0.37401056657E+01 -0.30871588618E+02 -0.14876202986E+03  0.15197758026E+03  0.00000000000E+00 0. -1.
        -12    1    3    3    0    0  0.97438003029E+01  0.28645449955E+02 -0.48389431137E+03  0.48483936312E+03  0.00000000000E+00 0.  1.
        -11    1    4    4    0    0 -0.32854014740E+02  0.40004690858E+02 -0.39188238644E+02  0.64926725030E+02  0.00000000000E+00 0.  1.
         11    1    4    4    0    0  0.40507510055E-01 -0.45210567400E+02 -0.33951224490E+02  0.56539213736E+02  0.00000000000E+00 0. -1.
         21    1    1    2  502  501  0.19329601261E+02  0.74320152057E+01 -0.24379853167E+02  0.31988209943E+02  0.00000000000E+00 0. -1.
<scales pt_clust_5="13000.00000" pt_clust_6="13000.00000" pt_clust_7="13000.00000" pt_clust_8="13000.00000" pt_clust_9="20.70914"></scales>
<clustering>
<clus scale="   20.709">  1  9  2 -1</clus>
<clus scale="   71.379">  5  6 -1 -1</clus>
<clus scale="   72.960">  2  5  1 -1</clus>
<clus scale="   91.109">  7  8 -1 -1</clus>
<clus scale="   20.709">  1  5  2 -1</clus>
</clustering>
</event>
<event>
 9    1  0.2674825E-005  0.1737060E+03  0.7546771E-02  0.1175384E+00
          3   -1    0    0  502    0  0.00000000000E+00  0.00000000000E+00  0.67372914458E+02  0.67372914458E+02  0.00000000000E+00 0. -1.
         -4   -1    0    0    0  501 -0.00000000000E+00 -0.00000000000E+00 -0.67922750134E+03  0.67922750134E+03  0.00000000000E+00 0.  1.
         23    2    1    2    0    0 -0.13607635968E+03 -0.77945856854E+02 -0.46471818057E+03  0.49878996011E+03  0.90752987219E+02 0.  0.
        -24    2    1    2    0    0  0.10902950995E+03  0.74605891346E+02 -0.15552942682E+03  0.21929501700E+03  0.80295882909E+02 0.  0.
         11    1    4    4    0    0 -0.67720432442E+01  0.28341074714E+02 -0.21402448873E+02  0.36154417482E+02  0.00000000000E+00 0. -1.
        -12    1    4    4    0    0  0.11580155319E+03  0.46264816632E+02 -0.13412697795E+03  0.18314059952E+03  0.00000000000E+00 0.  1.
        -11    1    3    3    0    0 -0.69152320785E+02  0.63218920269E+01 -0.13273503882E+03  0.14980187021E+03  0.00000000000E+00 0. -1.
         11    1    3    3    0    0 -0.66924038895E+02 -0.84267748881E+02 -0.33198314175E+03  0.34898808989E+03  0.00000000000E+00 0.  1.
         21    1    1    2  502  501  0.27046849732E+02  0.33399655072E+01  0.83930205116E+01  0.28515438683E+02  0.00000000000E+00 0. -1.
<scales pt_clust_5="13000.00000" pt_clust_6="13000.00000" pt_clust_7="13000.00000" pt_clust_8="13000.00000" pt_clust_9="27.25229"></scales>
<clustering>
<clus scale="   27.252">  1  9  2 -1</clus>
<clus scale="   80.296">  5  6 -1 -1</clus>
<clus scale="   90.753">  7  8 -1 -1</clus>
<clus scale="  168.479">  1  5  2 -1</clus>
<clus scale="   27.252">  1  5  2 -1</clus>
</clustering>
</event>
<event>
 9    1  0.2674825E-005  0.1504797E+03  0.7546771E-02  0.1202423E+00
          1   -1    0    0  502    0  0.00000000000E+00  0.00000000000E+00  0.43663479344E+03  0.43663479344E+03  0.00000000000E+00 0. -1.
         -2   -1    0    0    0  501 -0.00000000000E+00 -0.00000000000E+00 -0.10481093070E+03  0.10481093070E+03  0.00000000000E+00 0.  1.
        -24    2    1    2    0    0  0.40743895864E+02  0.11345572982E+03 -0.26225790002E+02  0.14673283924E+03  0.79438443911E+02 0.  0.
         23    2    1    2    0    0 -0.48256087602E+02 -0.93735849035E+02  0.33568955869E+03  0.36396747013E+03  0.93111654032E+02 0.  0.
         13    1    3    3    0    0  0.22938449446E+02  0.41073450083E+02  0.27825843416E+02  0.54657829508E+02  0.00000000000E+00 0. -1.
        -14    1    3    3    0    0  0.17805446418E+02  0.72382279737E+02 -0.54051633417E+02  0.92075009732E+02  0.00000000000E+00 0.  1.
        -13    1    4    4    0    0 -0.68745333153E+02 -0.55039298799E+02  0.27753716447E+03  0.29117369885E+03  0.00000000000E+00 0. -1.
         13    1    4    4    0    0  0.20489245551E+02 -0.38696550236E+02  0.58152394220E+02  0.72793771278E+02  0.00000000000E+00 0.  1.
         21    1    1    2  502  501  0.75121917379E+01 -0.19719880785E+02  0.22360094061E+02  0.30745414768E+02  0.00000000000E+00 0. -1.
<scales pt_clust_5="13000.00000" pt_clust_6="13000.00000" pt_clust_7="13000.00000" pt_clust_8="13000.00000" pt_clust_9="21.10229"></scales>
<clustering>
<clus scale="   21.102">  1  9  2 -1</clus>
<clus scale="   79.438">  5  6 -1 -1</clus>
<clus scale="   93.112">  7  8 -1 -1</clus>
<clus scale="  142.425">  2  5  1 -1</clus>
<clus scale="   21.102">  1  5  2 -1</clus>
</clustering>
</event>
<event>
 9    1  0.2674825E-005  0.9611172E+02  0.7546771E-02  0.1294906E+00
         -2   -1    0    0    0  501 -0.00000000000E+00  0.00000000000E+00  0.88819089167E+02  0.88819089167E+02  0.00000000000E+00 0.  1.
          1   -1    0    0  502    0  0.00000000000E+00 -0.00000000000E+00 -0.33182536987E+03  0.33182536987E+03  0.00000000000E+00 0. -1.
         23    2    1    2    0    0  0.23512200420E+02 -0.28717288935E+02  0.29606121722E+02  0.10312685124E+03  0.91548450290E+02 0.  0.
        -24    2    1    2    0    0  0.27072486367E+02  0.18327393664E+02 -0.24288122389E+03  0.25792982853E+03  0.80421978659E+02 0.  0.
         11    1    4    4    0    0  0.17374765452E+01  0.35532837761E+02 -0.21001494687E+03  0.21300675879E+03  0.00000000000E+00 0. -1.
        -12    1    4    4    0    0  0.25335009822E+02 -0.17205444097E+02 -0.32866277018E+02  0.44923069733E+02  0.00000000000E+00 0.  1.
        -11    1    3    3    0    0 -0.46102388069E+01 -0.44704091430E+02  0.48129878832E+02  0.65849793689E+02  0.00000000000E+00 0.  1.
         11    1    3    3    0    0  0.28122439227E+02  0.15986802495E+02 -0.18523757110E+02  0.37277057550E+02  0.00000000000E+00 0. -1.
         21    1    1    2  502  501 -0.50584686787E+02  0.10389895271E+02 -0.29731178541E+02  0.59587779272E+02  0.00000000000E+00 0.  1.
<scales pt_clust_5="13000.00000" pt_clust_6="13000.00000" pt_clust_7="13000.00000" pt_clust_8="13000.00000" pt_clust_9="51.64069"></scales>
<clustering>
<clus scale="   51.641">  1  9  2 -1</clus>
<clus scale="   80.422">  5  6 -1 -1</clus>
<clus scale="   85.581">  2  5  1 -1</clus>
<clus scale="   91.548">  7  8 -1 -1</clus>
<clus scale="   85.581">  2  5  1 -1</clus>
</clustering>
</event>
<event>
 9    1  0.3590578E-005  0.1728444E+03  0.7546771E-02  0.1176494E+00
          1   -1    0    0  502    0  0.00000000000E+00  0.00000000000E+00  0.56460071310E+03  0.56460071310E+03  0.00000000000E+00 0. -1.
         -2   -1    0    0    0  501 -0.00000000000E+00 -0.00000000000E+00 -0.26031413482E+03  0.26031413482E+03  0.00000000000E+00 0.  1.
         23    2    1    2    0    0  0.87860723064E+02 -0.12128937337E+03 -0.20774484165E+03  0.27157762693E+03  0.90365200514E+02 0.  0.
        -24    2    1    2    0    0 -0.84424101227E+02  0.75200233802E+02  0.47389454714E+03  0.49341693876E+03  0.78113568733E+02 0.  0.
         13    1    4    4    0    0 -0.99215490218E+02  0.59723564368E+02  0.38961631408E+03  0.40646216286E+03  0.00000000000E+00 0. -1.
        -14    1    4    4    0    0  0.14791388991E+02  0.15476669434E+02  0.84278233057E+02  0.86954775902E+02  0.00000000000E+00 0.  1.
        -13    1    3    3    0    0  0.37141536918E+02 -0.96385393574E+02 -0.18247139856E+03  0.20967939610E+03  0.00000000000E+00 0.  1.
         13    1    3    3    0    0  0.50719186146E+02 -0.24903979798E+02 -0.25273443093E+02  0.61898230822E+02  0.00000000000E+00 0. -1.
         21    1    1    2  502  501 -0.34366218366E+01  0.46089139571E+02  0.38136872796E+02  0.59920282231E+02  0.00000000000E+00 0. -1.
<scales pt_clust_5="13000.00000" pt_clust_6="13000.00000" pt_clust_7="13000.00000" pt_clust_8="13000.00000" pt_clust_9="46.21709"></scales>
<clustering>
<clus scale="   46.217">  1  9  2 -1</clus>
<clus scale="   78.114">  5  6 -1 -1</clus>
<clus scale="   90.365">  7  8 -1 -1</clus>
<clus scale="  166.766">  1  5  2 -1</clus>
<clus scale="   46.217">  1  5  2 -1</clus>
</clustering>
</event>
<event>
 9    1  0.2674825E-005  0.9764020E+02  0.7546771E-02  0.1299244E+00
          1   -1    0    0  502    0  0.00000000000E+00  0.00000000000E+00  0.10283222032E+03  0.10283222032E+03  0.00000000000E+00 0. -1.
         -2   -1    0    0    0  501 -0.00000000000E+00 -0.00000000000E+00 -0.22089813074E+03  0.22089813074E+03  0.00000000000E+00 0.  1.
         23    2    1    2    0    0  0.28328823696E+02  0.29395756227E+02 -0.17412688012E+03  0.20025119759E+03  0.90076295552E+02 0.  0.
        -24    2    1    2    0    0  0.26520191389E+01 -0.28351893022E+02  0.58863874597E+02  0.92354267144E+02  0.65218800078E+02 0.  0.
         11    1    4    4    0    0 -0.18739794364E+02 -0.41853150282E+02  0.37151785841E+02  0.59017974148E+02  0.00000000000E+00 0. -1.
        -12    1    4    4    0    0  0.21391813503E+02  0.13501257260E+02  0.21712088756E+02  0.33336292996E+02  0.00000000000E+00 0.  1.
        -11    1    3    3    0    0 -0.31026632323E+02  0.21777118125E+02 -0.53149810830E+02  0.65282441578E+02  0.00000000000E+00 0.  1.
         11    1    3    3    0    0  0.59355456019E+02  0.76186381023E+01 -0.12097706929E+03  0.13496875602E+03  0.00000000000E+00 0. -1.
         21    1    1    2  502  501 -0.30980842835E+02 -0.10438632046E+01 -0.28029048915E+01  0.31124886328E+02  0.00000000000E+00 0.  1.
<scales pt_clust_5="13000.00000" pt_clust_6="13000.00000" pt_clust_7="13000.00000" pt_clust_8="13000.00000" pt_clust_9="30.99842"></scales>
<clustering>
<clus scale="   30.998">  1  9  2 -1</clus>
<clus scale="   65.219">  5  6 -1 -1</clus>
<clus scale="   75.322">  1  5  2 -1</clus>
<clus scale="   90.076">  7  8 -1 -1</clus>
<clus scale="   30.998">  1  5  2 -1</clus>
</clustering>
</event>
<event>
 9    1  0.2674825E-005  0.1286776E+03  0.7546771E-02  0.1245388E+00
         -2   -1    0    0    0  501 -0.00000000000E+00  0.00000000000E+00  0.91064937808E+02  0.91064937808E+02  0.00000000000E+00 0.  1.
          1   -1    0    0  502    0  0.00000000000E+00 -0.00000000000E+00 -0.46123875003E+03  0.46123875003E+03  0.00000000000E+00 0. -1.
         23    2    1    2    0    0  0.19254692810E+02  0.12441918854E+02  0.23231670174E+02  0.95789184796E+02  0.90057275580E+02 0.  0.
        -24    2    1    2    0    0 -0.33980710388E+01  0.93535905326E+02 -0.18244059198E+03  0.21989473071E+03  0.79426761976E+02 0.  0.
         11    1    4    4    0    0  0.33539345201E+02  0.26707194392E+02 -0.92220645895E+02  0.10169960392E+03  0.00000000000E+00 0. -1.
        -12    1    4    4    0    0 -0.36937416240E+02  0.66828710934E+02 -0.90219946086E+02  0.11819512678E+03  0.00000000000E+00 0.  1.
        -13    1    3    3    0    0  0.36311222122E+01 -0.22078229858E+02  0.46303771372E+02  0.51426379665E+02  0.00000000000E+00 0. -1.
         13    1    3    3    0    0  0.15623570598E+02  0.34520148713E+02 -0.23072101198E+02  0.44362805131E+02  0.00000000000E+00 0.  1.
         21    1    1    2  502  501 -0.15856621772E+02 -0.10597782418E+03 -0.21096489041E+03  0.23661977233E+03  0.00000000000E+00 0. -1.
<scales pt_clust_5="13000.00000" pt_clust_6="13000.00000" pt_clust_7="13000.00000" pt_clust_8="13000.00000" pt_clust_9="101.23888"></scales>
<clustering>
<clus scale="   79.427">  5  6 -1 -1</clus>
<clus scale="   90.057">  7  8 -1 -1</clus>
<clus scale="   92.929">  1  7  2 -1</clus>
<clus scale="  101.239">  2  9  1 -1</clus>
<clus scale="  101.239">  2  5  1 -1</clus>
</clustering>
</event>
<event>
 9    1  0.2674825E-005  0.1728257E+03  0.7546771E-02  0.1177027E+00
          1   -1    0    0  502    0  0.00000000000E+00  0.00000000000E+00  0.39862800275E+03  0.39862800275E+03  0.00000000000E+00 0. -1.
         -2   -1    0    0    0  501 -0.00000000000E+00 -0.00000000000E+00 -0.18965630017E+03  0.18965630017E+03  0.00000000000E+00 0.  1.
        -24    2    1    2    0    0  0.12895580254E+03  0.74283390098E+02 -0.10893888128E+03  0.20066546762E+03  0.79065346315E+02 0.  0.
         23    2    1    2    0    0 -0.79255756690E+02 -0.10496381560E+03  0.21400554113E+03  0.26842302593E+03  0.94623842986E+02 0.  0.
         11    1    3    3    0    0  0.34857602068E+02  0.43193644765E+02 -0.29790189737E+01  0.55584331642E+02  0.00000000000E+00 0. -1.
        -12    1    3    3    0    0  0.94098200472E+02  0.31089745333E+02 -0.10595986231E+03  0.14508113598E+03  0.00000000000E+00 0.  1.
        -13    1    4    4    0    0 -0.55083780343E+02 -0.12056617876E+03  0.18483353251E+03  0.22745078821E+03  0.00000000000E+00 0. -1.
         13    1    4    4    0    0 -0.24171976347E+02  0.15602363162E+02  0.29172008620E+02  0.40972237719E+02  0.00000000000E+00 0.  1.
         21    1    1    2  502  501 -0.49700045850E+02  0.30680425500E+02  0.10390504273E+03  0.11919580937E+03  0.00000000000E+00 0.  1.
<scales pt_clust_5="13000.00000" pt_clust_6="13000.00000" pt_clust_7="13000.00000" pt_clust_8="13000.00000" pt_clust_9="58.40705"></scales>
<clustering>
<clus scale="   58.407">  1  9  2 -1</clus>
<clus scale="   79.065">  5  6 -1 -1</clus>
<clus scale="   94.624">  7  8 -1 -1</clus>
<clus scale="  164.822">  2  5  1 -1</clus>
<clus scale="   58.407">  1  5  2 -1</clus>
</clustering>
</event>
<event>
 9    1  0.2674825E-005  0.1183622E+03  0.7546771E-02  0.1249822E+00
         -2   -1    0    0    0  501 -0.00000000000E+00  0.00000000000E+00  0.36521275202E+03  0.36521275202E+03  0.00000000000E+00 0.  1.
          1   -1    0    0  502    0  0.00000000000E+00 -0.00000000000E+00 -0.15074636954E+03  0.15074636954E+03  0.00000000000E+00 0. -1.
         23    2    1    2    0    0 -0.12974979861E+03 -0.14863456375E+02  0.25607367348E+03  0.30210404200E+03  0.92936501810E+02 0.  0.
        -24    2    1    2    0    0  0.68086224067E+02 -0.48107969285E+01 -0.85096276849E+02  0.13587582233E+03  0.81006080539E+02 0.  0.
         13    1    4    4    0    0  0.62796149844E+02  0.22538948268E+01 -0.10026404235E+03  0.11832715101E+03  0.00000000000E+00 0. -1.
        -14    1    4    4    0    0  0.52900742230E+01 -0.70646917554E+01  0.15167765499E+02  0.17548671320E+02  0.00000000000E+00 0.  1.
        -11    1    3    3    0    0 -0.49403758793E+02 -0.13078562244E+00  0.19209321504E+03  0.19834452791E+03  0.00000000000E+00 0.  1.
         11    1    3    3    0    0 -0.80346039819E+02 -0.14732670752E+02  0.63980458438E+02  0.10375951409E+03  0.00000000000E+00 0. -1.
         21    1    1    2  502  501  0.61663574545E+02  0.19674253303E+02  0.43488985850E+02  0.77979257235E+02  0.00000000000E+00 0. -1.
<scales pt_clust_5="13000.00000" pt_clust_6="13000.00000" pt_clust_7="13000.00000" pt_clust_8="13000.00000" pt_clust_9="64.72614"></scales>
<clustering>
<clus scale="   64.726">  1  9  2 -1</clus>
<clus scale="   81.006">  5  6 -1 -1</clus>
<clus scale="   92.937">  7  8 -1 -1</clus>
<clus scale="  109.245">  2  5  1 -1</clus>
<clus scale="  109.245">  2  5  1 -1</clus>
</clustering>
</event>
<event>
 9    1  0.2674825E-005  0.1044048E+03  0.7546771E-02  0.1274301E+00
         -2   -1    0    0    0  501 -0.00000000000E+00  0.00000000000E+00  0.19133386505E+03  0.19133386505E+03  0.00000000000E+00 0.  1.
          1   -1    0    0  502    0  0.00000000000E+00 -0.00000000000E+00 -0.28365978655E+03  0.28365978655E+03  0.00000000000E+00 0. -1.
         23    2    1    2    0    0 -0.21740613665E+02  0.50126985300E+02  0.15942559401E+03  0.19020726088E+03  0.88186808116E+02 0.  0.
        -24    2    1    2    0    0  0.17329268933E+02 -0.71263846368E+02 -0.18835255739E+03  0.21781135994E+03  0.81155796370E+02 0.  0.
         13    1    4    4    0    0  0.22108727943E+02 -0.87308466008E+02 -0.13836838738E+03  0.16509807604E+03  0.00000000000E+00 0. -1.
        -14    1    4    4    0    0 -0.47794590101E+01  0.16044619640E+02 -0.49984170007E+02  0.52713283896E+02  0.00000000000E+00 0.  1.
        -13    1    3    3    0    0  0.18804336771E+02 -0.95883138973E+01  0.80641037771E+02  0.83357757993E+02  0.00000000000E+00 0.  1.
         13    1    3    3    0    0 -0.40544950436E+02  0.59715299197E+02  0.78784556241E+02  0.10684950288E+03  0.00000000000E+00 0. -1.
         21    1    1    2  502  501  0.44113447319E+01  0.21136861068E+02 -0.63398958121E+02  0.66975030787E+02  0.00000000000E+00 0. -1.
<scales pt_clust_5="13000.00000" pt_clust_6="13000.00000" pt_clust_7="13000.00000" pt_clust_8="13000.00000" pt_clust_9="21.59229"></scales>
<clustering>
<clus scale="   21.592">  2  9  1 -1</clus>
<clus scale="   81.156">  5  6 -1 -1</clus>
<clus scale="   88.187">  7  8 -1 -1</clus>
<clus scale="   98.538">  2  5  1 -1</clus>
<clus scale="   21.592">  2  5  1 -1</clus>
</clustering>
</event>
<event>
 9    1  0.2674825E-005  0.9048995E+02  0.7546771E-02  0.1307472E+00
         -4   -1    0    0    0  501 -0.00000000000E+00  0.00000000000E+00  0.51747272997E+02  0.51747272997E+02  0.00000000000E+00 0.  1.
          3   -1    0    0  502    0  0.00000000000E+00 -0.00000000000E+00 -0.35325894593E+03  0.35325894593E+03  0.00000000000E+00 0. -1.
         23    2    1    2    0    0  0.23184517940E+02  0.50197194692E+01 -0.44237659315E+02  0.10344736818E+03  0.90452573354E+02 0.  0.
        -24    2    1    2    0    0  0.35457180690E+01  0.39088408861E+01 -0.26072450623E+03  0.27316641150E+03  0.81331230590E+02 0.  0.
         11    1    4    4    0    0  0.17121313768E+02  0.38843651623E+02 -0.16481151079E+03  0.17019048959E+03  0.00000000000E+00 0. -1.
        -12    1    4    4    0    0 -0.13575595699E+02 -0.34934810737E+02 -0.95912995434E+02  0.10297592191E+03  0.00000000000E+00 0.  1.
        -11    1    3    3    0    0  0.48711411290E+02 -0.19327059853E+02 -0.43591368557E+02  0.68165564951E+02  0.00000000000E+00 0. -1.
         11    1    3    3    0    0 -0.25526893350E+02  0.24346779322E+02 -0.64629075776E+00  0.35281803231E+02  0.00000000000E+00 0.  1.
         21    1    1    2  502  501 -0.26730236009E+02 -0.89285603553E+01  0.34504926107E+01  0.28392439246E+02  0.00000000000E+00 0.  1.
<scales pt_clust_5="13000.00000" pt_clust_6="13000.00000" pt_clust_7="13000.00000" pt_clust_8="13000.00000" pt_clust_9="28.18199"></scales>
<clustering>
<clus scale="   28.182">  1  9  2 -1</clus>
<clus scale="   81.331">  5  6 -1 -1</clus>
<clus scale="   81.373">  2  5  1 -1</clus>
<clus scale="   90.453">  7  8 -1 -1</clus>
<clus scale="   81.373">  2  5  1 -1</clus>
</clustering>
</event>
<event>
 9    1  0.2674825E-005  0.1016182E+03  0.7546771E-02  0.1284527E+00
          1   -1    0    0  502    0  0.00000000000E+00  0.00000000000E+00  0.13744862828E+03  0.13744862828E+03  0.00000000000E+00 0. -1.
         -2   -1    0    0    0  501 -0.00000000000E+00 -0.00000000000E+00 -0.18895752175E+03  0.18895752175E+03  0.00000000000E+00 0.  1.
         23    2    1    2    0    0 -0.48743757641E+02  0.73671061976E+01 -0.14966417560E+03  0.18155720759E+03  0.90185508838E+02 0.  0.
        -24    2    1    2    0    0  0.34081769987E+02  0.11405117225E+02  0.74719087287E+02  0.11143299591E+03  0.74449491791E+02 0.  0.
         13    1    4    4    0    0  0.42001682818E+02 -0.73567648244E+01  0.79769328782E+02  0.90451142406E+02  0.00000000000E+00 0. -1.
        -14    1    4    4    0    0 -0.79199128316E+01  0.18761882049E+02 -0.50502414947E+01  0.20981853503E+02  0.00000000000E+00 0.  1.
        -13    1    3    3    0    0  0.10844832314E+01 -0.34510452239E+02 -0.31928579213E+02  0.47027455684E+02  0.00000000000E+00 0. -1.
         13    1    3    3    0    0 -0.49828240873E+02  0.41877558436E+02 -0.11773559639E+03  0.13452975190E+03  0.00000000000E+00 0.  1.
         21    1    1    2  502  501  0.14661987655E+02 -0.18772223422E+02  0.23436194841E+02  0.33415946535E+02  0.00000000000E+00 0.  1.
<scales pt_clust_5="13000.00000" pt_clust_6="13000.00000" pt_clust_7="13000.00000" pt_clust_8="13000.00000" pt_clust_9="23.81954"></scales>
<clustering>
<clus scale="   23.820">  1  9  2 -1</clus>
<clus scale="   74.449">  5  6 -1 -1</clus>
<clus scale="   87.952">  1  5  2 -1</clus>
<clus scale="   90.186">  7  8 -1 -1</clus>
<clus scale="   23.820">  1  5  2 -1</clus>
</clustering>
</event>
<event>
 9    1  0.2674825E-005  0.1028751E+03  0.7546771E-02  0.1280787E+00
          1   -1    0    0  502    0  0.00000000000E+00  0.00000000000E+00  0.18383504562E+03  0.18383504562E+03  0.00000000000E+00 0. -1.
         -2   -1    0    0    0  501 -0.00000000000E+00 -0.00000000000E+00 -0.25051818629E+03  0.25051818629E+03  0.00000000000E+00 0.  1.
        -24    2    1    2    0    0  0.22843411400E+02 -0.40628497488E+02 -0.21622433795E+03  0.23443408900E+03  0.77678063239E+02 0.  0.
         23    2    1    2    0    0 -0.44710781026E+02  0.42868129008E+02  0.11887803231E+03  0.16219080489E+03  0.91307941604E+02 0.  0.
         11    1    3    3    0    0 -0.29797587228E+01 -0.54989674107E+02 -0.96408144945E+02  0.11102825601E+03  0.00000000000E+00 0. -1.
        -12    1    3    3    0    0  0.25823170122E+02  0.14361176619E+02 -0.11981619301E+03  0.12340583299E+03  0.00000000000E+00 0.  1.
        -11    1    4    4    0    0  0.16508376338E+02  0.22583100679E+02  0.12001656956E+01  0.27999345051E+02  0.00000000000E+00 0.  1.
         11    1    4    4    0    0 -0.61219157364E+02  0.20285028329E+02  0.11767786661E+03  0.13419145984E+03  0.00000000000E+00 0. -1.
         21    1    1    2  502  501  0.21867369627E+02 -0.22396315199E+01  0.30663164979E+02  0.37728338027E+02  0.00000000000E+00 0. -1.
<scales pt_clust_5="13000.00000" pt_clust_6="13000.00000" pt_clust_7="13000.00000" pt_clust_8="13000.00000" pt_clust_9="21.98176"></scales>
<clustering>
<clus scale="   21.982">  1  9  2 -1</clus>
<clus scale="   77.678">  5  6 -1 -1</clus>
<clus scale="   90.995">  2  5  1 -1</clus>
<clus scale="   91.308">  7  8 -1 -1</clus>
<clus scale="   21.982">  1  5  2 -1</clus>
</clustering>
</event>
<event>
 9    1  0.2674825E-005  0.1402302E+03  0.7546771E-02  0.1215856E+00
         -2   -1    0    0    0  501 -0.00000000000E+00  0.00000000000E+00  0.10270170957E+04  0.10270170957E+04  0.00000000000E+00 0.  1.
          1   -1    0    0  502    0  0.00000000000E+00 -0.00000000000E+00 -0.33440986330E+02  0.33440986330E+02  0.00000000000E+00 0. -1.
        -24    2    1    2    0    0  0.91789397758E+01 -0.10477769066E+03  0.74803275073E+03  0.75947322599E+03  0.78638205916E+02 0.  0.
         23    2    1    2    0    0 -0.32378164247E+02  0.10631249062E+03  0.23453075790E+03  0.27525866312E+03  0.91716759887E+02 0.  0.
         11    1    3    3    0    0 -0.32820138513E+02 -0.48529666013E+02  0.26751643394E+03  0.27385640837E+03  0.00000000000E+00 0. -1.
        -12    1    3    3    0    0  0.41999078288E+02 -0.56248024644E+02  0.48051631679E+03  0.48561681762E+03  0.00000000000E+00 0.  1.
        -13    1    4    4    0    0 -0.34550008421E+02  0.54694535663E+01  0.25902475682E+02  0.43526500556E+02  0.00000000000E+00 0. -1.
         13    1    4    4    0    0  0.21718441739E+01  0.10084303705E+03  0.20862828222E+03  0.23173216257E+03  0.00000000000E+00 0.  1.
         21    1    1    2  502  501  0.23199224471E+02 -0.15347999579E+01  0.11012600738E+02  0.25726192916E+02  0.00000000000E+00 0. -1.
<scales pt_clust_5="13000.00000" pt_clust_6="13000.00000" pt_clust_7="13000.00000" pt_clust_8="13000.00000" pt_clust_9="23.24994"></scales>
<clustering>
<clus scale="   23.250">  2  9  1 -1</clus>
<clus scale="   78.638">  5  6 -1 -1</clus>
<clus scale="   91.717">  7  8 -1 -1</clus>
<clus scale="  132.047">  1  5  2 -1</clus>
<clus scale="   23.250">  2  5  1 -1</clus>
</clustering>
</event>
<event>
 9    1  0.2674825E-005  0.1035927E+03  0.7546771E-02  0.1277615E+00
          1   -1    0    0  502    0  0.00000000000E+00  0.00000000000E+00  0.17821270083E+03  0.17821270083E+03  0.00000000000E+00 0. -1.
         -2   -1    0    0    0  501 -0.00000000000E+00 -0.00000000000E+00 -0.13693122660E+03  0.13693122660E+03  0.00000000000E+00 0.  1.
        -24    2    1    2    0    0  0.56125431841E+02 -0.18184079301E+02 -0.46797465394E+02  0.10993401843E+03  0.80092201873E+02 0.  0.
         23    2    1    2    0    0 -0.40984929167E+02 -0.31720885750E+02  0.16570277819E+01  0.10427187253E+03  0.90464902859E+02 0.  0.
         13    1    3    3    0    0  0.45795235052E+02  0.20130990590E+02 -0.19672326961E+01  0.50063263378E+02  0.00000000000E+00 0. -1.
        -14    1    3    3    0    0  0.10330196790E+02 -0.38315069890E+02 -0.44830232698E+02  0.59870755049E+02  0.00000000000E+00 0.  1.
        -13    1    4    4    0    0  0.16310112026E+02 -0.20429657965E+02 -0.28394718861E+02  0.38595993809E+02  0.00000000000E+00 0.  1.
         13    1    4    4    0    0 -0.57295041193E+02 -0.11291227784E+02  0.30051746643E+02  0.65675878726E+02  0.00000000000E+00 0. -1.
         21    1    1    2  502  501 -0.15140502675E+02  0.49904965050E+02  0.86421911850E+02  0.10093803647E+03  0.00000000000E+00 0. -1.
<scales pt_clust_5="13000.00000" pt_clust_6="13000.00000" pt_clust_7="13000.00000" pt_clust_8="13000.00000" pt_clust_9="52.15113"></scales>
<clustering>
<clus scale="   52.151">  1  9  2 -1</clus>
<clus scale="   80.092">  5  6 -1 -1</clus>
<clus scale="   90.465">  7  8 -1 -1</clus>
<clus scale="   94.670">  2  5  1 -1</clus>
<clus scale="   52.151">  1  5  2 -1</clus>
</clustering>
</event>
<event>
 9    1  0.2674825E-005  0.9323911E+02  0.7546771E-02  0.1301900E+00
          1   -1    0    0  502    0  0.00000000000E+00  0.00000000000E+00  0.40361967770E+03  0.40361967770E+03  0.00000000000E+00 0. -1.
         -2   -1    0    0    0  501 -0.00000000000E+00 -0.00000000000E+00 -0.97657365641E+02  0.97657365641E+02  0.00000000000E+00 0.  1.
        -24    2    1    2    0    0 -0.21346713367E+02 -0.17824970745E+02 -0.38505234200E+02  0.93904090781E+02  0.81005638390E+02 0.  0.
         23    2    1    2    0    0 -0.57377682713E+02 -0.50209712389E+01  0.93254234258E+02  0.14312383576E+03  0.92036251173E+02 0.  0.
         13    1    3    3    0    0  0.28585897216E+02 -0.21123185215E+02 -0.14241740952E+02  0.38290594910E+02  0.00000000000E+00 0. -1.
        -14    1    3    3    0    0 -0.49932610583E+02  0.32982144704E+01 -0.24263493248E+02  0.55613495870E+02  0.00000000000E+00 0.  1.
        -13    1    4    4    0    0 -0.18214099864E+02 -0.47076002304E+02  0.35963452340E+02  0.61978006833E+02  0.00000000000E+00 0. -1.
         13    1    4    4    0    0 -0.39163582849E+02  0.42055031065E+02  0.57290781918E+02  0.81145828927E+02  0.00000000000E+00 0.  1.
         21    1    1    2  502  501  0.78724396080E+02  0.22845941983E+02  0.25121331200E+03  0.26424911680E+03  0.00000000000E+00 0. -1.
<scales pt_clust_5="13000.00000" pt_clust_6="13000.00000" pt_clust_7="13000.00000" pt_clust_8="13000.00000" pt_clust_9="81.97236"></scales>
<clustering>
<clus scale="   81.006">  5  6 -1 -1</clus>
<clus scale="   81.972">  1  9  2 -1</clus>
<clus scale="   82.370">  2  5  1 -1</clus>
<clus scale="   92.036">  7  8 -1 -1</clus>
<clus scale="   81.972">  1  5  2 -1</clus>
</clustering>
</event>
<event>
 9    1  0.2674825E-005  0.9799607E+02  0.7546771E-02  0.1290515E+00
         -2   -1    0    0    0  501 -0.00000000000E+00  0.00000000000E+00  0.97203119447E+02  0.97203119447E+02  0.00000000000E+00 0.  1.
          1   -1    0    0  502    0  0.00000000000E+00 -0.00000000000E+00 -0.19199221846E+03  0.19199221846E+03  0.00000000000E+00 0. -1.
        -24    2    1    2    0    0 -0.38589551061E+02  0.11382426568E+02  0.42240665435E+02  0.99525382065E+02  0.80636931819E+02 0.  0.
         23    2    1    2    0    0  0.16701899576E+02  0.25476912795E+01 -0.66744984518E+02  0.11474954633E+03  0.91799353186E+02 0.  0.
         11    1    3    3    0    0 -0.45363561459E+01  0.37347698902E+02 -0.23581508215E+01  0.37696021218E+02  0.00000000000E+00 0. -1.
        -12    1    3    3    0    0 -0.34053194915E+02 -0.25965272334E+02  0.44598816257E+02  0.61829360848E+02  0.00000000000E+00 0.  1.
        -11    1    4    4    0    0  0.24438299968E+02 -0.25587954378E+02 -0.76250719191E+02  0.84060371708E+02  0.00000000000E+00 0. -1.
         11    1    4    4    0    0 -0.77364003924E+01  0.28135645657E+02  0.95057346730E+01  0.30689174627E+02  0.00000000000E+00 0.  1.
         21    1    1    2  502  501  0.21887651486E+02 -0.13930117847E+02 -0.70284779928E+02  0.74920409505E+02  0.00000000000E+00 0. -1.
<scales pt_clust_5="13000.00000" pt_clust_6="13000.00000" pt_clust_7="13000.00000" pt_clust_8="13000.00000" pt_clust_9="25.94451"></scales>
<clustering>
<clus scale="   25.945">  2  9  1 -1</clus>
<clus scale="   80.637">  5  6 -1 -1</clus>
<clus scale="   87.627">  1  5  2 -1</clus>
<clus scale="   91.799">  7  8 -1 -1</clus>
<clus scale="   25.945">  2  5  1 -1</clus>
</clustering>
</event>
<event>
 9    1  0.2674825E-005  0.1164172E+03  0.7546771E-02  0.1253219E+00
          1   -1    0    0  502    0  0.00000000000E+00  0.00000000000E+00  0.33102689901E+03  0.33102689901E+03  0.00000000000E+00 0. -1.
         -2   -1    0    0    0  501 -0.00000000000E+00 -0.00000000000E+00 -0.68733222050E+02  0.68733222050E+02  0.00000000000E+00 0.  1.
        -24    2    1    2    0    0  0.62375483051E+02 -0.49929314940E+02  0.41822922937E+02  0.11997298722E+03  0.79124733189E+02 0.  0.
         23    2    1    2    0    0 -0.73986892458E+02  0.25498195725E+01  0.18639021965E+03  0.22027978781E+03  0.91111520121E+02 0.  0.
         11    1    3    3    0    0  0.29450487650E+02 -0.62412127580E+02  0.48214446756E+02  0.84185733755E+02  0.00000000000E+00 0. -1.
        -12    1    3    3    0    0  0.32924995401E+02  0.12482812640E+02 -0.63915238183E+01  0.35787253461E+02  0.00000000000E+00 0.  1.
        -11    1    4    4    0    0 -0.64769367278E+02 -0.38307900018E+02  0.12666937258E+03  0.14733531855E+03  0.00000000000E+00 0.  1.
         11    1    4    4    0    0 -0.92175251799E+01  0.40857719591E+02  0.59720847069E+02  0.72944469257E+02  0.00000000000E+00 0. -1.
         21    1    1    2  502  501  0.11611409407E+02  0.47379495367E+02  0.34080534374E+02  0.59507346042E+02  0.00000000000E+00 0.  1.
<scales pt_clust_5="13000.00000" pt_clust_6="13000.00000" pt_clust_7="13000.00000" pt_clust_8="13000.00000" pt_clust_9="48.78157"></scales>
<clustering>
<clus scale="   48.782">  2  9  1 -1</clus>
<clus scale="   79.125">  5  6 -1 -1</clus>
<clus scale="   91.112">  7  8 -1 -1</clus>
<clus scale="  107.296">  2  5  1 -1</clus>
<clus scale="  116.417">  1  5  2 -1</clus>
</clustering>
</event>
<event>
 9    1  0.2674825E-005  0.9868550E+02  0.7546771E-02  0.1288196E+00
          1   -1    0    0  502    0  0.00000000000E+00  0.00000000000E+00  0.31879034675E+03  0.31879034675E+03  0.00000000000E+00 0. -1.
         -2   -1    0    0    0  501 -0.00000000000E+00 -0.00000000000E+00 -0.52615865937E+02  0.52615865937E+02  0.00000000000E+00 0.  1.
         23    2    1    2    0    0 -0.39878035140E+02  0.24866931819E+02  0.31011561150E+02  0.10632602795E+03  0.90193599047E+02 0.  0.
        -24    2    1    2    0    0  0.42671549634E+01 -0.31262515078E+02  0.16548838563E+03  0.18657172045E+03  0.80168869481E+02 0.  0.
         13    1    4    4    0    0  0.18480142637E+01 -0.57695391250E+02  0.13013290956E+03  0.14236132719E+03  0.00000000000E+00 0. -1.
        -14    1    4    4    0    0  0.24191406997E+01  0.26432876172E+02  0.35355476066E+02  0.44210393261E+02  0.00000000000E+00 0.  1.
        -13    1    3    3    0    0 -0.12939882186E+02  0.57755608233E+02  0.17650561745E+02  0.61763202340E+02  0.00000000000E+00 0.  1.
         13    1    3    3    0    0 -0.26938152954E+02 -0.32888676415E+02  0.13360999405E+02  0.44562825606E+02  0.00000000000E+00 0. -1.
         21    1    1    2  502  501  0.35610880177E+02  0.63955832593E+01  0.69674534034E+02  0.78508464289E+02  0.00000000000E+00 0.  1.
<scales pt_clust_5="13000.00000" pt_clust_6="13000.00000" pt_clust_7="13000.00000" pt_clust_8="13000.00000" pt_clust_9="36.18063"></scales>
<clustering>
<clus scale="   36.181">  1  9  2 -1</clus>
<clus scale="   80.169">  5  6 -1 -1</clus>
<clus scale="   89.616">  1  5  2 -1</clus>
<clus scale="   90.194">  7  8 -1 -1</clus>
<clus scale="   36.181">  1  5  2 -1</clus>
</clustering>
</event>
<event>
 9    1  0.2674825E-005  0.1690758E+03  0.7546771E-02  0.1180579E+00
         -2   -1    0    0    0  501 -0.00000000000E+00  0.00000000000E+00  0.12805661812E+03  0.12805661812E+03  0.00000000000E+00 0.  1.
          1   -1    0    0  502    0  0.00000000000E+00 -0.00000000000E+00 -0.40022892948E+03  0.40022892948E+03  0.00000000000E+00 0. -1.
         23    2    1    2    0    0 -0.68101173757E+02 -0.15065958455E+03 -0.12583690793E+02  0.18935845341E+03  0.91445034432E+02 0.  0.
        -24    2    1    2    0    0  0.38648625064E+02  0.10511381163E+03 -0.97542396185E+02  0.16804453542E+03  0.78624533161E+02 0.  0.
         11    1    4    4    0    0  0.11905763543E+02  0.10401524630E+03 -0.94626338620E+02  0.14112073777E+03  0.00000000000E+00 0. -1.
        -12    1    4    4    0    0  0.26742861521E+02  0.10985653364E+01 -0.29160575654E+01  0.26923797649E+02  0.00000000000E+00 0.  1.
        -11    1    3    3    0    0 -0.72858917499E+02 -0.11830289984E+03 -0.42231852034E+02  0.14521545130E+03  0.00000000000E+00 0. -1.
         11    1    3    3    0    0  0.47577437421E+01 -0.32356684707E+02  0.29648161241E+02  0.44143002115E+02  0.00000000000E+00 0.  1.
         21    1    1    2  502  501  0.29452548693E+02  0.45545772914E+02 -0.16204622438E+03  0.17088255877E+03  0.00000000000E+00 0. -1.
<scales pt_clust_5="13000.00000" pt_clust_6="13000.00000" pt_clust_7="13000.00000" pt_clust_8="13000.00000" pt_clust_9="54.23901"></scales>
<clustering>
<clus scale="   54.239">  2  9  1 -1</clus>
<clus scale="   78.625">  5  6 -1 -1</clus>
<clus scale="   91.445">  7  8 -1 -1</clus>
<clus scale="  162.500">  2  5  1 -1</clus>
<clus scale="   54.239">  2  5  1 -1</clus>
</clustering>
</event>
<event>
 9    1  0.2674825E-005  0.9462064E+02  0.7546771E-02  0.1300742E+00
          1   -1    0    0  502    0  0.00000000000E+00  0.00000000000E+00  0.10824209819E+03  0.10824209819E+03  0.00000000000E+00 0. -1.
         -2   -1    0    0    0  501 -0.00000000000E+00 -0.00000000000E+00 -0.16805251155E+03  0.16805251155E+03  0.00000000000E+00 0.  1.
         23    2    1    2    0    0  0.25617891159E+02  0.13103953143E+02 -0.10968671087E+03  0.14461160226E+03  0.89740464846E+02 0.  0.
        -24    2    1    2    0    0 -0.16286512371E+02 -0.35465555562E+02  0.98143744980E+01  0.84863422175E+02  0.74715609882E+02 0.  0.
         11    1    4    4    0    0 -0.20567408121E+02 -0.11378121005E+02  0.39764048542E+02  0.46191551942E+02  0.00000000000E+00 0. -1.
        -12    1    4    4    0    0  0.42808957499E+01 -0.24087434557E+02 -0.29949674044E+02  0.38671870233E+02  0.00000000000E+00 0.  1.
        -13    1    3    3    0    0  0.35150031309E+02  0.47132527681E+02 -0.65156069755E+02  0.87762824092E+02  0.00000000000E+00 0.  1.
         13    1    3    3    0    0 -0.95321401497E+01 -0.34028574538E+02 -0.44530641115E+02  0.56848778167E+02  0.00000000000E+00 0. -1.
         21    1    1    2  502  501 -0.93313787883E+01  0.22361602419E+02  0.40061923017E+02  0.46819585311E+02  0.00000000000E+00 0. -1.
<scales pt_clust_5="13000.00000" pt_clust_6="13000.00000" pt_clust_7="13000.00000" pt_clust_8="13000.00000" pt_clust_9="24.23047"></scales>
<clustering>
<clus scale="   24.230">  1  9  2 -1</clus>
<clus scale="   74.716">  5  6 -1 -1</clus>
<clus scale="   80.512">  1  5  2 -1</clus>
<clus scale="   89.740">  7  8 -1 -1</clus>
<clus scale="   24.230">  1  5  2 -1</clus>
</clustering>
</event>
<event>
 9    1  0.2674825E-005  0.9143299E+02  0.7546771E-02  0.1304761E+00
         -2   -1    0    0    0  501 -0.00000000000E+00  0.00000000000E+00  0.36681140051E+02  0.36681140051E+02  0.00000000000E+00 0.  1.
          1   -1    0    0  502    0  0.00000000000E+00 -0.00000000000E+00 -0.50763237680E+03  0.50763237680E+03  0.00000000000E+00 0. -1.
        -24    2    1    2    0    0  0.11236789742E+02  0.17039322268E+02 -0.40776176507E+02  0.93647716064E+02  0.81796052511E+02 0.  0.
         23    2    1    2    0    0  0.20776609267E+02  0.84570749342E+01 -0.28642592841E+03  0.30120431113E+03  0.90449073915E+02 0.  0.
         11    1    3    3    0    0  0.51821373889E+01 -0.24064072382E+02 -0.45601866855E+02  0.51821466481E+02  0.00000000000E+00 0. -1.
        -12    1    3    3    0    0  0.60546523529E+01  0.41103394650E+02  0.48256903486E+01  0.41826249583E+02  0.00000000000E+00 0.  1.
        -13    1    4    4    0    0  0.46729340329E+02  0.32002036833E+02 -0.20213403145E+03  0.20991886118E+03  0.00000000000E+00 0.  1.
         13    1    4    4    0    0 -0.25952731062E+02 -0.23544961898E+02 -0.84291896957E+02  0.91285449953E+02  0.00000000000E+00 0. -1.
         21    1    1    2  502  501 -0.32013399009E+02 -0.25496397202E+02 -0.14374913184E+03  0.14946148966E+03  0.00000000000E+00 0. -1.
<scales pt_clust_5="13000.00000" pt_clust_6="13000.00000" pt_clust_7="13000.00000" pt_clust_8="13000.00000" pt_clust_9="40.92584"></scales>
<clustering>
<clus scale="   40.926">  2  9  1 -1</clus>
<clus scale="   81.796">  5  6 -1 -1</clus>
<clus scale="   82.883">  1  5  2 -1</clus>
<clus scale="   90.449">  7  8 -1 -1</clus>
<clus scale="   40.926">  2  5  1 -1</clus>
</clustering>
</event>
<event>
 9    1  0.2674825E-005  0.1015461E+03  0.7546771E-02  0.1285390E+00
          1   -1    0    0  502    0  0.00000000000E+00  0.00000000000E+00  0.72027857050E+03  0.72027857050E+03  0.00000000000E+00 0. -1.
         -2   -1    0    0    0  501 -0.00000000000E+00 -0.00000000000E+00 -0.38392601911E+02  0.38392601911E+02  0.00000000000E+00 0.  1.
        -24    2    1    2    0    0 -0.30156157314E+02 -0.43521190363E+02  0.63052809631E+02  0.11322069634E+03  0.77716030803E+02 0.  0.
         23    2    1    2    0    0 -0.35448824995E+02 -0.58234852047E+01  0.36941058624E+03  0.38286614582E+03  0.93977509086E+02 0.  0.
         11    1    3    3    0    0 -0.35282395908E+02 -0.31999673727E+02  0.79389853060E+02  0.92582802661E+02  0.00000000000E+00 0. -1.
        -12    1    3    3    0    0  0.51262385939E+01 -0.11521516635E+02 -0.16337043429E+02  0.20637893684E+02  0.00000000000E+00 0.  1.
        -11    1    4    4    0    0 -0.29349178570E+02 -0.47264275750E+02  0.16255417824E+03  0.17181137014E+03  0.00000000000E+00 0. -1.
         11    1    4    4    0    0 -0.60996464252E+01  0.41440790545E+02  0.20685640800E+03  0.21105477568E+03  0.00000000000E+00 0.  1.
         21    1    1    2  502  501  0.65604982309E+02  0.49344675567E+02  0.24942257272E+03  0.26258433025E+03  0.00000000000E+00 0. -1.
<scales pt_clust_5="13000.00000" pt_clust_6="13000.00000" pt_clust_7="13000.00000" pt_clust_8="13000.00000" pt_clust_9="82.09087"></scales>
<clustering>
<clus scale="   77.716">  5  6 -1 -1</clus>
<clus scale="   82.091">  1  9  2 -1</clus>
<clus scale="   86.716">  2  5  1 -1</clus>
<clus scale="   93.978">  7  8 -1 -1</clus>
<clus scale="   82.091">  1  5  2 -1</clus>
</clustering>
</event>
<event>
 9    1  0.2674825E-005  0.1187881E+03  0.7546771E-02  0.1248607E+00
          1   -1    0    0  502    0  0.00000000000E+00  0.00000000000E+00  0.38438179248E+03  0.38438179248E+03  0.00000000000E+00 0. -1.
         -2   -1    0    0    0  501 -0.00000000000E+00 -0.00000000000E+00 -0.79958194881E+02  0.79958194881E+02  0.00000000000E+00 0.  1.
        -24    2    1    2    0    0  0.76479942588E+02 -0.29836610426E+01 -0.15041488184E+02  0.11218971028E+03  0.80636225568E+02 0.  0.
         23    2    1    2    0    0 -0.70272128870E+02  0.30983859920E+02  0.26280922027E+03  0.28864881894E+03  0.91385353036E+02 0.  0.
         11    1    3    3    0    0  0.24105202028E+02  0.36989712553E+02  0.17916839909E+01  0.44187212302E+02  0.00000000000E+00 0. -1.
        -12    1    3    3    0    0  0.52374740561E+02 -0.39973373595E+02 -0.16833172175E+02  0.68002497975E+02  0.00000000000E+00 0.  1.
        -11    1    4    4    0    0 -0.46866799137E+02 -0.27871750173E+02  0.99051759338E+02  0.11306892742E+03  0.00000000000E+00 0.  1.
         11    1    4    4    0    0 -0.23405329733E+02  0.58855610093E+02  0.16375746093E+03  0.17557989153E+03  0.00000000000E+00 0. -1.
         21    1    1    2  502  501 -0.62078137181E+01 -0.28000198878E+02  0.56655865516E+02  0.63501458139E+02  0.00000000000E+00 0.  1.
<scales pt_clust_5="13000.00000" pt_clust_6="13000.00000" pt_clust_7="13000.00000" pt_clust_8="13000.00000" pt_clust_9="28.68010"></scales>
<clustering>
<clus scale="   28.680">  1  9  2 -1</clus>
<clus scale="   80.636">  5  6 -1 -1</clus>
<clus scale="   91.385">  7  8 -1 -1</clus>
<clus scale="  110.732">  2  5  1 -1</clus>
<clus scale="   28.680">  1  5  2 -1</clus>
</clustering>
</event>
<event>
 9    1  0.2674825E-005  0.9710336E+02  0.7546771E-02  0.1298403E+00
          1   -1    0    0  502    0  0.00000000000E+00  0.00000000000E+00  0.30095071485E+03  0.30095071485E+03  0.00000000000E+00 0. -1.
         -2   -1    0    0    0  501 -0.00000000000E+00 -0.00000000000E+00 -0.47390013943E+02  0.47390013943E+02  0.00000000000E+00 0.  1.
         23    2    1    2    0    0  0.20035857557E+02 -0.76736925101E+01  0.49839313659E+02  0.10831666367E+03  0.93745513487E+02 0.  0.
        -24    2    1    2    0    0 -0.31558413500E+02 -0.91403819108E+01  0.76185474193E+02  0.11086953940E+03  0.73541472959E+02 0.  0.
         11    1    4    4    0    0 -0.29563389947E+02 -0.38553906149E+02  0.33582762182E+02  0.59060982215E+02  0.00000000000E+00 0. -1.
        -12    1    4    4    0    0 -0.19950235535E+01  0.29413524238E+02  0.42602712010E+02  0.51808557186E+02  0.00000000000E+00 0.  1.
        -11    1    3    3    0    0 -0.13263706530E+02 -0.26065131325E+02 -0.15207109221E+02  0.32963209079E+02  0.00000000000E+00 0.  1.
         11    1    3    3    0    0  0.33299564087E+02  0.18391438815E+02  0.65046422880E+02  0.75353454596E+02  0.00000000000E+00 0. -1.
         21    1    1    2  502  501  0.11522555943E+02  0.16814074421E+02  0.12753591305E+03  0.12915452571E+03  0.00000000000E+00 0. -1.
<scales pt_clust_5="13000.00000" pt_clust_6="13000.00000" pt_clust_7="13000.00000" pt_clust_8="13000.00000" pt_clust_9="20.38339"></scales>
<clustering>
<clus scale="   20.383">  1  9  2 -1</clus>
<clus scale="   73.541">  5  6 -1 -1</clus>
<clus scale="   77.777">  1  5  2 -1</clus>
<clus scale="   93.746">  7  8 -1 -1</clus>
<clus scale="   20.383">  1  5  2 -1</clus>
</clustering>
</event>
<event>
 9    1  0.2674825E-005  0.1180405E+03  0.7546771E-02  0.1254028E+00
         -4   -1    0    0    0  501 -0.00000000000E+00  0.00000000000E+00  0.43302721605E+03  0.43302721605E+03  0.00000000000E+00 0.  1.
          3   -1    0    0  502    0  0.00000000000E+00 -0.00000000000E+00 -0.11520535766E+03  0.11520535766E+03  0.00000000000E+00 0. -1.
        -24    2    1    2    0    0  0.64377618539E+02  0.20333433977E+01  0.23634318404E+03  0.25789500981E+03  0.80641944360E+02 0.  0.
         23    2    1    2    0    0 -0.34377340800E+02 -0.84271203909E+02  0.13186072247E+03  0.18933541968E+03  0.10088217706E+03 0.  0.
         11    1    3    3    0    0 -0.13355936745E+02  0.18228623419E+02  0.70305316281E+02  0.73847824988E+02  0.00000000000E+00 0. -1.
        -12    1    3    3    0    0  0.77733555284E+02 -0.16195280021E+02  0.16603786776E+03  0.18404718482E+03  0.00000000000E+00 0.  1.
        -13    1    4    4    0    0 -0.13429195418E+02 -0.15985704736E+02  0.11374808713E+03  0.11564823117E+03  0.00000000000E+00 0.  1.
         13    1    4    4    0    0 -0.20948145381E+02 -0.68285499173E+02  0.18112635332E+02  0.73687188513E+02  0.00000000000E+00 0. -1.
         21    1    1    2  502  501 -0.30000277739E+02  0.82237860511E+02 -0.50382048108E+02  0.10100214422E+03  0.00000000000E+00 0.  1.
<scales pt_clust_5="13000.00000" pt_clust_6="13000.00000" pt_clust_7="13000.00000" pt_clust_8="13000.00000" pt_clust_9="87.53903"></scales>
<clustering>
<clus scale="   80.642">  5  6 -1 -1</clus>
<clus scale="   87.539">  2  9  1 -1</clus>
<clus scale="  100.882">  7  8 -1 -1</clus>
<clus scale="  101.289">  1  5  2 -1</clus>
<clus scale="   87.539">  2  5  1 -1</clus>
</clustering>
</event>
<event>
 9    1  0.2674825E-005  0.4720330E+03  0.7546771E-02  0.1021524E+00
          1   -1    0    0  502    0  0.00000000000E+00  0.00000000000E+00  0.91564988247E+03  0.91564988247E+03  0.00000000000E+00 0. -1.
         -2   -1    0    0    0  501 -0.00000000000E+00 -0.00000000000E+00 -0.43563408609E+03  0.43563408609E+03  0.00000000000E+00 0.  1.
        -24    2    1    2    0    0 -0.31394381740E+03 -0.33527968007E+03 -0.12246765493E+03  0.48163318934E+03  0.77453329305E+02 0.  0.
         23    2    1    2    0    0  0.40246514780E+03  0.26723399806E+03  0.38245512559E+03  0.62291467548E+03  0.91425187589E+02 0.  0.
         13    1    3    3    0    0 -0.61088244624E+02 -0.91488176851E+02 -0.58565570542E+02  0.12462658700E+03  0.00000000000E+00 0. -1.
        -14    1    3    3    0    0 -0.25285557278E+03 -0.24379150322E+03 -0.63902084387E+02  0.35700660234E+03  0.00000000000E+00 0.  1.
        -11    1    4    4    0    0  0.38546240800E+03  0.22969688280E+03  0.33440782869E+03  0.55961640597E+03  0.00000000000E+00 0. -1.
         11    1    4    4    0    0  0.17002739802E+02  0.37537115260E+02  0.48047296903E+02  0.63298269507E+02  0.00000000000E+00 0.  1.
         21    1    1    2  502  501 -0.88521330398E+02  0.68045682009E+02  0.22002832572E+03  0.24673610375E+03  0.00000000000E+00 0. -1.
<scales pt_clust_5="13000.00000" pt_clust_6="13000.00000" pt_clust_7="13000.00000" pt_clust_8="13000.00000" pt_clust_9="111.65232"></scales>
<clustering>
<clus scale="   77.453">  5  6 -1 -1</clus>
<clus scale="   91.425">  7  8 -1 -1</clus>
<clus scale="  111.652">  1  9  2 -1</clus>
<clus scale="  469.527">  2  5  1 -1</clus>
<clus scale="  111.652">  1  5  2 -1</clus>
</clustering>
</event>
<event>
 9    1  0.2674825E-005  0.9816971E+02  0.7546771E-02  0.1287693E+00
          1   -1    0    0  502    0  0.00000000000E+00  0.00000000000E+00  0.40297493945E+03  0.40297493945E+03  0.00000000000E+00 0. -1.
         -2   -1    0    0    0  501 -0.00000000000E+00 -0.00000000000E+00 -0.39828608735E+02  0.39828608735E+02  0.00000000000E+00 0.  1.
        -24    2    1    2    0    0  0.27066488361E+02 -0.30838644937E+02  0.54092795445E+02  0.10789872537E+03  0.83859928477E+02 0.  0.
         23    2    1    2    0    0 -0.20925060338E+01  0.34444182384E+02  0.19155903054E+03  0.21473137177E+03  0.90685828880E+02 0.  0.
         13    1    3    3    0    0  0.91821765023E+01 -0.47493636165E+02  0.65092701094E+02  0.81098813661E+02  0.00000000000E+00 0. -1.
        -14    1    3    3    0    0  0.17884311858E+02  0.16654991228E+02 -0.10999905649E+02  0.26799911711E+02  0.00000000000E+00 0.  1.
        -11    1    4    4    0    0  0.97664442898E+01 -0.21724540375E+02  0.12925221411E+02  0.27099823563E+02  0.00000000000E+00 0.  1.
         11    1    4    4    0    0 -0.11858950324E+02  0.56168722760E+02  0.17863380913E+03  0.18763154821E+03  0.00000000000E+00 0. -1.
         21    1    1    2  502  501 -0.24973982327E+02 -0.36055374471E+01  0.11749450473E+03  0.12017345105E+03  0.00000000000E+00 0. -1.
<scales pt_clust_5="13000.00000" pt_clust_6="13000.00000" pt_clust_7="13000.00000" pt_clust_8="13000.00000" pt_clust_9="25.23291"></scales>
<clustering>
<clus scale="   25.233">  1  9  2 -1</clus>
<clus scale="   83.860">  5  6 -1 -1</clus>
<clus scale="   90.686">  7  8 -1 -1</clus>
<clus scale="   91.901">  2  5  1 -1</clus>
<clus scale="   25.233">  1  5  2 -1</clus>
</clustering>
</event>
<event>
 9    1  0.2674825E-005  0.9601685E+02  0.7546771E-02  0.1293896E+00
         -4   -1    0    0    0  501 -0.00000000000E+00  0.00000000000E+00  0.10281465660E+03  0.10281465660E+03  0.00000000000E+00 0.  1.
          3   -1    0    0  502    0  0.00000000000E+00 -0.00000000000E+00 -0.16456430007E+03  0.16456430007E+03  0.00000000000E+00 0. -1.
        -24    2    1    2    0    0 -0.10802442456E+02 -0.29980001839E+02  0.37536847857E+02  0.95209624613E+02  0.81488431072E+02 0.  0.
         23    2    1    2    0    0  0.39586185217E+02  0.14414414101E+02 -0.46856483538E+02  0.11036563407E+03  0.90610163557E+02 0.  0.
         11    1    3    3    0    0 -0.18093175952E+02 -0.24072213403E+02 -0.20493465510E+02  0.36425493858E+02  0.00000000000E+00 0. -1.
        -12    1    3    3    0    0  0.72907334958E+01 -0.59077884360E+01  0.58030313367E+02  0.58784130755E+02  0.00000000000E+00 0.  1.
        -13    1    4    4    0    0  0.22838065468E+02 -0.33369700623E+02  0.13424892011E+01  0.40458823898E+02  0.00000000000E+00 0.  1.
         13    1    4    4    0    0  0.16748119749E+02  0.47784114724E+02 -0.48198972739E+02  0.69906810170E+02  0.00000000000E+00 0. -1.
         21    1    1    2  502  501 -0.28783742761E+02  0.15565587739E+02 -0.52430007782E+02  0.61803697988E+02  0.00000000000E+00 0. -1.
<scales pt_clust_5="13000.00000" pt_clust_6="13000.00000" pt_clust_7="13000.00000" pt_clust_8="13000.00000" pt_clust_9="32.72295"></scales>
<clustering>
<clus scale="   32.723">  2  9  1 -1</clus>
<clus scale="   81.488">  5  6 -1 -1</clus>
<clus scale="   87.461">  1  5  2 -1</clus>
<clus scale="   90.610">  7  8 -1 -1</clus>
<clus scale="   32.723">  2  5  1 -1</clus>
</clustering>
</event>
<event>
 9    1  0.2674825E-005  0.1629313E+03  0.7546771E-02  0.1207258E+00
         -2   -1    0    0    0  501 -0.00000000000E+00  0.00000000000E+00  0.30017931524E+03  0.30017931524E+03  0.00000000000E+00 0.  1.
          1   -1    0    0  502    0  0.00000000000E+00 -0.00000000000E+00 -0.14479598955E+03  0.14479598955E+03  0.00000000000E+00 0. -1.
        -24    2    1    2    0    0 -0.21573457883E+02 -0.57428128046E+02  0.82880776475E+02  0.13073331494E+03  0.80365244661E+02 0.  0.
         23    2    1    2    0    0 -0.51609356274E+02  0.14714267700E+03  0.70410186211E+01  0.18123959675E+03  0.92107124797E+02 0.  0.
         13    1    3    3    0    0 -0.26847365002E+02  0.46012237876E+01  0.57270355784E+02  0.63418025194E+02  0.00000000000E+00 0. -1.
        -14    1    3    3    0    0  0.52739071188E+01 -0.62029351834E+02  0.25610420691E+02  0.67315289743E+02  0.00000000000E+00 0.  1.
        -11    1    4    4    0    0 -0.30815571686E+02  0.15142594856E+03  0.20825665361E+02  0.15592666768E+03  0.00000000000E+00 0. -1.
         11    1    4    4    0    0 -0.20793784588E+02 -0.42832715574E+01 -0.13784646740E+02  0.25312929077E+02  0.00000000000E+00 0.  1.
         21    1    1    2  502  501  0.73182814157E+02 -0.89714548956E+02  0.65461530598E+02  0.13300239310E+03  0.00000000000E+00 0.  1.
<scales pt_clust_5="13000.00000" pt_clust_6="13000.00000" pt_clust_7="13000.00000" pt_clust_8="13000.00000" pt_clust_9="134.39827"></scales>
<clustering>
<clus scale="   80.365">  5  6 -1 -1</clus>
<clus scale="   92.107">  7  8 -1 -1</clus>
<clus scale="  101.104">  1  5  2 -1</clus>
<clus scale="  134.398">  1  9  2 -1</clus>
<clus scale="  162.931">  2  5  1 -1</clus>
</clustering>
</event>
<event>
 9    1  0.2674825E-005  0.1261384E+03  0.7546771E-02  0.1236868E+00
         -2   -1    0    0    0  501 -0.00000000000E+00  0.00000000000E+00  0.15912493376E+03  0.15912493376E+03  0.00000000000E+00 0.  1.
          1   -1    0    0  502    0  0.00000000000E+00 -0.00000000000E+00 -0.56309938804E+03  0.56309938804E+03  0.00000000000E+00 0. -1.
         23    2    1    2    0    0  0.13509978307E+03  0.33523888092E+02  0.69680862519E+02  0.18075708704E+03  0.91879809848E+02 0.  0.
        -24    2    1    2    0    0 -0.81350077842E+02  0.21899518794E+02 -0.44390940674E+03  0.45872906940E+03  0.79242498882E+02 0.  0.
         11    1    4    4    0    0 -0.57902258997E+02 -0.16934263098E+02 -0.34056015428E+03  0.34586219733E+03  0.00000000000E+00 0. -1.
        -12    1    4    4    0    0 -0.23447818845E+02  0.38833781891E+02 -0.10334925247E+03  0.11286687207E+03  0.00000000000E+00 0.  1.
        -13    1    3    3    0    0  0.89087440263E+02  0.65653680943E+02  0.46393414355E+02  0.11999719467E+03  0.00000000000E+00 0.  1.
         13    1    3    3    0    0  0.46012342804E+02 -0.32129792851E+02  0.23287448164E+02  0.60759892371E+02  0.00000000000E+00 0. -1.
         21    1    1    2  502  501 -0.53749705226E+02 -0.55423406886E+02 -0.29745910055E+02  0.82738165363E+02  0.00000000000E+00 0. -1.
<scales pt_clust_5="13000.00000" pt_clust_6="13000.00000" pt_clust_7="13000.00000" pt_clust_8="13000.00000" pt_clust_9="77.20612"></scales>
<clustering>
<clus scale="   77.206">  1  9  2 -1</clus>
<clus scale="   79.242">  5  6 -1 -1</clus>
<clus scale="   91.880">  7  8 -1 -1</clus>
<clus scale="  117.253">  2  5  1 -1</clus>
<clus scale="  117.253">  2  5  1 -1</clus>
</clustering>
</event>
<event>
 9    1  0.2674825E-005  0.1069519E+03  0.7546771E-02  0.1270627E+00
          1   -1    0    0  502    0  0.00000000000E+00  0.00000000000E+00  0.16276456684E+03  0.16276456684E+03  0.00000000000E+00 0. -1.
         -2   -1    0    0    0  501 -0.00000000000E+00 -0.00000000000E+00 -0.90910152533E+02  0.90910152533E+02  0.00000000000E+00 0.  1.
         23    2    1    2    0    0 -0.36310343537E+02 -0.44544919518E+02  0.11706884786E+02  0.10862859736E+03  0.91435387632E+02 0.  0.
        -24    2    1    2    0    0  0.13153240254E+02  0.54744175422E+02  0.25398778147E+02  0.10206063637E+03  0.81248649793E+02 0.  0.
         11    1    4    4    0    0 -0.25457642264E+02  0.39652631556E+02  0.35966883922E+02  0.59279334325E+02  0.00000000000E+00 0. -1.
        -12    1    4    4    0    0  0.38610882518E+02  0.15091543867E+02 -0.10568105775E+02  0.42781302046E+02  0.00000000000E+00 0.  1.
        -11    1    3    3    0    0  0.23677456041E+02 -0.17191771686E+02 -0.20028279145E+02  0.35458580115E+02  0.00000000000E+00 0. -1.
         11    1    3    3    0    0 -0.59987799578E+02 -0.27353147832E+02  0.31735163931E+02  0.73170017249E+02  0.00000000000E+00 0.  1.
         21    1    1    2  502  501  0.23157103283E+02 -0.10199255905E+02  0.34748751379E+02  0.42985485642E+02  0.00000000000E+00 0. -1.
<scales pt_clust_5="13000.00000" pt_clust_6="13000.00000" pt_clust_7="13000.00000" pt_clust_8="13000.00000" pt_clust_9="25.30368"></scales>
<clustering>
<clus scale="   25.304">  1  9  2 -1</clus>
<clus scale="   81.249">  5  6 -1 -1</clus>
<clus scale="   91.435">  7  8 -1 -1</clus>
<clus scale="   98.385">  1  5  2 -1</clus>
<clus scale="   25.304">  1  5  2 -1</clus>
</clustering>
</event>
<event>
 9    1  0.3082519E-005  0.9717519E+02  0.7546771E-02  0.1293109E+00
         -2   -1    0    0    0  501 -0.00000000000E+00  0.00000000000E+00  0.20592226842E+03  0.20592226842E+03  0.00000000000E+00 0.  1.
          1   -1    0    0  502    0  0.00000000000E+00 -0.00000000000E+00 -0.41733559797E+03  0.41733559797E+03  0.00000000000E+00 0. -1.
        -24    2    1    2    0    0 -0.12199365692E+02  0.26497751266E+02  0.16683815909E+03  0.18781122725E+03  0.81161138522E+02 0.  0.
         23    2    1    2    0    0  0.11777571527E+02  0.45163390265E+02 -0.33697444150E+03  0.35274662864E+03  0.93273612462E+02 0.  0.
         11    1    3    3    0    0  0.24721351857E+02 -0.15659973819E+02  0.44653092703E+02  0.53388001513E+02  0.00000000000E+00 0. -1.
        -12    1    3    3    0    0 -0.36920717549E+02  0.42157725086E+02  0.12218506639E+03  0.13442322574E+03  0.00000000000E+00 0.  1.
        -13    1    4    4    0    0  0.15405591138E+01  0.73676763663E+02 -0.25076666087E+03  0.26137053589E+03  0.00000000000E+00 0. -1.
         13    1    4    4    0    0  0.10237012414E+02 -0.28513373398E+02 -0.86207780623E+02  0.91376092746E+02  0.00000000000E+00 0.  1.
         21    1    1    2  502  501  0.42179416496E+00 -0.71661141532E+02 -0.41277047148E+02  0.82700010503E+02  0.00000000000E+00 0. -1.
<scales pt_clust_5="13000.00000" pt_clust_6="13000.00000" pt_clust_7="13000.00000" pt_clust_8="13000.00000" pt_clust_9="71.66238"></scales>
<clustering>
<clus scale="   71.662">  2  9  1 -1</clus>
<clus scale="   81.161">  5  6 -1 -1</clus>
<clus scale="   85.616">  1  5  2 -1</clus>
<clus scale="   93.274">  7  8 -1 -1</clus>
<clus scale="   71.662">  2  5  1 -1</clus>
</clustering>
</event>
<event>
 9    1  0.2674825E-005  0.8832054E+02  0.7546771E-02  0.1309714E+00
          1   -1    0    0  502    0  0.00000000000E+00  0.00000000000E+00  0.47173583929E+03  0.47173583929E+03  0.00000000000E+00 0. -1.
         -2   -1    0    0    0  501 -0.00000000000E+00 -0.00000000000E+00 -0.29088229779E+02  0.29088229779E+02  0.00000000000E+00 0.  1.
        -24    2    1    2    0    0  0.15057938853E+01  0.43071990061E+01  0.83140506505E+02  0.11799593470E+03  0.83605486693E+02 0.  0.
         23    2    1    2    0    0  0.34082062046E+02 -0.82930843232E+00  0.28474327434E+03  0.29995340186E+03  0.87926311742E+02 0.  0.
         11    1    3    3    0    0 -0.11542202844E+02 -0.34599413898E+02  0.61754389861E+02  0.71721311725E+02  0.00000000000E+00 0. -1.
        -12    1    3    3    0    0  0.13047996729E+02  0.38906612904E+02  0.21386116644E+02  0.46274622974E+02  0.00000000000E+00 0.  1.
        -13    1    4    4    0    0  0.57709568266E+02 -0.11740281943E+02  0.24819345548E+03  0.25508473070E+03  0.00000000000E+00 0.  1.
         13    1    4    4    0    0 -0.23627506220E+02  0.10910973511E+02  0.36549818859E+02  0.44868671160E+02  0.00000000000E+00 0. -1.
         21    1    1    2  502  501 -0.35587855931E+02 -0.34778905737E+01  0.74763828667E+02  0.82874732516E+02  0.00000000000E+00 0. -1.
<scales pt_clust_5="13000.00000" pt_clust_6="13000.00000" pt_clust_7="13000.00000" pt_clust_8="13000.00000" pt_clust_9="35.75739"></scales>
<clustering>
<clus scale="   35.757">  1  9  2 -1</clus>
<clus scale="   83.605">  5  6 -1 -1</clus>
<clus scale="   84.020">  2  5  1 -1</clus>
<clus scale="   87.926">  7  8 -1 -1</clus>
<clus scale="   35.757">  1  5  2 -1</clus>
</clustering>
</event>
<event>
 9    1  0.2674825E-005  0.9533520E+02  0.7546771E-02  0.1291539E+00
          1   -1    0    0  502    0  0.00000000000E+00  0.00000000000E+00  0.43901660245E+03  0.43901660245E+03  0.00000000000E+00 0. -1.
         -2   -1    0    0    0  501 -0.00000000000E+00 -0.00000000000E+00 -0.97448914546E+02  0.97448914546E+02  0.00000000000E+00 0.  1.
         23    2    1    2    0    0  0.20464278025E+02 -0.21873528503E+02 -0.61698892670E+02  0.11343329433E+03  0.90349991596E+02 0.  0.
        -24    2    1    2    0    0 -0.40614034880E+02  0.12453480560E+02  0.37186309071E+03  0.38454938000E+03  0.88269351502E+02 0.  0.
         11    1    4    4    0    0 -0.52833863755E+02  0.36644661696E+02  0.31579663225E+03  0.32227590870E+03  0.00000000000E+00 0. -1.
        -12    1    4    4    0    0  0.12219828875E+02 -0.24191181136E+02  0.56066458465E+02  0.62273471296E+02  0.00000000000E+00 0.  1.
        -13    1    3    3    0    0 -0.27141717018E+02  0.13240625909E+02 -0.40660344991E+02  0.50648303347E+02  0.00000000000E+00 0.  1.
         13    1    3    3    0    0  0.47605995043E+02 -0.35114154412E+02 -0.21038547679E+02  0.62784990982E+02  0.00000000000E+00 0. -1.
         21    1    1    2  502  501  0.20149756855E+02  0.94200479422E+01  0.31403489866E+02  0.38482842674E+02  0.00000000000E+00 0.  1.
<scales pt_clust_5="13000.00000" pt_clust_6="13000.00000" pt_clust_7="13000.00000" pt_clust_8="13000.00000" pt_clust_9="22.24298"></scales>
<clustering>
<clus scale="   22.243">  1  9  2 -1</clus>
<clus scale="   88.269">  5  6 -1 -1</clus>
<clus scale="   90.350">  7  8 -1 -1</clus>
<clus scale="   93.366">  1  5  2 -1</clus>
<clus scale="   22.243">  1  5  2 -1</clus>
</clustering>
</event>
<event>
 9    1  0.2674825E-005  0.9992675E+02  0.7546771E-02  0.1287086E+00
         -2   -1    0    0    0  501 -0.00000000000E+00  0.00000000000E+00  0.47099578400E+03  0.47099578400E+03  0.00000000000E+00 0.  1.
          1   -1    0    0  502    0  0.00000000000E+00 -0.00000000000E+00 -0.29990662056E+03  0.29990662056E+03  0.00000000000E+00 0. -1.
        -24    2    1    2    0    0 -0.26653114936E+02 -0.98935673316E+01  0.44187249905E+03  0.45055315688E+03  0.83298082466E+02 0.  0.
         23    2    1    2    0    0  0.46596500703E+02 -0.13579977330E+02 -0.99526778277E+02  0.14634478117E+03  0.95684720411E+02 0.  0.
         13    1    3    3    0    0  0.11909259981E+02  0.30038721908E+02  0.17710627923E+03  0.18002996814E+03  0.00000000000E+00 0. -1.
        -14    1    3    3    0    0 -0.38562374917E+02 -0.39932289240E+02  0.26476621982E+03  0.27052318873E+03  0.00000000000E+00 0.  1.
        -13    1    4    4    0    0 -0.27386291711E+02 -0.12817193923E+01 -0.48243549374E+02  0.55489565096E+02  0.00000000000E+00 0. -1.
         13    1    4    4    0    0  0.73982792414E+02 -0.12298257937E+02 -0.51283228902E+02  0.90855216076E+02  0.00000000000E+00 0.  1.
         21    1    1    2  502  501 -0.19943385766E+02  0.23473544661E+02 -0.17125655733E+03  0.17400446651E+03  0.00000000000E+00 0. -1.
<scales pt_clust_5="13000.00000" pt_clust_6="13000.00000" pt_clust_7="13000.00000" pt_clust_8="13000.00000" pt_clust_9="30.80172"></scales>
<clustering>
<clus scale="   30.802">  2  9  1 -1</clus>
<clus scale="   83.298">  5  6 -1 -1</clus>
<clus scale="   88.138">  1  5  2 -1</clus>
<clus scale="   95.685">  7  8 -1 -1</clus>
<clus scale="   30.802">  2  5  1 -1</clus>
</clustering>
</event>
<event>
 9    1  0.2674825E-005  0.9208273E+02  0.7546771E-02  0.1303179E+00
         -2   -1    0    0    0  501 -0.00000000000E+00  0.00000000000E+00  0.18958165030E+03  0.18958165030E+03  0.00000000000E+00 0.  1.
          1   -1    0    0  502    0  0.00000000000E+00 -0.00000000000E+00 -0.12336689935E+03  0.12336689935E+03  0.00000000000E+00 0. -1.
        -24    2    1    2    0    0  0.78259969119E+01 -0.57627138502E+01  0.87579537014E+02  0.11960610117E+03  0.80876381187E+02 0.  0.
         23    2    1    2    0    0 -0.43216884917E+02  0.59372729573E+01  0.51569202289E+02  0.11227511794E+03  0.89684832223E+02 0.  0.
         11    1    3    3    0    0  0.32575137947E+02  0.23903511228E+02  0.30249120951E+02  0.50473030220E+02  0.00000000000E+00 0. -1.
        -12    1    3    3    0    0 -0.24749141035E+02 -0.29666225078E+02  0.57330416063E+02  0.69133070945E+02  0.00000000000E+00 0.  1.
        -11    1    4    4    0    0  0.39941392048E+00  0.32308413045E+02 -0.85843684947E+01  0.33431788277E+02  0.00000000000E+00 0. -1.
         11    1    4    4    0    0 -0.43616298837E+02 -0.26371140087E+02  0.60153570783E+02  0.78843329659E+02  0.00000000000E+00 0.  1.
         21    1    1    2  502  501  0.35390888005E+02 -0.17455910715E+00 -0.72933988350E+02  0.81067330542E+02  0.00000000000E+00 0. -1.
<scales pt_clust_5="13000.00000" pt_clust_6="13000.00000" pt_clust_7="13000.00000" pt_clust_8="13000.00000" pt_clust_9="35.39132"></scales>
<clustering>
<clus scale="   35.391">  2  9  1 -1</clus>
<clus scale="   80.876">  5  6 -1 -1</clus>
<clus scale="   83.528">  1  5  2 -1</clus>
<clus scale="   89.685">  7  8 -1 -1</clus>
<clus scale="   35.391">  2  5  1 -1</clus>
</clustering>
</event>
<event>
 9    1  0.2674825E-005  0.1070894E+03  0.7546771E-02  0.1268474E+00
          1   -1    0    0  502    0  0.00000000000E+00  0.00000000000E+00  0.10411038908E+03  0.10411038908E+03  0.00000000000E+00 0. -1.
         -2   -1    0    0    0  501 -0.00000000000E+00 -0.00000000000E+00 -0.22922472792E+03  0.22922472792E+03  0.00000000000E+00 0.  1.
        -24    2    1    2    0    0  0.29885618325E+02 -0.39437010726E+02 -0.16836697199E+03  0.20042315638E+03  0.96817231726E+02 0.  0.
         23    2    1    2    0    0 -0.26196993672E+01  0.35066949863E+02  0.30798283430E+02  0.10261941046E+03  0.91354558417E+02 0.  0.
         11    1    3    3    0    0  0.65471052901E+02 -0.27135602560E+02 -0.11572162712E+03  0.13569928031E+03  0.00000000000E+00 0. -1.
        -12    1    3    3    0    0 -0.35585434576E+02 -0.12301408166E+02 -0.52645344871E+02  0.64723876069E+02  0.00000000000E+00 0.  1.
        -11    1    4    4    0    0  0.31454160198E+01 -0.30798582432E+02  0.37567778985E+01  0.31185889468E+02  0.00000000000E+00 0.  1.
         11    1    4    4    0    0 -0.57651153869E+01  0.65865532295E+02  0.27041505531E+02  0.71433520992E+02  0.00000000000E+00 0. -1.
         21    1    1    2  502  501 -0.27265918958E+02  0.43700608635E+01  0.12454349713E+02  0.30292550162E+02  0.00000000000E+00 0. -1.
<scales pt_clust_5="13000.00000" pt_clust_6="13000.00000" pt_clust_7="13000.00000" pt_clust_8="13000.00000" pt_clust_9="27.61391"></scales>
<clustering>
<clus scale="   27.614">  1  9  2 -1</clus>
<clus scale="   91.355">  7  8 -1 -1</clus>
<clus scale="   96.817">  5  6 -1 -1</clus>
<clus scale="  102.177">  1  7  2 -1</clus>
<clus scale="   27.614">  1  5  2 -1</clus>
</clustering>
</event>
<event>
 9    1  0.2674825E-005  0.1650763E+03  0.7546771E-02  0.1184402E+00
          1   -1    0    0  502    0  0.00000000000E+00  0.00000000000E+00  0.46892766309E+03  0.46892766309E+03  0.00000000000E+00 0. -1.
         -2   -1    0    0    0  501 -0.00000000000E+00 -0.00000000000E+00 -0.21200541452E+03  0.21200541452E+03  0.00000000000E+00 0.  1.
         23    2    1    2    0    0 -0.13363217321E+03 -0.51164078427E+02 -0.15119417027E+03  0.22675152650E+03  0.89895811960E+02 0.  0.
        -24    2    1    2    0    0  0.75727491090E+02  0.73662946711E+02  0.31844842058E+03  0.34509671625E+03  0.80755584164E+02 0.  0.
         11    1    4    4    0    0  0.67499739075E+02  0.97220441940E+01  0.17546008745E+03  0.18824711208E+03  0.00000000000E+00 0. -1.
        -12    1    4    4    0    0  0.82277520154E+01  0.63940902517E+02  0.14298833313E+03  0.15684960417E+03  0.00000000000E+00 0.  1.
        -11    1    3    3    0    0 -0.14191805981E+03 -0.28418819972E+02 -0.12769010335E+03  0.19301069277E+03  0.00000000000E+00 0.  1.
         11    1    3    3    0    0  0.82858866042E+01 -0.22745258454E+02 -0.23504066917E+02  0.33740833727E+02  0.00000000000E+00 0. -1.
         21    1    1    2  502  501  0.57904682119E+02 -0.22498868284E+02  0.89667998252E+02  0.10908483486E+03  0.00000000000E+00 0. -1.
<scales pt_clust_5="13000.00000" pt_clust_6="13000.00000" pt_clust_7="13000.00000" pt_clust_8="13000.00000" pt_clust_9="62.12207"></scales>
<clustering>
<clus scale="   62.122">  1  9  2 -1</clus>
<clus scale="   80.756">  5  6 -1 -1</clus>
<clus scale="   89.896">  7  8 -1 -1</clus>
<clus scale="  160.282">  1  5  2 -1</clus>
<clus scale="   62.122">  1  5  2 -1</clus>
</clustering>
</event>
<event>
 9    1  0.2674825E-005  0.1004502E+03  0.7546771E-02  0.1284056E+00
         -2   -1    0    0    0  501 -0.00000000000E+00  0.00000000000E+00  0.61804475227E+03  0.61804475227E+03  0.00000000000E+00 0.  1.
          1   -1    0    0  502    0  0.00000000000E+00 -0.00000000000E+00 -0.34019228532E+02  0.34019228532E+02  0.00000000000E+00 0. -1.
        -24    2    1    2    0    0 -0.30333857460E+02  0.29935981484E+02  0.43705750930E+03  0.44682365948E+03  0.82557921151E+02 0.  0.
         23    2    1    2    0    0  0.44623185626E+02  0.71771038275E+01  0.94658410724E+02  0.13952989108E+03  0.92008892344E+02 0.  0.
         11    1    3    3    0    0  0.95182287954E+01  0.29069556317E+02  0.57064319326E+02  0.64745442496E+02  0.00000000000E+00 0. -1.
        -12    1    3    3    0    0 -0.39852086255E+02  0.86642516677E+00  0.37999318997E+03  0.38207821699E+03  0.00000000000E+00 0.  1.
        -11    1    4    4    0    0 -0.28303349911E+02  0.83790607008E+01  0.29388599260E+02  0.41653067605E+02  0.00000000000E+00 0.  1.
         11    1    4    4    0    0  0.72926535538E+02 -0.12019568733E+01  0.65269811464E+02  0.97876823479E+02  0.00000000000E+00 0. -1.
         21    1    1    2  502  501 -0.14289328167E+02 -0.37113085311E+02  0.52309603722E+02  0.65710430240E+02  0.00000000000E+00 0.  1.
<scales pt_clust_5="13000.00000" pt_clust_6="13000.00000" pt_clust_7="13000.00000" pt_clust_8="13000.00000" pt_clust_9="39.76891"></scales>
<clustering>
<clus scale="   39.769">  2  9  1 -1</clus>
<clus scale="   82.558">  5  6 -1 -1</clus>
<clus scale="   91.872">  1  5  2 -1</clus>
<clus scale="   92.009">  7  8 -1 -1</clus>
<clus scale="   39.769">  2  5  1 -1</clus>
</clustering>
</event>
<event>
 9    1  0.2674825E-005  0.9744430E+02  0.7546771E-02  0.1290570E+00
         -2   -1    0    0    0  501 -0.00000000000E+00  0.00000000000E+00  0.44165485410E+02  0.44165485410E+02  0.00000000000E+00 0.  1.
          1   -1    0    0  502    0  0.00000000000E+00 -0.00000000000E+00 -0.50576004836E+03  0.50576004836E+03  0.00000000000E+00 0. -1.
        -24    2    1    2    0    0 -0.79970567238E+01 -0.33067031197E+02 -0.26232663558E+02  0.91686339348E+02  0.80999078496E+02 0.  0.
         23    2    1    2    0    0 -0.14947094984E+02  0.54491108702E+02 -0.27571016330E+03  0.29553055288E+03  0.90163834010E+02 0.  0.
         11    1    3    3    0    0 -0.22397567272E+02  0.73647040736E+01  0.18293798599E+02  0.29842133854E+02  0.00000000000E+00 0. -1.
        -12    1    3    3    0    0  0.14400510548E+02 -0.40431735271E+02 -0.44526462156E+02  0.61844205494E+02  0.00000000000E+00 0.  1.
        -11    1    4    4    0    0 -0.49489324833E+02  0.50812796648E+02 -0.16808406506E+03  0.18243734953E+03  0.00000000000E+00 0. -1.
         11    1    4    4    0    0  0.34542229848E+02  0.36783120540E+01 -0.10762609824E+03  0.11309320335E+03  0.00000000000E+00 0.  1.
         21    1    1    2  502  501  0.22944151708E+02 -0.21424077505E+02 -0.15965173610E+03  0.16270864154E+03  0.00000000000E+00 0. -1.
<scales pt_clust_5="13000.00000" pt_clust_6="13000.00000" pt_clust_7="13000.00000" pt_clust_8="13000.00000" pt_clust_9="31.39148"></scales>
<clustering>
<clus scale="   31.391">  2  9  1 -1</clus>
<clus scale="   80.999">  5  6 -1 -1</clus>
<clus scale="   89.032">  1  5  2 -1</clus>
<clus scale="   90.164">  7  8 -1 -1</clus>
<clus scale="   31.391">  2  5  1 -1</clus>
</clustering>
</event>
<event>
 9    1  0.2674825E-005  0.1368435E+03  0.7546771E-02  0.1220631E+00
          3   -1    0    0  502    0  0.00000000000E+00  0.00000000000E+00  0.13286259322E+03  0.13286259322E+03  0.00000000000E+00 0. -1.
         -4   -1    0    0    0  501 -0.00000000000E+00 -0.00000000000E+00 -0.56656527900E+03  0.56656527900E+03  0.00000000000E+00 0.  1.
         23    2    1    2    0    0  0.97255692425E+02  0.18262401396E+02 -0.41362169420E+03  0.43499994901E+03  0.91377594117E+02 0.  0.
        -24    2    1    2    0    0 -0.11192499579E+03 -0.25957007702E+01 -0.10784780939E+03  0.17407501358E+03  0.78339121888E+02 0.  0.
         13    1    4    4    0    0 -0.87956376324E+02 -0.10779685196E+02 -0.32172811074E+02  0.94274150865E+02  0.00000000000E+00 0. -1.
        -14    1    4    4    0    0 -0.23968619465E+02  0.81839844263E+01 -0.75674998314E+02  0.79800862714E+02  0.00000000000E+00 0.  1.
        -11    1    3    3    0    0  0.74821167993E+02  0.38613122383E+02 -0.38216813159E+03  0.39133318439E+03  0.00000000000E+00 0.  1.
         11    1    3    3    0    0  0.22434524432E+02 -0.20350720986E+02 -0.31453562608E+02  0.43666764614E+02  0.00000000000E+00 0. -1.
         21    1    1    2  502  501  0.14669303364E+02 -0.15666700626E+02  0.87766817811E+02  0.90352909629E+02  0.00000000000E+00 0. -1.
<scales pt_clust_5="13000.00000" pt_clust_6="13000.00000" pt_clust_7="13000.00000" pt_clust_8="13000.00000" pt_clust_9="21.46238"></scales>
<clustering>
<clus scale="   21.462">  1  9  2 -1</clus>
<clus scale="   78.339">  5  6 -1 -1</clus>
<clus scale="   91.378">  7  8 -1 -1</clus>
<clus scale="  128.504">  1  5  2 -1</clus>
<clus scale="   21.462">  1  5  2 -1</clus>
</clustering>
</event>
<event>
 9    1  0.2674825E-005  0.1067385E+03  0.7546771E-02  0.1271331E+00
          1   -1    0    0  502    0  0.00000000000E+00  0.00000000000E+00  0.16037171964E+03  0.16037171964E+03  0.00000000000E+00 0. -1.
         -2   -1    0    0    0  501 -0.00000000000E+00 -0.00000000000E+00 -0.37829162367E+03  0.37829162367E+03  0.00000000000E+00 0.  1.
        -24    2    1    2    0    0 -0.24965599514E+02  0.53614092236E+02 -0.28893190436E+03  0.30550049341E+03  0.79694128209E+02 0.  0.
         23    2    1    2    0    0 -0.34947581778E+02 -0.57673455331E+02 -0.28902659339E+02  0.11659095389E+03  0.90611952248E+02 0.  0.
         11    1    3    3    0    0  0.28007821167E+02  0.30432003281E+02 -0.11531359521E+03  0.12250620437E+03  0.00000000000E+00 0. -1.
        -12    1    3    3    0    0 -0.52973420681E+02  0.23182088955E+02 -0.17361830915E+03  0.18299428904E+03  0.00000000000E+00 0.  1.
        -13    1    4    4    0    0  0.27960640104E+02 -0.22737434347E+02 -0.26247542439E+02  0.44583873764E+02  0.00000000000E+00 0.  1.
         13    1    4    4    0    0 -0.62908221882E+02 -0.34936020984E+02 -0.26551168995E+01  0.72007080126E+02  0.00000000000E+00 0. -1.
         21    1    1    2  502  501  0.59913181292E+02  0.40593630946E+01  0.99914659672E+02  0.11657189601E+03  0.00000000000E+00 0. -1.
<scales pt_clust_5="13000.00000" pt_clust_6="13000.00000" pt_clust_7="13000.00000" pt_clust_8="13000.00000" pt_clust_9="60.05054"></scales>
<clustering>
<clus scale="   60.051">  1  9  2 -1</clus>
<clus scale="   79.694">  5  6 -1 -1</clus>
<clus scale="   90.612">  7  8 -1 -1</clus>
<clus scale="   97.641">  2  5  1 -1</clus>
<clus scale="   60.051">  1  5  2 -1</clus>
</clustering>
</event>
<event>
 9    1  0.2674825E-005  0.1229677E+03  0.7546771E-02  0.1242043E+00
          1   -1    0    0  502    0  0.00000000000E+00  0.00000000000E+00  0.12525284062E+03  0.12525284062E+03  0.00000000000E+00 0. -1.
         -2   -1    0    0    0  501 -0.00000000000E+00 -0.00000000000E+00 -0.24186745616E+03  0.24186745616E+03  0.00000000000E+00 0.  1.
         23    2    1    2    0    0  0.90615361766E+02 -0.12384145377E+02 -0.15476818843E+03  0.20211261994E+03  0.92367787368E+02 0.  0.
        -24    2    1    2    0    0 -0.51402238089E+02 -0.29430279338E+02  0.41020089744E+02  0.10761140431E+03  0.79932691381E+02 0.  0.
         11    1    4    4    0    0 -0.54076674734E+02 -0.20272428075E+02  0.61898656315E+02  0.84656374503E+02  0.00000000000E+00 0. -1.
        -12    1    4    4    0    0  0.26744366452E+01 -0.91578512634E+01 -0.20878566572E+02  0.22955029802E+02  0.00000000000E+00 0.  1.
        -11    1    3    3    0    0  0.23711768990E+02 -0.16466329907E+02  0.45906414050E+01  0.29231181942E+02  0.00000000000E+00 0. -1.
         11    1    3    3    0    0  0.66903592776E+02  0.40821845302E+01 -0.15935882983E+03  0.17288143799E+03  0.00000000000E+00 0.  1.
         21    1    1    2  502  501 -0.39213123677E+02  0.41814424715E+02 -0.28665168563E+01  0.57396272541E+02  0.00000000000E+00 0. -1.
<scales pt_clust_5="13000.00000" pt_clust_6="13000.00000" pt_clust_7="13000.00000" pt_clust_8="13000.00000" pt_clust_9="57.32465"></scales>
<clustering>
<clus scale="   57.325">  1  9  2 -1</clus>
<clus scale="   79.933">  5  6 -1 -1</clus>
<clus scale="   92.368">  7  8 -1 -1</clus>
<clus scale="  113.923">  1  5  2 -1</clus>
<clus scale="   57.325">  1  5  2 -1</clus>
</clustering>
</event>
<event>
 9    1  0.2674825E-005  0.3769715E+03  0.7546771E-02  0.1100995E+00
         -2   -1    0    0    0  501 -0.00000000000E+00  0.00000000000E+00  0.16326086487E+03  0.16326086487E+03  0.00000000000E+00 0.  1.
          1   -1    0    0  502    0  0.00000000000E+00 -0.00000000000E+00 -0.12677590146E+04  0.12677590146E+04  0.00000000000E+00 0. -1.
        -24    2    1    2    0    0 -0.57115427277E+01  0.91182695601E+01 -0.10804261333E+02  0.10052036288E+03  0.99357167484E+02 0.  0.
         23    2    1    2    0    0  0.15904579657E+03 -0.33428799210E+03 -0.70201812016E+03  0.79884488313E+03  0.90992742580E+02 0.  0.
         13    1    3    3    0    0  0.31891168022E+01  0.52987100347E+02 -0.16037751006E+02  0.55452797283E+02  0.00000000000E+00 0. -1.
        -14    1    3    3    0    0 -0.89006595299E+01 -0.43868830787E+02  0.52334896738E+01  0.45067565597E+02  0.00000000000E+00 0.  1.
        -13    1    4    4    0    0 -0.36583651925E+01 -0.41394209191E+02 -0.12353971074E+03  0.13034156789E+03  0.00000000000E+00 0.  1.
         13    1    4    4    0    0  0.16270416176E+03 -0.29289378291E+03 -0.57847840941E+03  0.66850331523E+03  0.00000000000E+00 0. -1.
         21    1    1    2  502  501 -0.15333425384E+03  0.32516972254E+03 -0.39167576825E+03  0.53165463347E+03  0.00000000000E+00 0.  1.
<scales pt_clust_5="13000.00000" pt_clust_6="13000.00000" pt_clust_7="13000.00000" pt_clust_8="13000.00000" pt_clust_9="365.82487"></scales>
<clustering>
<clus scale="   90.993">  7  8 -1 -1</clus>
<clus scale="   99.357">  5  6 -1 -1</clus>
<clus scale="   99.938">  1  5  2 -1</clus>
<clus scale="  365.825">  1  9  2 -1</clus>
<clus scale="  376.972">  2  5  1 -1</clus>
</clustering>
</event>
<event>
 9    1  0.2674825E-005  0.9210668E+02  0.7546771E-02  0.1304718E+00
          1   -1    0    0  502    0  0.00000000000E+00  0.00000000000E+00  0.48085442510E+03  0.48085442510E+03  0.00000000000E+00 0. -1.
         -2   -1    0    0    0  501 -0.00000000000E+00 -0.00000000000E+00 -0.81693045889E+02  0.81693045889E+02  0.00000000000E+00 0.  1.
        -24    2    1    2    0    0  0.17564543087E+02 -0.37086717577E+01 -0.47077263823E+02  0.94306680975E+02  0.79719595379E+02 0.  0.
         23    2    1    2    0    0  0.23509457186E+02  0.19015678741E+02  0.26478154848E+03  0.28156445213E+03  0.90856929698E+02 0.  0.
         13    1    3    3    0    0 -0.25648702849E+02 -0.37060933293E+01 -0.43897906062E+02  0.50976634277E+02  0.00000000000E+00 0. -1.
        -14    1    3    3    0    0  0.43213245937E+02 -0.25784283457E-02 -0.31793577607E+01  0.43330046697E+02  0.00000000000E+00 0.  1.
        -13    1    4    4    0    0  0.32360792500E+02 -0.20473597416E+02  0.49871621443E+02  0.62877402202E+02  0.00000000000E+00 0.  1.
         13    1    4    4    0    0 -0.88513353131E+01  0.39489276157E+02  0.21490992704E+03  0.21868704993E+03  0.00000000000E+00 0. -1.
         21    1    1    2  502  501 -0.41074000274E+02 -0.15307006983E+02  0.18145709455E+03  0.18667633788E+03  0.00000000000E+00 0. -1.
<scales pt_clust_5="13000.00000" pt_clust_6="13000.00000" pt_clust_7="13000.00000" pt_clust_8="13000.00000" pt_clust_9="43.83353"></scales>
<clustering>
<clus scale="   43.834">  1  9  2 -1</clus>
<clus scale="   79.720">  5  6 -1 -1</clus>
<clus scale="   81.141">  2  5  1 -1</clus>
<clus scale="   90.857">  7  8 -1 -1</clus>
<clus scale="   43.834">  1  5  2 -1</clus>
</clustering>
</event>
<event>
 9    1  0.2674825E-005  0.1132132E+03  0.7546771E-02  0.1270380E+00
          1   -1    0    0  502    0  0.00000000000E+00  0.00000000000E+00  0.35423390642E+02  0.35423390642E+02  0.00000000000E+00 0. -1.
         -2   -1    0    0    0  501 -0.00000000000E+00 -0.00000000000E+00 -0.41857651411E+03  0.41857651411E+03  0.00000000000E+00 0.  1.
        -24    2    1    2    0    0  0.39268663753E+02  0.45412448650E+02 -0.17542802672E+03  0.19202343153E+03  0.49936832614E+02 0.  0.
         23    2    1    2    0    0 -0.34592866551E+02 -0.76677229663E+02 -0.18573400006E+03  0.22346728023E+03  0.91457326612E+02 0.  0.
         13    1    3    3    0    0  0.18127071832E+02  0.43802694636E+02 -0.15676849628E+03  0.16377920569E+03  0.00000000000E+00 0. -1.
        -14    1    3    3    0    0  0.21141591921E+02  0.16097540143E+01 -0.18659530440E+02  0.28244225838E+02  0.00000000000E+00 0.  1.
        -13    1    4    4    0    0  0.25772471772E+02 -0.39616876029E+01 -0.20714780605E+02  0.33301912939E+02  0.00000000000E+00 0. -1.
         13    1    4    4    0    0 -0.60365338323E+02 -0.72715542060E+02 -0.16501921945E+03  0.19016536729E+03  0.00000000000E+00 0.  1.
         21    1    1    2  502  501 -0.46757972025E+01  0.31264781013E+02 -0.21991096684E+02  0.38509192989E+02  0.00000000000E+00 0. -1.
<scales pt_clust_5="13000.00000" pt_clust_6="13000.00000" pt_clust_7="13000.00000" pt_clust_8="13000.00000" pt_clust_9="31.61249"></scales>
<clustering>
<clus scale="   31.612">  1  9  2 -1</clus>
<clus scale="   49.937">  5  6 -1 -1</clus>
<clus scale="   83.346">  2  5  1 -1</clus>
<clus scale="   91.457">  7  8 -1 -1</clus>
<clus scale="   31.612">  1  5  2 -1</clus>
</clustering>
</event>
<event>
 9    1  0.2674825E-005  0.2480556E+03  0.7546771E-02  0.1140113E+00
         -2   -1    0    0    0  501 -0.00000000000E+00  0.00000000000E+00  0.74106023513E+02  0.74106023513E+02  0.00000000000E+00 0.  1.
          1   -1    0    0  502    0  0.00000000000E+00 -0.00000000000E+00 -0.23042367126E+04  0.23042367126E+04  0.00000000000E+00 0. -1.
         23    2    1    2    0    0  0.69194267700E+02  0.64595085973E+02 -0.29085227143E+03  0.31938559918E+03  0.91933374536E+02 0.  0.
        -24    2    1    2    0    0  0.11407033041E+03  0.10193587799E+03 -0.93480162337E+02  0.19662266799E+03  0.80740134473E+02 0.  0.
         13    1    4    4    0    0  0.82259714434E+02  0.10827639084E+03 -0.56009473081E+02  0.14706290663E+03  0.00000000000E+00 0. -1.
        -14    1    4    4    0    0  0.31810615978E+02 -0.63405128554E+01 -0.37470689256E+02  0.49559761355E+02  0.00000000000E+00 0.  1.
        -11    1    3    3    0    0  0.15924763808E+02  0.63903700310E+02 -0.22630396593E+03  0.23569210002E+03  0.00000000000E+00 0.  1.
         11    1    3    3    0    0  0.53269503892E+02  0.69138566287E+00 -0.64548305501E+02  0.83693499163E+02  0.00000000000E+00 0. -1.
         21    1    1    2  502  501 -0.18326459811E+03 -0.16653096396E+03 -0.18457982553E+04  0.18623344689E+04  0.00000000000E+00 0. -1.
<scales pt_clust_5="13000.00000" pt_clust_6="13000.00000" pt_clust_7="13000.00000" pt_clust_8="13000.00000" pt_clust_9="234.54769"></scales>
<clustering>
<clus scale="   80.740">  5  6 -1 -1</clus>
<clus scale="   91.933">  7  8 -1 -1</clus>
<clus scale="  131.955">  1  7  2 -1</clus>
<clus scale="  234.548">  2  9  1 -1</clus>
<clus scale="  234.548">  2  5  1 -1</clus>
</clustering>
</event>
<event>
 9    1  0.2674825E-005  0.9590941E+02  0.7546771E-02  0.1293557E+00
          1   -1    0    0  502    0  0.00000000000E+00  0.00000000000E+00  0.31334465195E+03  0.31334465195E+03  0.00000000000E+00 0. -1.
         -2   -1    0    0    0  501 -0.00000000000E+00 -0.00000000000E+00 -0.36593459579E+02  0.36593459579E+02  0.00000000000E+00 0.  1.
        -24    2    1    2    0    0  0.18275424459E+01 -0.29441222380E+02  0.75678395360E+02  0.11455380656E+03  0.80778893194E+02 0.  0.
         23    2    1    2    0    0  0.96928977135E+01  0.47053532969E+02  0.16156975199E+03  0.19062489711E+03  0.89022915090E+02 0.  0.
         13    1    3    3    0    0 -0.13517581604E+02  0.25302684653E+02  0.31072008415E+02  0.42289721801E+02  0.00000000000E+00 0. -1.
        -14    1    3    3    0    0  0.15345124050E+02 -0.54743907033E+02  0.44606386945E+02  0.72264084756E+02  0.00000000000E+00 0.  1.
        -13    1    4    4    0    0 -0.13688508542E+02  0.33649341977E+02  0.11426220600E+02  0.38081649108E+02  0.00000000000E+00 0.  1.
         13    1    4    4    0    0  0.23381406255E+02  0.13404190993E+02  0.15014353139E+03  0.15254324800E+03  0.00000000000E+00 0. -1.
         21    1    1    2  502  501 -0.11520440159E+02 -0.17612310589E+02  0.39503045025E+02  0.44759407860E+02  0.00000000000E+00 0. -1.
<scales pt_clust_5="13000.00000" pt_clust_6="13000.00000" pt_clust_7="13000.00000" pt_clust_8="13000.00000" pt_clust_9="21.04552"></scales>
<clustering>
<clus scale="   21.046">  1  9  2 -1</clus>
<clus scale="   80.779">  5  6 -1 -1</clus>
<clus scale="   88.311">  2  5  1 -1</clus>
<clus scale="   89.023">  7  8 -1 -1</clus>
<clus scale="   21.046">  1  5  2 -1</clus>
</clustering>
</event>
<event>
 9    1  0.2674825E-005  0.1424944E+03  0.7546771E-02  0.1212616E+00
          1   -1    0    0  502    0  0.00000000000E+00  0.00000000000E+00  0.24974981463E+03  0.24974981463E+03  0.00000000000E+00 0. -1.
         -2   -1    0    0    0  501 -0.00000000000E+00 -0.00000000000E+00 -0.14010294242E+03  0.14010294242E+03  0.00000000000E+00 0.  1.
        -24    2    1    2    0    0 -0.52993569550E+02 -0.76963973720E+02 -0.13749534592E+02  0.12356077869E+03  0.79664575973E+02 0.  0.
         23    2    1    2    0    0  0.96498835858E+02  0.11631269321E+03  0.98784259875E+02  0.20267761128E+03  0.92082659569E+02 0.  0.
         13    1    3    3    0    0 -0.50058710109E+02 -0.56903417290E+02  0.25018897013E+02  0.79811143112E+02  0.00000000000E+00 0. -1.
        -14    1    3    3    0    0 -0.29348594411E+01 -0.20060556430E+02 -0.38768431605E+02  0.43749635580E+02  0.00000000000E+00 0.  1.
        -13    1    4    4    0    0 -0.14446931055E+02  0.14581738155E+02 -0.33141086178E+01  0.20792407760E+02  0.00000000000E+00 0.  1.
         13    1    4    4    0    0  0.11094576691E+03  0.10173095505E+03  0.10209836849E+03  0.18188520352E+03  0.00000000000E+00 0. -1.
         21    1    1    2  502  501 -0.43505266308E+02 -0.39348719489E+02  0.24612146925E+02  0.63614367073E+02  0.00000000000E+00 0. -1.
<scales pt_clust_5="13000.00000" pt_clust_6="13000.00000" pt_clust_7="13000.00000" pt_clust_8="13000.00000" pt_clust_9="58.66029"></scales>
<clustering>
<clus scale="   58.660">  1  9  2 -1</clus>
<clus scale="   79.665">  5  6 -1 -1</clus>
<clus scale="   92.083">  7  8 -1 -1</clus>
<clus scale="  134.803">  2  5  1 -1</clus>
<clus scale="   58.660">  1  5  2 -1</clus>
</clustering>
</event>
<event>
 9    1  0.2674825E-005  0.9741844E+02  0.7546771E-02  0.1290676E+00
         -2   -1    0    0    0  501 -0.00000000000E+00  0.00000000000E+00  0.21882182544E+02  0.21882182544E+02  0.00000000000E+00 0.  1.
          1   -1    0    0  502    0  0.00000000000E+00 -0.00000000000E+00 -0.67173385606E+03  0.67173385606E+03  0.00000000000E+00 0. -1.
         23    2    1    2    0    0 -0.31322386466E+02 -0.10747129705E+02 -0.14350994258E+03  0.17204216483E+03  0.88920246122E+02 0.  0.
        -24    2    1    2    0    0  0.41603259193E+02 -0.12581938192E+02 -0.45842220186E+03  0.46729475237E+03  0.79525681967E+02 0.  0.
         13    1    4    4    0    0  0.21599819378E+02 -0.43595847814E+02 -0.18086233477E+03  0.18729210950E+03  0.00000000000E+00 0. -1.
        -14    1    4    4    0    0  0.20003439815E+02  0.31013909622E+02 -0.27755986709E+03  0.28000264287E+03  0.00000000000E+00 0.  1.
        -13    1    3    3    0    0 -0.33883032641E+02  0.19506172600E+02 -0.13494679175E+03  0.14049621800E+03  0.00000000000E+00 0. -1.
         13    1    3    3    0    0  0.25606461755E+01 -0.30253302305E+02 -0.85631508325E+01  0.31545946830E+02  0.00000000000E+00 0.  1.
         21    1    1    2  502  501 -0.10280872727E+02  0.23329067897E+02 -0.47919529079E+02  0.54279121401E+02  0.00000000000E+00 0.  1.
<scales pt_clust_5="13000.00000" pt_clust_6="13000.00000" pt_clust_7="13000.00000" pt_clust_8="13000.00000" pt_clust_9="25.49396"></scales>
<clustering>
<clus scale="   25.494">  1  9  2 -1</clus>
<clus scale="   79.526">  5  6 -1 -1</clus>
<clus scale="   88.920">  7  8 -1 -1</clus>
<clus scale="   88.926">  2  5  1 -1</clus>
<clus scale="   88.926">  2  5  1 -1</clus>
</clustering>
</event>
<event>
 9    1  0.2674825E-005  0.9386722E+02  0.7546771E-02  0.1298618E+00
          1   -1    0    0  502    0  0.00000000000E+00  0.00000000000E+00  0.59900153737E+03  0.59900153737E+03  0.00000000000E+00 0. -1.
         -2   -1    0    0    0  501 -0.00000000000E+00 -0.00000000000E+00 -0.22430728571E+02  0.22430728571E+02  0.00000000000E+00 0.  1.
        -24    2    1    2    0    0 -0.12196163522E+02  0.90227036944E+01  0.12090064494E+03  0.14765300810E+03  0.83392381352E+02 0.  0.
         23    2    1    2    0    0  0.11092495344E+02 -0.31172816886E+02  0.27535555526E+03  0.29210591453E+03  0.91708208584E+02 0.  0.
         13    1    3    3    0    0 -0.17191192542E+02  0.44904850615E+02  0.61338648747E+02  0.77938517691E+02  0.00000000000E+00 0. -1.
        -14    1    3    3    0    0  0.49950290203E+01 -0.35882146920E+02  0.59561996193E+02  0.69714490409E+02  0.00000000000E+00 0.  1.
        -13    1    4    4    0    0 -0.16252225459E+02  0.27962151233E+02  0.90677729798E+02  0.96272879957E+02  0.00000000000E+00 0. -1.
         13    1    4    4    0    0  0.27344720803E+02 -0.59134968119E+02  0.18467782546E+03  0.19583303457E+03  0.00000000000E+00 0.  1.
         21    1    1    2  502  501  0.11036681785E+01  0.22150113192E+02  0.18031460859E+03  0.18167334331E+03  0.00000000000E+00 0. -1.
<scales pt_clust_5="13000.00000" pt_clust_6="13000.00000" pt_clust_7="13000.00000" pt_clust_8="13000.00000" pt_clust_9="22.17759"></scales>
<clustering>
<clus scale="   22.178">  1  9  2 -1</clus>
<clus scale="   83.392">  5  6 -1 -1</clus>
<clus scale="   85.761">  2  5  1 -1</clus>
<clus scale="   91.708">  7  8 -1 -1</clus>
<clus scale="   22.178">  1  5  2 -1</clus>
</clustering>
</event>
<event>
 9    1  0.2674825E-005  0.1070509E+03  0.7546771E-02  0.1270360E+00
          3   -1    0    0  502    0  0.00000000000E+00  0.00000000000E+00  0.18415839499E+03  0.18415839499E+03  0.00000000000E+00 0. -1.
         -4   -1    0    0    0  501 -0.00000000000E+00 -0.00000000000E+00 -0.12169727728E+03  0.12169727728E+03  0.00000000000E+00 0.  1.
        -24    2    1    2    0    0 -0.67515718798E+02 -0.39920145539E+01 -0.20058536513E+02  0.10639380826E+03  0.79642884701E+02 0.  0.
         23    2    1    2    0    0  0.43458332645E+02  0.27539841296E+02 -0.70296264885E+01  0.10379404472E+03  0.89870565458E+02 0.  0.
         13    1    3    3    0    0 -0.44684735927E+02  0.27466428310E+02  0.14461196472E+02  0.54408239379E+02  0.00000000000E+00 0. -1.
        -14    1    3    3    0    0 -0.22830982871E+02 -0.31458442864E+02 -0.34519732984E+02  0.51985568878E+02  0.00000000000E+00 0.  1.
        -13    1    4    4    0    0 -0.22649419263E+02  0.75995819230E+01 -0.22736778002E+02  0.32980462584E+02  0.00000000000E+00 0.  1.
         13    1    4    4    0    0  0.66107751908E+02  0.19940259373E+02  0.15707151513E+02  0.70813582135E+02  0.00000000000E+00 0. -1.
         21    1    1    2  502  501  0.24057386153E+02 -0.23547826742E+02  0.89549280708E+02  0.95667819292E+02  0.00000000000E+00 0.  1.
<scales pt_clust_5="13000.00000" pt_clust_6="13000.00000" pt_clust_7="13000.00000" pt_clust_8="13000.00000" pt_clust_9="33.66390"></scales>
<clustering>
<clus scale="   33.664">  1  9  2 -1</clus>
<clus scale="   79.643">  5  6 -1 -1</clus>
<clus scale="   89.871">  7  8 -1 -1</clus>
<clus scale="   98.621">  2  5  1 -1</clus>
<clus scale="   33.664">  1  5  2 -1</clus>
</clustering>
</event>
<event>
 9    1  0.2674825E-005  0.1600268E+03  0.7546771E-02  0.1189801E+00
          1   -1    0    0  502    0  0.00000000000E+00  0.00000000000E+00  0.40618988000E+03  0.40618988000E+03  0.00000000000E+00 0. -1.
         -2   -1    0    0    0  501 -0.00000000000E+00 -0.00000000000E+00 -0.18375993153E+03  0.18375993153E+03  0.00000000000E+00 0.  1.
         23    2    1    2    0    0 -0.41318788152E+02 -0.12432738444E+03 -0.11576747163E+03  0.19585835636E+03  0.88282770080E+02 0.  0.
        -24    2    1    2    0    0  0.30538454683E+02  0.14923918164E+03  0.26662177848E+03  0.31754156487E+03  0.80873618148E+02 0.  0.
         11    1    4    4    0    0  0.11339788706E+02  0.11631638195E+03  0.24999085633E+03  0.27595927193E+03  0.00000000000E+00 0. -1.
        -12    1    4    4    0    0  0.19198665978E+02  0.32922799686E+02  0.16630922150E+02  0.41582292939E+02  0.00000000000E+00 0.  1.
        -11    1    3    3    0    0 -0.58568317651E+02 -0.51821251832E+02 -0.84213078497E+02  0.11492402953E+03  0.00000000000E+00 0.  1.
         11    1    3    3    0    0  0.17249529499E+02 -0.72506132603E+02 -0.31554393137E+02  0.80934326829E+02  0.00000000000E+00 0. -1.
         21    1    1    2  502  501  0.10780333468E+02 -0.24911797200E+02  0.71575641634E+02  0.76549890299E+02  0.00000000000E+00 0. -1.
<scales pt_clust_5="13000.00000" pt_clust_6="13000.00000" pt_clust_7="13000.00000" pt_clust_8="13000.00000" pt_clust_9="27.14430"></scales>
<clustering>
<clus scale="   27.144">  1  9  2 -1</clus>
<clus scale="   80.874">  5  6 -1 -1</clus>
<clus scale="   88.283">  7  8 -1 -1</clus>
<clus scale="  156.062">  1  5  2 -1</clus>
<clus scale="   27.144">  1  5  2 -1</clus>
</clustering>
</event>
<event>
 9    1  0.2674825E-005  0.1196349E+03  0.7546771E-02  0.1254763E+00
         -2   -1    0    0    0  501 -0.00000000000E+00  0.00000000000E+00  0.59840849611E+03  0.59840849611E+03  0.00000000000E+00 0.  1.
          1   -1    0    0  502    0  0.00000000000E+00 -0.00000000000E+00 -0.69573161250E+02  0.69573161250E+02  0.00000000000E+00 0. -1.
        -24    2    1    2    0    0  0.27182751956E+02 -0.41737165486E+02  0.34879844366E+03  0.36173800506E+03  0.81933735562E+02 0.  0.
         23    2    1    2    0    0 -0.18433402821E+02 -0.65346659026E+02  0.22507303175E+02  0.11556311400E+03  0.90764962595E+02 0.  0.
         11    1    3    3    0    0  0.26261543298E+02 -0.50429871807E+02  0.12016833003E+03  0.13294084462E+03  0.00000000000E+00 0. -1.
        -12    1    3    3    0    0  0.92120865807E+00  0.86927063213E+01  0.22863011363E+03  0.22879716044E+03  0.00000000000E+00 0.  1.
        -13    1    4    4    0    0 -0.12943363526E+02 -0.88042816430E+02  0.11436823777E+02  0.89721062869E+02  0.00000000000E+00 0.  1.
         13    1    4    4    0    0 -0.54900392949E+01  0.22696157404E+02  0.11070479398E+02  0.25842051127E+02  0.00000000000E+00 0. -1.
         21    1    1    2  502  501 -0.87493491351E+01  0.10708382451E+03  0.15752958803E+03  0.19068053830E+03  0.00000000000E+00 0. -1.
<scales pt_clust_5="13000.00000" pt_clust_6="13000.00000" pt_clust_7="13000.00000" pt_clust_8="13000.00000" pt_clust_9="77.93729"></scales>
<clustering>
<clus scale="   81.934">  5  6 -1 -1</clus>
<clus scale="   90.765">  7  8 -1 -1</clus>
<clus scale="   95.886">  1  5  2 -1</clus>
<clus scale="   77.937">  1  9  2 -1</clus>
<clus scale="  119.635">  2  5  1 -1</clus>
</clustering>
</event>
<event>
 9    1  0.2674825E-005  0.2234819E+03  0.7546771E-02  0.1131844E+00
         -2   -1    0    0    0  501 -0.00000000000E+00  0.00000000000E+00  0.61816751991E+02  0.61816751991E+02  0.00000000000E+00 0.  1.
          1   -1    0    0  502    0  0.00000000000E+00 -0.00000000000E+00 -0.10500586980E+04  0.10500586980E+04  0.00000000000E+00 0. -1.
        -24    2    1    2    0    0  0.54028528467E+02 -0.19131111847E+03 -0.26307037688E+03  0.33956166029E+03  0.81099149253E+02 0.  0.
         23    2    1    2    0    0 -0.47771710778E+02  0.21299888124E+03 -0.59055382337E+03  0.63581674103E+03  0.88647899696E+02 0.  0.
         13    1    3    3    0    0 -0.42077294403E+01 -0.21488167655E+02 -0.80831527484E+02  0.83744744143E+02  0.00000000000E+00 0. -1.
        -14    1    3    3    0    0  0.58236257907E+02 -0.16982295081E+03 -0.18223884940E+03  0.25581691615E+03  0.00000000000E+00 0.  1.
        -11    1    4    4    0    0 -0.22651898914E+02  0.15682723819E+02 -0.28658560708E+02  0.39753860852E+02  0.00000000000E+00 0.  1.
         11    1    4    4    0    0 -0.25119811864E+02  0.19731615742E+03 -0.56189526266E+03  0.59606288018E+03  0.00000000000E+00 0. -1.
         21    1    1    2  502  501 -0.62568176891E+01 -0.21687762773E+02 -0.13461774581E+03  0.13649704872E+03  0.00000000000E+00 0.  1.
<scales pt_clust_5="13000.00000" pt_clust_6="13000.00000" pt_clust_7="13000.00000" pt_clust_8="13000.00000" pt_clust_9="22.57226"></scales>
<clustering>
<clus scale="   22.572">  2  9  1 -1</clus>
<clus scale="   81.099">  5  6 -1 -1</clus>
<clus scale="   88.648">  7  8 -1 -1</clus>
<clus scale="  220.596">  1  5  2 -1</clus>
<clus scale="   22.572">  2  5  1 -1</clus>
</clustering>
</event>
<event>
 9    1  0.2674825E-005  0.1197319E+03  0.7546771E-02  0.1262332E+00
         -2   -1    0    0    0  501 -0.00000000000E+00  0.00000000000E+00  0.10125632869E+03  0.10125632869E+03  0.00000000000E+00 0.  1.
          1   -1    0    0  502    0  0.00000000000E+00 -0.00000000000E+00 -0.33840684885E+03  0.33840684885E+03  0.00000000000E+00 0. -1.
        -24    2    1    2    0    0  0.20633569059E+02 -0.21907413325E+01  0.45234321607E+02  0.94001388882E+02  0.79746935621E+02 0.  0.
         23    2    1    2    0    0  0.25903437417E+02 -0.67212970907E+02 -0.16534799596E+03  0.20185569866E+03  0.90648727422E+02 0.  0.
         11    1    3    3    0    0  0.33125805137E+02  0.26838390902E+02  0.51292126393E+01  0.42940971280E+02  0.00000000000E+00 0. -1.
        -12    1    3    3    0    0 -0.12492236077E+02 -0.29029132234E+02  0.40105108967E+02  0.51060417603E+02  0.00000000000E+00 0.  1.
        -11    1    4    4    0    0  0.47261271166E+02 -0.64462536851E+02 -0.16119507128E+03  0.17992469929E+03  0.00000000000E+00 0.  1.
         11    1    4    4    0    0 -0.21357833749E+02 -0.27504340566E+01 -0.41529246858E+01  0.21930999370E+02  0.00000000000E+00 0. -1.
         21    1    1    2  502  501 -0.46537006477E+02  0.69403712240E+02 -0.11703684580E+03  0.14380609000E+03  0.00000000000E+00 0. -1.
<scales pt_clust_5="13000.00000" pt_clust_6="13000.00000" pt_clust_7="13000.00000" pt_clust_8="13000.00000" pt_clust_9="78.22105"></scales>
<clustering>
<clus scale="   79.747">  5  6 -1 -1</clus>
<clus scale="   82.402">  1  5  2 -1</clus>
<clus scale="   78.221">  1  9  2 -1</clus>
<clus scale="   90.649">  7  8 -1 -1</clus>
<clus scale="  119.732">  2  5  1 -1</clus>
</clustering>
</event>
<event>
 9    1  0.2674825E-005  0.1111163E+03  0.7546771E-02  0.1262975E+00
         -2   -1    0    0    0  501 -0.00000000000E+00  0.00000000000E+00  0.21507052845E+03  0.21507052845E+03  0.00000000000E+00 0.  1.
          1   -1    0    0  502    0  0.00000000000E+00 -0.00000000000E+00 -0.15977577219E+03  0.15977577219E+03  0.00000000000E+00 0. -1.
        -24    2    1    2    0    0  0.49877696355E+02  0.33808779514E+02  0.16513818275E+03  0.19379289680E+03  0.81573582013E+02 0.  0.
         23    2    1    2    0    0 -0.42072577195E+02 -0.53875619920E+02 -0.67793356499E+02  0.13381140605E+03  0.92934756844E+02 0.  0.
         13    1    3    3    0    0 -0.22123415117E+02  0.14826976488E+02  0.50552540786E+02  0.57138814375E+02  0.00000000000E+00 0. -1.
        -14    1    3    3    0    0  0.72001111472E+02  0.18981803027E+02  0.11458564196E+03  0.13665408243E+03  0.00000000000E+00 0.  1.
        -11    1    4    4    0    0 -0.71689559828E+02 -0.40387215194E+02 -0.54276556777E+02  0.98572129707E+02  0.00000000000E+00 0. -1.
         11    1    4    4    0    0  0.29616982633E+02 -0.13488404725E+02 -0.13516799722E+02  0.35239276341E+02  0.00000000000E+00 0.  1.
         21    1    1    2  502  501 -0.78051191595E+01  0.20066840405E+02 -0.42050069996E+02  0.47241997794E+02  0.00000000000E+00 0. -1.
<scales pt_clust_5="13000.00000" pt_clust_6="13000.00000" pt_clust_7="13000.00000" pt_clust_8="13000.00000" pt_clust_9="21.53133"></scales>
<clustering>
<clus scale="   21.531">  2  9  1 -1</clus>
<clus scale="   81.574">  5  6 -1 -1</clus>
<clus scale="   92.935">  7  8 -1 -1</clus>
<clus scale="  101.805">  1  5  2 -1</clus>
<clus scale="   21.531">  2  5  1 -1</clus>
</clustering>
</event>
<event>
 9    1  0.2674825E-005  0.9716436E+02  0.7546771E-02  0.1290598E+00
         -2   -1    0    0    0  501 -0.00000000000E+00  0.00000000000E+00  0.92462715225E+02  0.92462715225E+02  0.00000000000E+00 0.  1.
          1   -1    0    0  502    0  0.00000000000E+00 -0.00000000000E+00 -0.36459147535E+03  0.36459147535E+03  0.00000000000E+00 0. -1.
        -24    2    1    2    0    0  0.46514128403E+02  0.94708891144E+01  0.49073652806E+02  0.10521013195E+03  0.80048026725E+02 0.  0.
         23    2    1    2    0    0 -0.29038385756E+01  0.40818870264E+01 -0.14509600138E+03  0.16991274382E+03  0.88274553609E+02 0.  0.
         13    1    3    3    0    0  0.15919256405E+02  0.26549979996E+02 -0.13280650768E+02  0.33685306101E+02  0.00000000000E+00 0. -1.
        -14    1    3    3    0    0  0.30594871997E+02 -0.17079090882E+02  0.62354303574E+02  0.71524825844E+02  0.00000000000E+00 0.  1.
        -11    1    4    4    0    0 -0.26914406007E+02 -0.94528056508E+01 -0.73795802761E+01  0.29465216619E+02  0.00000000000E+00 0. -1.
         11    1    4    4    0    0  0.24010567431E+02  0.13534692677E+02 -0.13771642111E+03  0.14044752720E+03  0.00000000000E+00 0.  1.
         21    1    1    2  502  501 -0.43610289827E+02 -0.13552776141E+02 -0.17610641155E+03  0.18193131481E+03  0.00000000000E+00 0. -1.
<scales pt_clust_5="13000.00000" pt_clust_6="13000.00000" pt_clust_7="13000.00000" pt_clust_8="13000.00000" pt_clust_9="45.66766"></scales>
<clustering>
<clus scale="   45.668">  2  9  1 -1</clus>
<clus scale="   80.048">  5  6 -1 -1</clus>
<clus scale="   88.275">  7  8 -1 -1</clus>
<clus scale="   89.756">  1  5  2 -1</clus>
<clus scale="   45.668">  2  5  1 -1</clus>
</clustering>
</event>
<event>
 9    1  0.2674825E-005  0.9358534E+02  0.7546771E-02  0.1294804E+00
          1   -1    0    0  502    0  0.00000000000E+00  0.00000000000E+00  0.10622016843E+04  0.10622016843E+04  0.00000000000E+00 0. -1.
         -2   -1    0    0    0  501 -0.00000000000E+00 -0.00000000000E+00 -0.22421400593E+02  0.22421400593E+02  0.00000000000E+00 0.  1.
        -24    2    1    2    0    0  0.24391221591E+02 -0.14562599953E+02  0.14675065566E+03  0.17595896875E+03  0.92837507193E+02 0.  0.
         23    2    1    2    0    0  0.28189015320E+02 -0.25601789572E+02  0.46632923895E+03  0.47686429960E+03  0.92122358431E+02 0.  0.
         11    1    3    3    0    0 -0.35527579958E+01 -0.41797070155E+02  0.26695730258E+02  0.49722019035E+02  0.00000000000E+00 0. -1.
        -12    1    3    3    0    0  0.27943979587E+02  0.27234470202E+02  0.12005492540E+03  0.12623694972E+03  0.00000000000E+00 0.  1.
        -11    1    4    4    0    0  0.45757498445E+02 -0.49455806896E+02  0.36992195221E+03  0.37600781405E+03  0.00000000000E+00 0. -1.
         11    1    4    4    0    0 -0.17568483124E+02  0.23854017324E+02  0.96407286742E+02  0.10085648556E+03  0.00000000000E+00 0.  1.
         21    1    1    2  502  501 -0.52580236911E+02  0.40164389524E+02  0.42670038914E+03  0.43179981657E+03  0.00000000000E+00 0. -1.
<scales pt_clust_5="13000.00000" pt_clust_6="13000.00000" pt_clust_7="13000.00000" pt_clust_8="13000.00000" pt_clust_9="66.16540"></scales>
<clustering>
<clus scale="   66.165">  1  9  2 -1</clus>
<clus scale="   92.122">  7  8 -1 -1</clus>
<clus scale="   92.838">  5  6 -1 -1</clus>
<clus scale="   92.876">  1  7  2 -1</clus>
<clus scale="   66.165">  1  5  2 -1</clus>
</clustering>
</event>
<event>
 9    1  0.2674825E-005  0.1928833E+03  0.7546771E-02  0.1181837E+00
          1   -1    0    0  502    0  0.00000000000E+00  0.00000000000E+00  0.89830626711E+03  0.89830626711E+03  0.00000000000E+00 0. -1.
         -2   -1    0    0    0  501 -0.00000000000E+00 -0.00000000000E+00 -0.91236313911E+02  0.91236313911E+02  0.00000000000E+00 0.  1.
         23    2    1    2    0    0  0.15109460162E+03 -0.10604525894E+03  0.73482142752E+02  0.21831228442E+03  0.90473491390E+02 0.  0.
        -24    2    1    2    0    0 -0.27760805239E+02  0.62376896704E+02  0.29859049996E+03  0.31698277451E+03  0.81610373866E+02 0.  0.
         11    1    4    4    0    0 -0.34923095556E+02  0.72415769230E+02  0.29226871842E+03  0.30312484227E+03  0.00000000000E+00 0. -1.
        -12    1    4    4    0    0  0.71622903168E+01 -0.10038872526E+02  0.63217815420E+01  0.13857932243E+02  0.00000000000E+00 0.  1.
        -11    1    3    3    0    0  0.21722173833E+02 -0.39325004886E+02 -0.15713260553E+02  0.47594279095E+02  0.00000000000E+00 0.  1.
         11    1    3    3    0    0  0.12937242779E+03 -0.66720254051E+02  0.89195403305E+02  0.17071800533E+03  0.00000000000E+00 0. -1.
         21    1    1    2  502  501 -0.12333379638E+03  0.43668362233E+02  0.43499731049E+03  0.45424752208E+03  0.00000000000E+00 0. -1.
<scales pt_clust_5="13000.00000" pt_clust_6="13000.00000" pt_clust_7="13000.00000" pt_clust_8="13000.00000" pt_clust_9="170.34822"></scales>
<clustering>
<clus scale="   81.610">  5  6 -1 -1</clus>
<clus scale="   90.473">  7  8 -1 -1</clus>
<clus scale="  106.404">  1  5  2 -1</clus>
<clus scale="  170.348">  1  9  2 -1</clus>
<clus scale="  106.404">  1  5  2 -1</clus>
</clustering>
</event>
<event>
 9    1  0.2674825E-005  0.1121077E+03  0.7546771E-02  0.1261110E+00
          1   -1    0    0  502    0  0.00000000000E+00  0.00000000000E+00  0.21690417990E+03  0.21690417990E+03  0.00000000000E+00 0. -1.
         -2   -1    0    0    0  501 -0.00000000000E+00 -0.00000000000E+00 -0.11707965990E+03  0.11707965990E+03  0.00000000000E+00 0.  1.
        -24    2    1    2    0    0  0.36136731311E+01  0.67263796451E+02 -0.65001681228E+02  0.12336293158E+03  0.80347478979E+02 0.  0.
         23    2    1    2    0    0 -0.98126207202E+01 -0.44996531480E+02  0.15380797477E+03  0.18501506212E+03  0.91938592205E+02 0.  0.
         13    1    3    3    0    0  0.31374358088E+02  0.37565466913E+02 -0.27605376775E+01  0.49021783098E+02  0.00000000000E+00 0. -1.
        -14    1    3    3    0    0 -0.27760684957E+02  0.29698329538E+02 -0.62241143551E+02  0.74341148478E+02  0.00000000000E+00 0.  1.
        -11    1    4    4    0    0 -0.39379905785E+02  0.66421795953E+01  0.85870723778E+02  0.94703097793E+02  0.00000000000E+00 0.  1.
         11    1    4    4    0    0  0.29567285065E+02 -0.51638711075E+02  0.67937250990E+02  0.90311964322E+02  0.00000000000E+00 0. -1.
         21    1    1    2  502  501  0.61989475891E+01 -0.22267264971E+02  0.11018226462E+02  0.25605846107E+02  0.00000000000E+00 0. -1.
<scales pt_clust_5="13000.00000" pt_clust_6="13000.00000" pt_clust_7="13000.00000" pt_clust_8="13000.00000" pt_clust_9="23.11402"></scales>
<clustering>
<clus scale="   23.114">  1  9  2 -1</clus>
<clus scale="   80.347">  5  6 -1 -1</clus>
<clus scale="   91.939">  7  8 -1 -1</clus>
<clus scale="  102.816">  2  5  1 -1</clus>
<clus scale="   23.114">  1  5  2 -1</clus>
</clustering>
</event>
<event>
 9    1  0.2674825E-005  0.1178743E+03  0.7546771E-02  0.1249097E+00
          1   -1    0    0  502    0  0.00000000000E+00  0.00000000000E+00  0.19127051507E+03  0.19127051507E+03  0.00000000000E+00 0. -1.
         -2   -1    0    0    0  501 -0.00000000000E+00 -0.00000000000E+00 -0.27892461001E+03  0.27892461001E+03  0.00000000000E+00 0.  1.
        -24    2    1    2    0    0 -0.64921065598E+02  0.31549560390E+02 -0.21529818959E+03  0.24175736187E+03  0.82965005016E+02 0.  0.
         23    2    1    2    0    0  0.91328594039E+02 -0.40133209981E+02  0.46171496029E+02  0.14236325524E+03  0.90464925600E+02 0.  0.
         11    1    3    3    0    0  0.14155821669E+02  0.21917957852E+02 -0.86172551168E+02  0.90036063543E+02  0.00000000000E+00 0. -1.
        -12    1    3    3    0    0 -0.79076887268E+02  0.96316025383E+01 -0.12912563842E+03  0.15172129832E+03  0.00000000000E+00 0.  1.
        -11    1    4    4    0    0 -0.18369654557E+01 -0.32438553468E+02 -0.91287266475E+01  0.33748597651E+02  0.00000000000E+00 0.  1.
         11    1    4    4    0    0  0.93165559494E+02 -0.76946565135E+01  0.55300222677E+02  0.10861465759E+03  0.00000000000E+00 0. -1.
         21    1    1    2  502  501 -0.26407528440E+02  0.85836495914E+01  0.81472598615E+02  0.86074507978E+02  0.00000000000E+00 0. -1.
<scales pt_clust_5="13000.00000" pt_clust_6="13000.00000" pt_clust_7="13000.00000" pt_clust_8="13000.00000" pt_clust_9="27.76755"></scales>
<clustering>
<clus scale="   27.768">  1  9  2 -1</clus>
<clus scale="   82.965">  5  6 -1 -1</clus>
<clus scale="   90.465">  7  8 -1 -1</clus>
<clus scale="  112.221">  2  5  1 -1</clus>
<clus scale="   27.768">  1  5  2 -1</clus>
</clustering>
</event>
<event>
 9    1  0.2674825E-005  0.1477835E+03  0.7546771E-02  0.1205729E+00
         -2   -1    0    0    0  501 -0.00000000000E+00  0.00000000000E+00  0.41490275275E+02  0.41490275275E+02  0.00000000000E+00 0.  1.
          1   -1    0    0  502    0  0.00000000000E+00 -0.00000000000E+00 -0.73020504718E+03  0.73020504718E+03  0.00000000000E+00 0. -1.
        -24    2    1    2    0    0  0.58586128239E+02  0.93407347271E+02 -0.15405089088E+03  0.20526366299E+03  0.79020424049E+02 0.  0.
         23    2    1    2    0    0 -0.84657310540E+02 -0.99685641438E+02 -0.46785985947E+03  0.49444623858E+03  0.92087715818E+02 0.  0.
         11    1    3    3    0    0  0.12257169137E+02  0.16679369165E+02 -0.96620402669E+02  0.98812659932E+02  0.00000000000E+00 0. -1.
        -12    1    3    3    0    0  0.46328959102E+02  0.76727978106E+02 -0.57430488210E+02  0.10645100306E+03  0.00000000000E+00 0.  1.
        -13    1    4    4    0    0 -0.86729192122E+02 -0.45633678824E+02 -0.22140319822E+03  0.24212344288E+03  0.00000000000E+00 0.  1.
         13    1    4    4    0    0  0.20718815825E+01 -0.54051962614E+02 -0.24645666125E+03  0.25232279570E+03  0.00000000000E+00 0. -1.
         21    1    1    2  502  501  0.26071182301E+02  0.62782941672E+01 -0.66804021557E+02  0.71985420888E+02  0.00000000000E+00 0.  1.
<scales pt_clust_5="13000.00000" pt_clust_6="13000.00000" pt_clust_7="13000.00000" pt_clust_8="13000.00000" pt_clust_9="26.81648"></scales>
<clustering>
<clus scale="   26.816">  2  9  1 -1</clus>
<clus scale="   79.020">  5  6 -1 -1</clus>
<clus scale="   92.088">  7  8 -1 -1</clus>
<clus scale="  140.014">  1  5  2 -1</clus>
<clus scale="   26.816">  2  5  1 -1</clus>
</clustering>
</event>
<event>
 9    1  0.2674825E-005  0.1841815E+03  0.7546771E-02  0.1165933E+00
          1   -1    0    0  502    0  0.00000000000E+00  0.00000000000E+00  0.28353094240E+03  0.28353094240E+03  0.00000000000E+00 0. -1.
         -2   -1    0    0    0  501 -0.00000000000E+00 -0.00000000000E+00 -0.27325840352E+03  0.27325840352E+03  0.00000000000E+00 0.  1.
        -24    2    1    2    0    0 -0.16352543431E+03 -0.36232328675E+02 -0.13833897526E+03  0.22909342671E+03  0.72751472674E+02 0.  0.
         23    2    1    2    0    0  0.13352645466E+03  0.61111617925E+02 -0.83729339465E+00  0.17324895780E+03  0.91926907817E+02 0.  0.
         13    1    3    3    0    0 -0.27174327754E+02 -0.10215375201E+01  0.55556000638E+01  0.27755221488E+02  0.00000000000E+00 0. -1.
        -14    1    3    3    0    0 -0.13635110656E+03 -0.35210791155E+02 -0.14389457532E+03  0.20133820522E+03  0.00000000000E+00 0.  1.
        -11    1    4    4    0    0  0.93700349171E+02  0.78491282242E+02  0.21944155962E+02  0.12418608136E+03  0.00000000000E+00 0.  1.
         11    1    4    4    0    0  0.39826105489E+02 -0.17379664318E+02 -0.22781449356E+02  0.49062876444E+02  0.00000000000E+00 0. -1.
         21    1    1    2  502  501  0.29998979654E+02 -0.24879289250E+02  0.14944880754E+03  0.15444696141E+03  0.00000000000E+00 0. -1.
<scales pt_clust_5="13000.00000" pt_clust_6="13000.00000" pt_clust_7="13000.00000" pt_clust_8="13000.00000" pt_clust_9="38.97330"></scales>
<clustering>
<clus scale="   38.973">  1  9  2 -1</clus>
<clus scale="   72.751">  5  6 -1 -1</clus>
<clus scale="   91.927">  7  8 -1 -1</clus>
<clus scale="  175.400">  2  5  1 -1</clus>
<clus scale="   38.973">  1  5  2 -1</clus>
</clustering>
</event>
<event>
 9    1  0.2674825E-005  0.9402081E+02  0.7546771E-02  0.1298768E+00
          3   -1    0    0  502    0  0.00000000000E+00  0.00000000000E+00  0.20216729601E+03  0.20216729601E+03  0.00000000000E+00 0. -1.
         -4   -1    0    0    0  501 -0.00000000000E+00 -0.00000000000E+00 -0.76772597238E+02  0.76772597238E+02  0.00000000000E+00 0.  1.
        -24    2    1    2    0    0 -0.87418752345E+01 -0.21799128888E+02 -0.11129796881E+02  0.85714063777E+02  0.81678674987E+02 0.  0.
         23    2    1    2    0    0 -0.26015563718E+02  0.31139660291E+02  0.11091090126E+03  0.14905138769E+03  0.90931843454E+02 0.  0.
         13    1    3    3    0    0 -0.21167279362E+02  0.14719130877E+02  0.22742235402E+02  0.34379002319E+02  0.00000000000E+00 0. -1.
        -14    1    3    3    0    0  0.12425404128E+02 -0.36518259765E+02 -0.33872032282E+02  0.51335061458E+02  0.00000000000E+00 0.  1.
        -11    1    4    4    0    0 -0.21928188165E+02  0.63362361996E+02  0.72618218296E+02  0.98838453966E+02  0.00000000000E+00 0. -1.
         11    1    4    4    0    0 -0.40873755538E+01 -0.32222701705E+02  0.38292682965E+02  0.50212933720E+02  0.00000000000E+00 0.  1.
         21    1    1    2  502  501  0.34757438953E+02 -0.93405314026E+01  0.25613594393E+02  0.44174441787E+02  0.00000000000E+00 0.  1.
<scales pt_clust_5="13000.00000" pt_clust_6="13000.00000" pt_clust_7="13000.00000" pt_clust_8="13000.00000" pt_clust_9="35.99063"></scales>
<clustering>
<clus scale="   35.991">  1  9  2 -1</clus>
<clus scale="   81.679">  5  6 -1 -1</clus>
<clus scale="   85.104">  2  5  1 -1</clus>
<clus scale="   90.932">  7  8 -1 -1</clus>
<clus scale="   35.991">  1  5  2 -1</clus>
</clustering>
</event>
<event>
 9    1  0.2674825E-005  0.2193558E+03  0.7546771E-02  0.1169425E+00
         -2   -1    0    0    0  501 -0.00000000000E+00  0.00000000000E+00  0.29246206671E+03  0.29246206671E+03  0.00000000000E+00 0.  1.
          1   -1    0    0  502    0  0.00000000000E+00 -0.00000000000E+00 -0.14831549158E+04  0.14831549158E+04  0.00000000000E+00 0. -1.
         23    2    1    2    0    0 -0.26918824776E+02 -0.25833019778E+02  0.24930146611E+03  0.26708449357E+03  0.88266288360E+02 0.  0.
        -24    2    1    2    0    0 -0.18519890665E+03  0.31219783424E+02 -0.42519068112E+03  0.47178306648E+03  0.80739312638E+02 0.  0.
         13    1    4    4    0    0 -0.12449326426E+03  0.58005718757E+02 -0.26741155561E+03  0.30061965393E+03  0.00000000000E+00 0. -1.
        -14    1    4    4    0    0 -0.60705642391E+02 -0.26785935333E+02 -0.15777912551E+03  0.17116341255E+03  0.00000000000E+00 0.  1.
        -13    1    3    3    0    0  0.81493925834E+01  0.27435550677E+02  0.47611139776E+02  0.55551261653E+02  0.00000000000E+00 0. -1.
         13    1    3    3    0    0 -0.35068217359E+02 -0.53268570456E+02  0.20169032634E+03  0.21153323192E+03  0.00000000000E+00 0.  1.
         21    1    1    2  502  501  0.21211773143E+03 -0.53867636458E+01 -0.10148036341E+04  0.10367494225E+04  0.00000000000E+00 0. -1.
<scales pt_clust_5="13000.00000" pt_clust_6="13000.00000" pt_clust_7="13000.00000" pt_clust_8="13000.00000" pt_clust_9="203.95623"></scales>
<clustering>
<clus scale="   80.739">  5  6 -1 -1</clus>
<clus scale="   88.266">  7  8 -1 -1</clus>
<clus scale="   95.827">  1  7  2 -1</clus>
<clus scale="  203.956">  2  9  1 -1</clus>
<clus scale="  203.956">  2  5  1 -1</clus>
</clustering>
</event>
<event>
 9    1  0.2674825E-005  0.1377212E+03  0.7546771E-02  0.1219058E+00
         -2   -1    0    0    0  501 -0.00000000000E+00  0.00000000000E+00  0.43544920130E+03  0.43544920130E+03  0.00000000000E+00 0.  1.
          1   -1    0    0  502    0  0.00000000000E+00 -0.00000000000E+00 -0.95868948502E+02  0.95868948502E+02  0.00000000000E+00 0. -1.
         23    2    1    2    0    0 -0.11509940225E+03 -0.17725867206E+02  0.33244541481E+03  0.36409386788E+03  0.92099468180E+02 0.  0.
        -24    2    1    2    0    0  0.55176222022E+02  0.35666799685E+02  0.11047561521E+02  0.10455073094E+03  0.80574627813E+02 0.  0.
         11    1    4    4    0    0  0.66492457904E+02  0.95660965874E+01 -0.11621692780E+02  0.68174928714E+02  0.00000000000E+00 0. -1.
        -12    1    4    4    0    0 -0.11316235882E+02  0.26100703098E+02  0.22669254300E+02  0.36375802222E+02  0.00000000000E+00 0.  1.
        -11    1    3    3    0    0 -0.41520495052E+02 -0.72655869869E+01  0.24819483008E+03  0.25174871190E+03  0.00000000000E+00 0.  1.
         11    1    3    3    0    0 -0.73578907200E+02 -0.10460280219E+02  0.84250584722E+02  0.11234515598E+03  0.00000000000E+00 0. -1.
         21    1    1    2  502  501  0.59923180231E+02 -0.17940932480E+02 -0.39127235295E+01  0.62673550981E+02  0.00000000000E+00 0. -1.
<scales pt_clust_5="13000.00000" pt_clust_6="13000.00000" pt_clust_7="13000.00000" pt_clust_8="13000.00000" pt_clust_9="62.55130"></scales>
<clustering>
<clus scale="   62.551">  2  9  1 -1</clus>
<clus scale="   80.575">  5  6 -1 -1</clus>
<clus scale="   92.099">  7  8 -1 -1</clus>
<clus scale="  130.296">  2  5  1 -1</clus>
<clus scale="   62.551">  2  5  1 -1</clus>
</clustering>
</event>
<event>
 9    1  0.2674825E-005  0.1020579E+03  0.7546771E-02  0.1280899E+00
         -2   -1    0    0    0  501 -0.00000000000E+00  0.00000000000E+00  0.15577581498E+03  0.15577581498E+03  0.00000000000E+00 0.  1.
          1   -1    0    0  502    0  0.00000000000E+00 -0.00000000000E+00 -0.51220472081E+03  0.51220472081E+03  0.00000000000E+00 0. -1.
         23    2    1    2    0    0  0.15706601787E+02  0.56307427618E+02  0.10137013945E+03  0.14923182179E+03  0.92612135922E+02 0.  0.
        -24    2    1    2    0    0  0.34554732728E+02 -0.89642688062E+00 -0.46749760851E+02  0.10094721212E+03  0.82522520320E+02 0.  0.
         11    1    4    4    0    0  0.20443207225E+02 -0.23583018583E+02  0.14282627003E+02  0.34323125167E+02  0.00000000000E+00 0. -1.
        -12    1    4    4    0    0  0.14111525504E+02  0.22686591702E+02 -0.61032387854E+02  0.66624086953E+02  0.00000000000E+00 0.  1.
        -13    1    3    3    0    0  0.38320924131E+02  0.15255789524E+02  0.43381348474E+01  0.41473506655E+02  0.00000000000E+00 0. -1.
         13    1    3    3    0    0 -0.22614322344E+02  0.41051638094E+02  0.97032004598E+02  0.10775831514E+03  0.00000000000E+00 0.  1.
         21    1    1    2  502  501 -0.50261334516E+02 -0.55411000738E+02 -0.41104928442E+03  0.41780150188E+03  0.00000000000E+00 0. -1.
<scales pt_clust_5="13000.00000" pt_clust_6="13000.00000" pt_clust_7="13000.00000" pt_clust_8="13000.00000" pt_clust_9="74.81030"></scales>
<clustering>
<clus scale="   74.810">  2  9  1 -1</clus>
<clus scale="   82.523">  5  6 -1 -1</clus>
<clus scale="   92.612">  7  8 -1 -1</clus>
<clus scale="   92.999">  2  5  1 -1</clus>
<clus scale="   74.810">  2  5  1 -1</clus>
</clustering>
</event>
<event>
 9    1  0.2674825E-005  0.1215064E+03  0.7546771E-02  0.1241422E+00
          3   -1    0    0  502    0  0.00000000000E+00  0.00000000000E+00  0.15308304631E+03  0.15308304631E+03  0.00000000000E+00 0. -1.
         -4   -1    0    0    0  501 -0.00000000000E+00 -0.00000000000E+00 -0.29410616526E+03  0.29410616526E+03  0.00000000000E+00 0.  1.
        -24    2    1    2    0    0  0.32564812054E+02 -0.88049475330E+02 -0.20690676389E+03  0.24471056181E+03  0.90882743281E+02 0.  0.
         23    2    1    2    0    0  0.39880236125E+02  0.43765122007E+02  0.31485521863E+02  0.11086740686E+03  0.88286038980E+02 0.  0.
         11    1    3    3    0    0 -0.17990795280E+02  0.96951769551E+01 -0.37293853745E+02  0.42526423529E+02  0.00000000000E+00 0. -1.
        -12    1    3    3    0    0  0.50555607335E+02 -0.97744652286E+02 -0.16961291015E+03  0.20218413828E+03  0.00000000000E+00 0.  1.
        -13    1    4    4    0    0  0.62863037879E+02  0.15145730917E+02  0.35797820649E+02  0.73909665535E+02  0.00000000000E+00 0.  1.
         13    1    4    4    0    0 -0.22982801754E+02  0.28619391091E+02 -0.43122987865E+01  0.36957741323E+02  0.00000000000E+00 0. -1.
         21    1    1    2  502  501 -0.72445048179E+02  0.44284353323E+02  0.34398123085E+02  0.91611242905E+02  0.00000000000E+00 0. -1.
<scales pt_clust_5="13000.00000" pt_clust_6="13000.00000" pt_clust_7="13000.00000" pt_clust_8="13000.00000" pt_clust_9="84.90812"></scales>
<clustering>
<clus scale="   84.908">  1  9  2 -1</clus>
<clus scale="   88.286">  7  8 -1 -1</clus>
<clus scale="   90.883">  5  6 -1 -1</clus>
<clus scale="  119.577">  1  7  2 -1</clus>
<clus scale="   84.908">  1  5  2 -1</clus>
</clustering>
</event>
<event>
 9    1  0.2674825E-005  0.1113230E+03  0.7546771E-02  0.1261689E+00
         -2   -1    0    0    0  501 -0.00000000000E+00  0.00000000000E+00  0.58627307976E+02  0.58627307976E+02  0.00000000000E+00 0.  1.
          1   -1    0    0  502    0  0.00000000000E+00 -0.00000000000E+00 -0.30252285845E+03  0.30252285845E+03  0.00000000000E+00 0. -1.
         23    2    1    2    0    0  0.52523376346E+02  0.40458455972E+02 -0.40097461937E+02  0.11788820681E+03  0.88849485815E+02 0.  0.
        -24    2    1    2    0    0 -0.68811912710E+02 -0.21324804357E+02 -0.17359355502E+03  0.20397166964E+03  0.79245776294E+02 0.  0.
         13    1    4    4    0    0 -0.47922698727E+02 -0.42597920626E+02 -0.15758771781E+03  0.17013246809E+03  0.00000000000E+00 0. -1.
        -14    1    4    4    0    0 -0.20889213983E+02  0.21273116268E+02 -0.16005837207E+02  0.33839201546E+02  0.00000000000E+00 0.  1.
        -11    1    3    3    0    0 -0.24341321676E+02  0.19360231195E+02 -0.12853837664E+02  0.33653226228E+02  0.00000000000E+00 0. -1.
         11    1    3    3    0    0  0.76864698022E+02  0.21098224777E+02 -0.27243624273E+02  0.84234980586E+02  0.00000000000E+00 0.  1.
         21    1    1    2  502  501  0.16288536364E+02 -0.19133651615E+02 -0.30204533523E+02  0.39290289975E+02  0.00000000000E+00 0. -1.
<scales pt_clust_5="13000.00000" pt_clust_6="13000.00000" pt_clust_7="13000.00000" pt_clust_8="13000.00000" pt_clust_9="25.12793"></scales>
<clustering>
<clus scale="   25.128">  2  9  1 -1</clus>
<clus scale="   79.246">  5  6 -1 -1</clus>
<clus scale="   88.849">  7  8 -1 -1</clus>
<clus scale="  103.819">  2  5  1 -1</clus>
<clus scale="   25.128">  2  5  1 -1</clus>
</clustering>
</event>
<event>
 9    1  0.2674825E-005  0.3315278E+03  0.7546771E-02  0.1070829E+00
         -2   -1    0    0    0  501 -0.00000000000E+00  0.00000000000E+00  0.94795638387E+03  0.94795638387E+03  0.00000000000E+00 0.  1.
          1   -1    0    0  502    0  0.00000000000E+00 -0.00000000000E+00 -0.37474403568E+03  0.37474403568E+03  0.00000000000E+00 0. -1.
         23    2    1    2    0    0 -0.32802145032E+03 -0.19227381508E+03  0.50095480325E+03  0.63575214786E+03  0.93047228711E+02 0.  0.
        -24    2    1    2    0    0  0.14746865889E+03  0.27919662682E+03 -0.17405754770E+03  0.36941715422E+03  0.80468889253E+02 0.  0.
         11    1    4    4    0    0  0.12034961169E+03  0.14281012887E+03 -0.10211588806E+03  0.21285303977E+03  0.00000000000E+00 0. -1.
        -12    1    4    4    0    0  0.27119047202E+02  0.13638649795E+03 -0.71941659636E+02  0.15656411446E+03  0.00000000000E+00 0.  1.
        -11    1    3    3    0    0 -0.23593317562E+03 -0.97157137737E+02  0.37071852904E+03  0.45004022103E+03  0.00000000000E+00 0.  1.
         11    1    3    3    0    0 -0.92088274705E+02 -0.95116677339E+02  0.13023627421E+03  0.18571192683E+03  0.00000000000E+00 0. -1.
         21    1    1    2  502  501  0.18055279143E+03 -0.86922811746E+02  0.24631509265E+03  0.31753111747E+03  0.00000000000E+00 0. -1.
<scales pt_clust_5="13000.00000" pt_clust_6="13000.00000" pt_clust_7="13000.00000" pt_clust_8="13000.00000" pt_clust_9="200.38684"></scales>
<clustering>
<clus scale="   80.469">  5  6 -1 -1</clus>
<clus scale="   93.047">  7  8 -1 -1</clus>
<clus scale="  200.387">  1  9  2 -1</clus>
<clus scale="  328.220">  2  5  1 -1</clus>
<clus scale="  328.220">  2  5  1 -1</clus>
</clustering>
</event>
<event>
 9    1  0.2674825E-005  0.1027556E+03  0.7546771E-02  0.1278908E+00
         -2   -1    0    0    0  501 -0.00000000000E+00  0.00000000000E+00  0.24094121577E+03  0.24094121577E+03  0.00000000000E+00 0.  1.
          1   -1    0    0  502    0  0.00000000000E+00 -0.00000000000E+00 -0.13242560755E+03  0.13242560755E+03  0.00000000000E+00 0. -1.
         23    2    1    2    0    0  0.56820337973E+02  0.55972356663E+01  0.15354559687E+03  0.18700601164E+03  0.90194890185E+02 0.  0.
        -24    2    1    2    0    0 -0.36237077446E+02  0.47063038895E+01  0.40700883591E+02  0.97593610556E+02  0.80824970263E+02 0.  0.
         13    1    4    4    0    0 -0.20000218003E+02 -0.35469144010E+02  0.41978260342E+01  0.40935200505E+02  0.00000000000E+00 0. -1.
        -14    1    4    4    0    0 -0.16236859443E+02  0.40175447899E+02  0.36503057557E+02  0.56658410051E+02  0.00000000000E+00 0.  1.
        -13    1    3    3    0    0  0.23978553269E+02 -0.18460141992E+02  0.14128493427E+03  0.14448937854E+03  0.00000000000E+00 0.  1.
         13    1    3    3    0    0  0.32841784704E+02  0.24057377658E+02  0.12260662599E+02  0.42516633094E+02  0.00000000000E+00 0. -1.
         21    1    1    2  502  501 -0.20583260528E+02 -0.10303539556E+02 -0.85730872236E+02  0.88767201126E+02  0.00000000000E+00 0. -1.
<scales pt_clust_5="13000.00000" pt_clust_6="13000.00000" pt_clust_7="13000.00000" pt_clust_8="13000.00000" pt_clust_9="23.01811"></scales>
<clustering>
<clus scale="   23.018">  2  9  1 -1</clus>
<clus scale="   80.825">  5  6 -1 -1</clus>
<clus scale="   90.195">  7  8 -1 -1</clus>
<clus scale="   94.638">  2  5  1 -1</clus>
<clus scale="   23.018">  2  5  1 -1</clus>
</clustering>
</event>
<event>
 9    1  0.2674825E-005  0.3470520E+03  0.7546771E-02  0.1091364E+00
         -2   -1    0    0    0  501 -0.00000000000E+00  0.00000000000E+00  0.49653652034E+03  0.49653652034E+03  0.00000000000E+00 0.  1.
          1   -1    0    0  502    0  0.00000000000E+00 -0.00000000000E+00 -0.52669228419E+03  0.52669228419E+03  0.00000000000E+00 0. -1.
        -24    2    1    2    0    0  0.84996025118E+02  0.11647625703E+03  0.89912244572E+02  0.18766987353E+03  0.79653794446E+02 0.  0.
         23    2    1    2    0    0 -0.12047386951E+03 -0.42105299977E+03  0.99486776102E+02  0.45842503824E+03  0.91958225408E+02 0.  0.
         11    1    3    3    0    0  0.58332259711E+02  0.11770680383E+03  0.51958851457E+02  0.14127018948E+03  0.00000000000E+00 0. -1.
        -12    1    3    3    0    0  0.26663765406E+02 -0.12305468003E+01  0.37953393116E+02  0.46399684051E+02  0.00000000000E+00 0.  1.
        -11    1    4    4    0    0  0.11580982622E+02 -0.84879548891E+02  0.28920319089E+02  0.90415937946E+02  0.00000000000E+00 0. -1.
         11    1    4    4    0    0 -0.13205485213E+03 -0.33617345088E+03  0.70566457013E+02  0.36800910030E+03  0.00000000000E+00 0.  1.
         21    1    1    2  502  501  0.35477844388E+02  0.30457674274E+03 -0.21955478453E+03  0.37713389276E+03  0.00000000000E+00 0. -1.
<scales pt_clust_5="13000.00000" pt_clust_6="13000.00000" pt_clust_7="13000.00000" pt_clust_8="13000.00000" pt_clust_9="334.64726"></scales>
<clustering>
<clus scale="   79.654">  5  6 -1 -1</clus>
<clus scale="   91.958">  7  8 -1 -1</clus>
<clus scale="  164.729">  1  5  2 -1</clus>
<clus scale="  334.647">  2  9  1 -1</clus>
<clus scale="  334.647">  2  5  1 -1</clus>
</clustering>
</event>
<event>
 9    1  0.2674825E-005  0.2779146E+03  0.7546771E-02  0.1097289E+00
          1   -1    0    0  502    0  0.00000000000E+00  0.00000000000E+00  0.96320886957E+02  0.96320886957E+02  0.00000000000E+00 0. -1.
         -2   -1    0    0    0  501 -0.00000000000E+00 -0.00000000000E+00 -0.92389965520E+03  0.92389965520E+03  0.00000000000E+00 0.  1.
         23    2    1    2    0    0 -0.17240868498E+02  0.26772637436E+03 -0.56750109877E+03  0.63440137901E+03  0.91831114108E+02 0.  0.
        -24    2    1    2    0    0  0.46751489808E+01 -0.25200352517E+03 -0.24207926055E+03  0.35881827395E+03  0.81366772161E+02 0.  0.
         13    1    4    4    0    0 -0.26148442208E+02 -0.26413576073E+02 -0.33541340206E+02  0.50064353922E+02  0.00000000000E+00 0. -1.
        -14    1    4    4    0    0  0.30823591189E+02 -0.22558994910E+03 -0.20853792035E+03  0.30875392003E+03  0.00000000000E+00 0.  1.
        -11    1    3    3    0    0 -0.15156461430E+02  0.19129936370E+03 -0.48668211403E+03  0.52314877903E+03  0.00000000000E+00 0.  1.
         11    1    3    3    0    0 -0.20844070683E+01  0.76427010656E+02 -0.80818984734E+02  0.11125259999E+03  0.00000000000E+00 0. -1.
         21    1    1    2  502  501  0.12565719517E+02 -0.15722849186E+02 -0.17998408923E+02  0.27000889194E+02  0.00000000000E+00 0.  1.
<scales pt_clust_5="13000.00000" pt_clust_6="13000.00000" pt_clust_7="13000.00000" pt_clust_8="13000.00000" pt_clust_9="20.12723"></scales>
<clustering>
<clus scale="   20.127">  1  9  2 -1</clus>
<clus scale="   81.367">  5  6 -1 -1</clus>
<clus scale="   91.831">  7  8 -1 -1</clus>
<clus scale="  274.635">  1  5  2 -1</clus>
<clus scale="   20.127">  1  5  2 -1</clus>
</clustering>
</event>
<event>
 9    1  0.2674825E-005  0.1182762E+03  0.7546771E-02  0.1249985E+00
         -2   -1    0    0    0  501 -0.00000000000E+00  0.00000000000E+00  0.91936397353E+02  0.91936397353E+02  0.00000000000E+00 0.  1.
          1   -1    0    0  502    0  0.00000000000E+00 -0.00000000000E+00 -0.25811078565E+03  0.25811078565E+03  0.00000000000E+00 0. -1.
         23    2    1    2    0    0  0.86226198969E+02 -0.11702015454E+01  0.75062713375E+01  0.12731010951E+03  0.93355198642E+02 0.  0.
        -24    2    1    2    0    0 -0.39915706661E+02  0.93452266856E+01 -0.12813589613E+03  0.15727091264E+03  0.81453883805E+02 0.  0.
         13    1    4    4    0    0 -0.70619841477E+01  0.25596528003E+02 -0.11548104272E+03  0.11849440955E+03  0.00000000000E+00 0. -1.
        -14    1    4    4    0    0 -0.32853722513E+02 -0.16251301317E+02 -0.12654853404E+02  0.38776503093E+02  0.00000000000E+00 0.  1.
        -13    1    3    3    0    0  0.60051836091E+02  0.19422144607E+02  0.44733736539E+02  0.77359872698E+02  0.00000000000E+00 0.  1.
         13    1    3    3    0    0  0.26174362878E+02 -0.20592346153E+02 -0.37227465202E+02  0.49950236811E+02  0.00000000000E+00 0. -1.
         21    1    1    2  502  501 -0.46310492308E+02 -0.81750251402E+01 -0.45544763512E+02  0.65466160856E+02  0.00000000000E+00 0. -1.
<scales pt_clust_5="13000.00000" pt_clust_6="13000.00000" pt_clust_7="13000.00000" pt_clust_8="13000.00000" pt_clust_9="47.02651"></scales>
<clustering>
<clus scale="   47.027">  2  9  1 -1</clus>
<clus scale="   81.454">  5  6 -1 -1</clus>
<clus scale="   93.355">  7  8 -1 -1</clus>
<clus scale="  109.127">  2  5  1 -1</clus>
<clus scale="   47.027">  2  5  1 -1</clus>
</clustering>
</event>
<event>
 9    1  0.2674825E-005  0.1241021E+03  0.7546771E-02  0.1244664E+00
         -2   -1    0    0    0  501 -0.00000000000E+00  0.00000000000E+00  0.59700117610E+02  0.59700117610E+02  0.00000000000E+00 0.  1.
          1   -1    0    0  502    0  0.00000000000E+00 -0.00000000000E+00 -0.78307036649E+03  0.78307036649E+03  0.00000000000E+00 0. -1.
         23    2    1    2    0    0 -0.73387880650E+02 -0.17709469261E+02 -0.26583617126E+02  0.13123509586E+03  0.10400266995E+03 0.  0.
        -24    2    1    2    0    0  0.18107579911E+02  0.37128153666E+01 -0.49576705274E+03  0.50258398452E+03  0.80399138471E+02 0.  0.
         13    1    4    4    0    0  0.40722752048E+02 -0.15940607024E+01 -0.13371871334E+03  0.13979119379E+03  0.00000000000E+00 0. -1.
        -14    1    4    4    0    0 -0.22615172137E+02  0.53068760690E+01 -0.36204833941E+03  0.36279279074E+03  0.00000000000E+00 0.  1.
        -13    1    3    3    0    0 -0.49070887081E+02  0.19198707115E+02 -0.56967208581E+02  0.77600291026E+02  0.00000000000E+00 0. -1.
         13    1    3    3    0    0 -0.24316993569E+02 -0.36908176377E+02  0.30383591454E+02  0.53634804832E+02  0.00000000000E+00 0.  1.
         21    1    1    2  502  501  0.55280300739E+02  0.13996653895E+02 -0.20101957902E+03  0.20895140372E+03  0.00000000000E+00 0. -1.
<scales pt_clust_5="13000.00000" pt_clust_6="13000.00000" pt_clust_7="13000.00000" pt_clust_8="13000.00000" pt_clust_9="57.02471"></scales>
<clustering>
<clus scale="   57.025">  2  9  1 -1</clus>
<clus scale="   80.399">  5  6 -1 -1</clus>
<clus scale="  104.003">  7  8 -1 -1</clus>
<clus scale="  105.113">  2  5  1 -1</clus>
<clus scale="   57.025">  2  5  1 -1</clus>
</clustering>
</event>
<event>
 9    1  0.2674825E-005  0.9612569E+02  0.7546771E-02  0.1297084E+00
          1   -1    0    0  502    0  0.00000000000E+00  0.00000000000E+00  0.97048766819E+02  0.97048766819E+02  0.00000000000E+00 0. -1.
         -2   -1    0    0    0  501 -0.00000000000E+00 -0.00000000000E+00 -0.34963269339E+03  0.34963269339E+03  0.00000000000E+00 0.  1.
         23    2    1    2    0    0 -0.21302094028E+02  0.23631739831E+02 -0.30882399639E+03  0.32372297467E+03  0.91717311575E+02 0.  0.
        -24    2    1    2    0    0 -0.58362065758E+01 -0.74582450909E+01  0.43443085976E+02  0.88872827464E+02  0.76950575146E+02 0.  0.
         13    1    4    4    0    0  0.20796637906E+02 -0.30817778950E+02  0.37765706960E+02  0.52995134397E+02  0.00000000000E+00 0. -1.
        -14    1    4    4    0    0 -0.26632844482E+02  0.23359533859E+02  0.56773790159E+01  0.35877693067E+02  0.00000000000E+00 0.  1.
        -11    1    3    3    0    0  0.31330718686E+02 -0.10592533077E+02 -0.13215167942E+03  0.13622731761E+03  0.00000000000E+00 0.  1.
         11    1    3    3    0    0 -0.52632812713E+02  0.34224272908E+02 -0.17667231697E+03  0.18749565706E+03  0.00000000000E+00 0. -1.
         21    1    1    2  502  501  0.27138300603E+02 -0.16173494740E+02  0.12796983839E+02  0.34085658085E+02  0.00000000000E+00 0. -1.
<scales pt_clust_5="13000.00000" pt_clust_6="13000.00000" pt_clust_7="13000.00000" pt_clust_8="13000.00000" pt_clust_9="31.59223"></scales>
<clustering>
<clus scale="   31.592">  1  9  2 -1</clus>
<clus scale="   76.951">  5  6 -1 -1</clus>
<clus scale="   82.155">  1  5  2 -1</clus>
<clus scale="   91.717">  7  8 -1 -1</clus>
<clus scale="   31.592">  1  5  2 -1</clus>
</clustering>
</event>
<event>
 9    1  0.2674825E-005  0.1170848E+03  0.7546771E-02  0.1249507E+00
          1   -1    0    0  502    0  0.00000000000E+00  0.00000000000E+00  0.28147074730E+03  0.28147074730E+03  0.00000000000E+00 0. -1.
         -2   -1    0    0    0  501 -0.00000000000E+00 -0.00000000000E+00 -0.64275515106E+02  0.64275515106E+02  0.00000000000E+00 0.  1.
         23    2    1    2    0    0 -0.63947546114E+02  0.21105633504E+02  0.51917384441E+02  0.12509083810E+03  0.91747297230E+02 0.  0.
        -24    2    1    2    0    0  0.83173805234E+02 -0.60519675208E+01  0.12646626614E+03  0.17480129945E+03  0.87219663094E+02 0.  0.
         13    1    4    4    0    0  0.67712865723E+02 -0.40819549326E+02  0.10390156814E+03  0.13056340855E+03  0.00000000000E+00 0. -1.
        -14    1    4    4    0    0  0.15460939511E+02  0.34767581805E+02  0.22564698004E+02  0.44237890898E+02  0.00000000000E+00 0.  1.
        -11    1    3    3    0    0 -0.13118033406E+02  0.46727050533E+02  0.73058266892E+00  0.48538992604E+02  0.00000000000E+00 0.  1.
         11    1    3    3    0    0 -0.50829512708E+02 -0.25621417029E+02  0.51186801772E+02  0.76551845493E+02  0.00000000000E+00 0. -1.
         21    1    1    2  502  501 -0.19226259119E+02 -0.15053665983E+02  0.38811581612E+02  0.45854124858E+02  0.00000000000E+00 0.  1.
<scales pt_clust_5="13000.00000" pt_clust_6="13000.00000" pt_clust_7="13000.00000" pt_clust_8="13000.00000" pt_clust_9="24.41847"></scales>
<clustering>
<clus scale="   24.418">  1  9  2 -1</clus>
<clus scale="   87.220">  5  6 -1 -1</clus>
<clus scale="   91.747">  7  8 -1 -1</clus>
<clus scale="  113.572">  1  5  2 -1</clus>
<clus scale="   24.418">  1  5  2 -1</clus>
</clustering>
</event>
<event>
 9    1  0.2674825E-005  0.9828503E+02  0.7546771E-02  0.1290292E+00
          3   -1    0    0  502    0  0.00000000000E+00  0.00000000000E+00  0.11214256319E+03  0.11214256319E+03  0.00000000000E+00 0. -1.
         -4   -1    0    0    0  501 -0.00000000000E+00 -0.00000000000E+00 -0.31491645748E+03  0.31491645748E+03  0.00000000000E+00 0.  1.
        -24    2    1    2    0    0  0.19844168750E+02 -0.34505494349E+02 -0.19975439389E+03  0.21870561479E+03  0.79661206925E+02 0.  0.
         23    2    1    2    0    0  0.43653121479E+02 -0.50645776009E+01  0.53247712945E+02  0.11473879293E+03  0.91642930480E+02 0.  0.
         11    1    3    3    0    0  0.38828392563E+00 -0.39656897069E+02 -0.35511766635E+02  0.53234442038E+02  0.00000000000E+00 0. -1.
        -12    1    3    3    0    0  0.19455884825E+02  0.51514027200E+01 -0.16424262726E+03  0.16547117276E+03  0.00000000000E+00 0.  1.
        -11    1    4    4    0    0  0.51555455552E+02  0.28617533158E+02  0.10746836642E+02  0.59936822564E+02  0.00000000000E+00 0.  1.
         11    1    4    4    0    0 -0.79023340730E+01 -0.33682110759E+02  0.42500876302E+02  0.54801970361E+02  0.00000000000E+00 0. -1.
         21    1    1    2  502  501 -0.63497290230E+02  0.39570071950E+02 -0.56267213346E+02  0.93614612953E+02  0.00000000000E+00 0.  1.
<scales pt_clust_5="13000.00000" pt_clust_6="13000.00000" pt_clust_7="13000.00000" pt_clust_8="13000.00000" pt_clust_9="74.81775"></scales>
<clustering>
<clus scale="   74.818">  2  9  1 -1</clus>
<clus scale="   79.661">  5  6 -1 -1</clus>
<clus scale="   87.221">  2  5  1 -1</clus>
<clus scale="   91.643">  7  8 -1 -1</clus>
<clus scale="   98.285">  1  5  2 -1</clus>
</clustering>
</event>
<event>
 9    1  0.2674825E-005  0.1017287E+03  0.7546771E-02  0.1278026E+00
         -2   -1    0    0    0  501 -0.00000000000E+00  0.00000000000E+00  0.14705030017E+03  0.14705030017E+03  0.00000000000E+00 0.  1.
          1   -1    0    0  502    0  0.00000000000E+00 -0.00000000000E+00 -0.26815446915E+03  0.26815446915E+03  0.00000000000E+00 0. -1.
        -24    2    1    2    0    0 -0.50681888498E+02 -0.26699119488E+02  0.10185628429E+03  0.14327433923E+03  0.82893527054E+02 0.  0.
         23    2    1    2    0    0  0.57157175075E+01  0.44625197387E+02 -0.19013735759E+03  0.21344405209E+03  0.85918979002E+02 0.  0.
         11    1    3    3    0    0 -0.38242001267E+02  0.23095781269E+02  0.26013177574E+02  0.51696723115E+02  0.00000000000E+00 0. -1.
        -12    1    3    3    0    0 -0.12439887231E+02 -0.49794900757E+02  0.75843106720E+02  0.91577616111E+02  0.00000000000E+00 0.  1.
        -13    1    4    4    0    0 -0.30396577391E+02  0.70877604058E+01 -0.13086984016E+03  0.13454034089E+03  0.00000000000E+00 0.  1.
         13    1    4    4    0    0  0.36112294899E+02  0.37537436981E+02 -0.59267517430E+02  0.78903711195E+02  0.00000000000E+00 0. -1.
         21    1    1    2  502  501  0.44966170991E+02 -0.17926077900E+02 -0.32823095679E+02  0.58486378007E+02  0.00000000000E+00 0.  1.
<scales pt_clust_5="13000.00000" pt_clust_6="13000.00000" pt_clust_7="13000.00000" pt_clust_8="13000.00000" pt_clust_9="48.40765"></scales>
<clustering>
<clus scale="   48.408">  2  9  1 -1</clus>
<clus scale="   82.894">  5  6 -1 -1</clus>
<clus scale="   85.919">  7  8 -1 -1</clus>
<clus scale="   99.187">  1  5  2 -1</clus>
<clus scale="   48.408">  2  5  1 -1</clus>
</clustering>
</event>
<event>
 9    1  0.2674825E-005  0.1416593E+03  0.7546771E-02  0.1213339E+00
         -2   -1    0    0    0  501 -0.00000000000E+00  0.00000000000E+00  0.43624474665E+03  0.43624474665E+03  0.00000000000E+00 0.  1.
          1   -1    0    0  502    0  0.00000000000E+00 -0.00000000000E+00 -0.35518286374E+03  0.35518286374E+03  0.00000000000E+00 0. -1.
         23    2    1    2    0    0 -0.65536161784E+02 -0.83891795342E+02  0.39812455257E+03  0.42231501752E+03  0.92271300216E+02 0.  0.
        -24    2    1    2    0    0  0.96604559024E+02  0.92211178094E+02 -0.26892283461E+03  0.31121698720E+03  0.81860735136E+02 0.  0.
         13    1    4    4    0    0  0.70435569171E+02  0.11165972857E+02 -0.11556162991E+03  0.13579520853E+03  0.00000000000E+00 0. -1.
        -14    1    4    4    0    0  0.26168989853E+02  0.81045205237E+02 -0.15336120471E+03  0.17542177867E+03  0.00000000000E+00 0.  1.
        -11    1    3    3    0    0 -0.39293101417E+02 -0.10131132589E+03  0.32533495098E+03  0.34300256982E+03  0.00000000000E+00 0.  1.
         11    1    3    3    0    0 -0.26243060367E+02  0.17419530550E+02  0.72789601588E+02  0.79312447708E+02  0.00000000000E+00 0. -1.
         21    1    1    2  502  501 -0.31068397241E+02 -0.83193827521E+01 -0.48139835052E+02  0.57895605665E+02  0.00000000000E+00 0. -1.
<scales pt_clust_5="13000.00000" pt_clust_6="13000.00000" pt_clust_7="13000.00000" pt_clust_8="13000.00000" pt_clust_9="32.16298"></scales>
<clustering>
<clus scale="   32.163">  2  9  1 -1</clus>
<clus scale="   81.861">  5  6 -1 -1</clus>
<clus scale="   92.271">  7  8 -1 -1</clus>
<clus scale="  135.109">  2  5  1 -1</clus>
<clus scale="   32.163">  2  5  1 -1</clus>
</clustering>
</event>
<event>
 9    1  0.2674825E-005  0.1160410E+03  0.7546771E-02  0.1253213E+00
         -2   -1    0    0    0  501 -0.00000000000E+00  0.00000000000E+00  0.26688963938E+02  0.26688963938E+02  0.00000000000E+00 0.  1.
          1   -1    0    0  502    0  0.00000000000E+00 -0.00000000000E+00 -0.65794329078E+03  0.65794329078E+03  0.00000000000E+00 0. -1.
        -24    2    1    2    0    0 -0.76459647400E+02 -0.21481725250E+02 -0.19438144592E+03  0.22478175958E+03  0.80219391190E+02 0.  0.
         23    2    1    2    0    0  0.64555172762E+02 -0.81705901815E+01 -0.35060348406E+03  0.36785383670E+03  0.90330024198E+02 0.  0.
         11    1    3    3    0    0 -0.41470851795E+02 -0.46363869621E+02 -0.72332693643E+02  0.95401564581E+02  0.00000000000E+00 0. -1.
        -12    1    3    3    0    0 -0.34988795605E+02  0.24882144371E+02 -0.12204875227E+03  0.12938019500E+03  0.00000000000E+00 0.  1.
        -13    1    4    4    0    0  0.30816287732E+02  0.37920045415E+02 -0.10677663037E+03  0.11742581585E+03  0.00000000000E+00 0.  1.
         13    1    4    4    0    0  0.33738885030E+02 -0.46090635596E+02 -0.24382685369E+03  0.25042802086E+03  0.00000000000E+00 0. -1.
         21    1    1    2  502  501  0.11904474638E+02  0.29652315431E+02 -0.86269396875E+02  0.91996658439E+02  0.00000000000E+00 0.  1.
<scales pt_clust_5="13000.00000" pt_clust_6="13000.00000" pt_clust_7="13000.00000" pt_clust_8="13000.00000" pt_clust_9="31.95272"></scales>
<clustering>
<clus scale="   31.953">  2  9  1 -1</clus>
<clus scale="   80.219">  5  6 -1 -1</clus>
<clus scale="   90.330">  7  8 -1 -1</clus>
<clus scale="  108.357">  1  5  2 -1</clus>
<clus scale="   31.953">  2  5  1 -1</clus>
</clustering>
</event>
<event>
 9    1  0.2674825E-005  0.1263640E+03  0.7546771E-02  0.1236612E+00
         -2   -1    0    0    0  501 -0.00000000000E+00  0.00000000000E+00  0.58828131377E+03  0.58828131377E+03  0.00000000000E+00 0.  1.
          1   -1    0    0  502    0  0.00000000000E+00 -0.00000000000E+00 -0.57443514441E+02  0.57443514441E+02  0.00000000000E+00 0. -1.
        -24    2    1    2    0    0 -0.80466459480E+02 -0.56602945789E+02  0.40709769371E+03  0.42700864706E+03  0.83241263014E+02 0.  0.
         23    2    1    2    0    0  0.35757601676E+02  0.37714193589E+02  0.13023616569E+03  0.16974817402E+03  0.95666176119E+02 0.  0.
         11    1    3    3    0    0 -0.50827719152E+02  0.26122305487E+01  0.93086785004E+02  0.10609161289E+03  0.00000000000E+00 0. -1.
        -12    1    3    3    0    0 -0.29638740328E+02 -0.59215176338E+02  0.31401090870E+03  0.32091703417E+03  0.00000000000E+00 0.  1.
        -13    1    4    4    0    0 -0.80912748563E+01  0.27583203345E+02 -0.32038553277E+01  0.28923459761E+02  0.00000000000E+00 0. -1.
         13    1    4    4    0    0  0.43848876532E+02  0.10130990243E+02  0.13344002102E+03  0.14082471426E+03  0.00000000000E+00 0.  1.
         21    1    1    2  502  501  0.44708857804E+02  0.18888752200E+02 -0.64960600709E+01  0.48968007130E+02  0.00000000000E+00 0. -1.
<scales pt_clust_5="13000.00000" pt_clust_6="13000.00000" pt_clust_7="13000.00000" pt_clust_8="13000.00000" pt_clust_9="48.53521"></scales>
<clustering>
<clus scale="   48.535">  2  9  1 -1</clus>
<clus scale="   83.241">  5  6 -1 -1</clus>
<clus scale="   95.666">  7  8 -1 -1</clus>
<clus scale="  117.239">  1  5  2 -1</clus>
<clus scale="   48.535">  2  5  1 -1</clus>
</clustering>
</event>
<event>
 9    1  0.2674825E-005  0.1053115E+03  0.7546771E-02  0.1273392E+00
         -2   -1    0    0    0  501 -0.00000000000E+00  0.00000000000E+00  0.12472465607E+03  0.12472465607E+03  0.00000000000E+00 0.  1.
          1   -1    0    0  502    0  0.00000000000E+00 -0.00000000000E+00 -0.13453027011E+03  0.13453027011E+03  0.00000000000E+00 0. -1.
        -24    2    1    2    0    0 -0.41746898740E+02 -0.13774113107E+02  0.27358772114E+02  0.96108036303E+02  0.80967416188E+02 0.  0.
         23    2    1    2    0    0  0.75931543941E+02  0.40341485050E+01 -0.96818129081E+01  0.11821640234E+03  0.89997258639E+02 0.  0.
         13    1    3    3    0    0 -0.14055114401E+02  0.34049152440E+02  0.12216202858E+02  0.38808847380E+02  0.00000000000E+00 0. -1.
        -14    1    3    3    0    0 -0.27691784339E+02 -0.47823265547E+02  0.15142569256E+02  0.57299188922E+02  0.00000000000E+00 0.  1.
        -11    1    4    4    0    0  0.65717032803E+02 -0.29322121638E+02 -0.29865383130E+02  0.77913133214E+02  0.00000000000E+00 0. -1.
         11    1    4    4    0    0  0.10214511138E+02  0.33356270143E+02  0.20183570222E+02  0.40303269130E+02  0.00000000000E+00 0.  1.
         21    1    1    2  502  501 -0.34184645201E+02  0.97399646023E+01 -0.27482573239E+02  0.44930487531E+02  0.00000000000E+00 0.  1.
<scales pt_clust_5="13000.00000" pt_clust_6="13000.00000" pt_clust_7="13000.00000" pt_clust_8="13000.00000" pt_clust_9="35.54514"></scales>
<clustering>
<clus scale="   35.545">  2  9  1 -1</clus>
<clus scale="   80.967">  5  6 -1 -1</clus>
<clus scale="   89.997">  7  8 -1 -1</clus>
<clus scale="   97.707">  1  5  2 -1</clus>
<clus scale="   35.545">  2  5  1 -1</clus>
</clustering>
</event>
<event>
 9    1  0.2674825E-005  0.1606412E+03  0.7546771E-02  0.1205332E+00
          1   -1    0    0  502    0  0.00000000000E+00  0.00000000000E+00  0.62533884689E+03  0.62533884689E+03  0.00000000000E+00 0. -1.
         -2   -1    0    0    0  501 -0.00000000000E+00 -0.00000000000E+00 -0.81116449591E+02  0.81116449591E+02  0.00000000000E+00 0.  1.
         23    2    1    2    0    0  0.51828867967E+02  0.24806945381E+02  0.41132193839E+02  0.11738901995E+03  0.93737444716E+02 0.  0.
        -24    2    1    2    0    0 -0.53222540542E+02  0.12408521908E+03  0.27261145519E+03  0.31467372494E+03  0.80453509878E+02 0.  0.
         11    1    4    4    0    0 -0.24863778304E+02  0.57232009276E+01  0.10171261940E+03  0.10486381380E+03  0.00000000000E+00 0. -1.
        -12    1    4    4    0    0 -0.28358762238E+02  0.11836201816E+03  0.17089883579E+03  0.20980991114E+03  0.00000000000E+00 0.  1.
        -13    1    3    3    0    0  0.10607861302E+02  0.28982298092E+02 -0.24750662170E+02  0.39561289185E+02  0.00000000000E+00 0.  1.
         13    1    3    3    0    0  0.41221006665E+02 -0.41753527113E+01  0.65882856009E+02  0.77827730769E+02  0.00000000000E+00 0. -1.
         21    1    1    2  502  501  0.13936725754E+01 -0.14889216446E+03  0.23047874827E+03  0.27439255159E+03  0.00000000000E+00 0. -1.
<scales pt_clust_5="13000.00000" pt_clust_6="13000.00000" pt_clust_7="13000.00000" pt_clust_8="13000.00000" pt_clust_9="139.04259"></scales>
<clustering>
<clus scale="   80.454">  5  6 -1 -1</clus>
<clus scale="   93.737">  7  8 -1 -1</clus>
<clus scale="  109.947">  2  7  1 -1</clus>
<clus scale="  139.043">  2  9  1 -1</clus>
<clus scale="  160.641">  1  5  2 -1</clus>
</clustering>
</event>
<event>
 9    1  0.2674825E-005  0.2316209E+03  0.7546771E-02  0.1126117E+00
          1   -1    0    0  502    0  0.00000000000E+00  0.00000000000E+00  0.15613033726E+04  0.15613033726E+04  0.00000000000E+00 0. -1.
         -2   -1    0    0    0  501 -0.00000000000E+00 -0.00000000000E+00 -0.46923131830E+02  0.46923131830E+02  0.00000000000E+00 0.  1.
        -24    2    1    2    0    0 -0.52311343802E+02 -0.20918484388E+03  0.35851685083E+03  0.42622698917E+03  0.81488271372E+02 0.  0.
         23    2    1    2    0    0  0.68352969573E+02  0.19522210613E+03  0.10510093639E+04  0.10750104570E+04  0.90790971751E+02 0.  0.
         11    1    3    3    0    0 -0.26185505728E+02 -0.76516752907E+01  0.43756109344E+02  0.51563804649E+02  0.00000000000E+00 0. -1.
        -12    1    3    3    0    0 -0.26125838073E+02 -0.20153316859E+03  0.31476074149E+03  0.37466318452E+03  0.00000000000E+00 0.  1.
        -13    1    4    4    0    0 -0.20092176662E+02  0.64647551716E+02  0.34880318321E+03  0.35531206301E+03  0.00000000000E+00 0.  1.
         13    1    4    4    0    0  0.88445146234E+02  0.13057455441E+03  0.70220618068E+03  0.71969839401E+03  0.00000000000E+00 0. -1.
         21    1    1    2  502  501 -0.16041625771E+02  0.13962737755E+02  0.10485402604E+03  0.10698905822E+03  0.00000000000E+00 0.  1.
<scales pt_clust_5="13000.00000" pt_clust_6="13000.00000" pt_clust_7="13000.00000" pt_clust_8="13000.00000" pt_clust_9="21.26715"></scales>
<clustering>
<clus scale="   21.267">  1  9  2 -1</clus>
<clus scale="   81.488">  5  6 -1 -1</clus>
<clus scale="   90.791">  7  8 -1 -1</clus>
<clus scale="  228.135">  2  5  1 -1</clus>
<clus scale="   21.267">  1  5  2 -1</clus>
</clustering>
</event>
<event>
 9    1  0.2674825E-005  0.9320914E+02  0.7546771E-02  0.1301131E+00
         -2   -1    0    0    0  501 -0.00000000000E+00  0.00000000000E+00  0.76640788083E+03  0.76640788083E+03  0.00000000000E+00 0.  1.
          1   -1    0    0  502    0  0.00000000000E+00 -0.00000000000E+00 -0.63739106400E+02  0.63739106400E+02  0.00000000000E+00 0. -1.
        -24    2    1    2    0    0 -0.26321729565E+02  0.64427007859E+02  0.50259917045E+03  0.51361931455E+03  0.79719516759E+02 0.  0.
         23    2    1    2    0    0 -0.23139195446E+02  0.30005020636E+01 -0.58228908954E+01  0.94301275412E+02  0.91183326916E+02 0.  0.
         13    1    3    3    0    0 -0.50864344085E+02  0.20072309214E+02  0.23706294407E+03  0.24328772790E+03  0.00000000000E+00 0. -1.
        -14    1    3    3    0    0  0.24542614521E+02  0.44354698645E+02  0.26553622638E+03  0.27033158665E+03  0.00000000000E+00 0.  1.
        -11    1    4    4    0    0 -0.56067558619E+02  0.12943444890E+02  0.61737999444E+01  0.57872443364E+02  0.00000000000E+00 0. -1.
         11    1    4    4    0    0  0.32928363173E+02 -0.99429428262E+01 -0.11996690840E+02  0.36428832049E+02  0.00000000000E+00 0.  1.
         21    1    1    2  502  501  0.49460925010E+02 -0.67427509923E+02  0.20589249488E+03  0.22222639727E+03  0.00000000000E+00 0.  1.
<scales pt_clust_5="13000.00000" pt_clust_6="13000.00000" pt_clust_7="13000.00000" pt_clust_8="13000.00000" pt_clust_9="83.62328"></scales>
<clustering>
<clus scale="   79.720">  5  6 -1 -1</clus>
<clus scale="   83.623">  1  9  2 -1</clus>
<clus scale="   83.623">  1  5  2 -1</clus>
<clus scale="   91.183">  7  8 -1 -1</clus>
<clus scale="   93.209">  2  5  1 -1</clus>
</clustering>
</event>
<event>
 9    1  0.2674825E-005  0.1492128E+03  0.7546771E-02  0.1203444E+00
         -4   -1    0    0    0  501 -0.00000000000E+00  0.00000000000E+00  0.54573970001E+03  0.54573970001E+03  0.00000000000E+00 0.  1.
          3   -1    0    0  502    0  0.00000000000E+00 -0.00000000000E+00 -0.11150200779E+03  0.11150200779E+03  0.00000000000E+00 0. -1.
        -24    2    1    2    0    0 -0.96646679488E+02  0.69389218708E+02  0.46842511552E+03  0.49003937641E+03  0.81000353452E+02 0.  0.
         23    2    1    2    0    0  0.77826595437E+02 -0.76470877624E+02 -0.23537946588E+02  0.14444806122E+03  0.91686604148E+02 0.  0.
         11    1    3    3    0    0 -0.21759916544E+01  0.46070085455E+02  0.17037459515E+03  0.17650691314E+03  0.00000000000E+00 0. -1.
        -12    1    3    3    0    0 -0.94470687834E+02  0.23319133253E+02  0.29805052037E+03  0.31353246328E+03  0.00000000000E+00 0.  1.
        -13    1    4    4    0    0  0.63438584511E+02 -0.96911477975E+02 -0.10630224882E+02  0.11631547726E+03  0.00000000000E+00 0. -1.
         13    1    4    4    0    0  0.14388010925E+02  0.20440600351E+02 -0.12907721707E+02  0.28132583969E+02  0.00000000000E+00 0.  1.
         21    1    1    2  502  501  0.18820084051E+02  0.70816589157E+01 -0.10649476704E+02  0.22754270166E+02  0.00000000000E+00 0. -1.
<scales pt_clust_5="13000.00000" pt_clust_6="13000.00000" pt_clust_7="13000.00000" pt_clust_8="13000.00000" pt_clust_9="20.10834"></scales>
<clustering>
<clus scale="   20.108">  2  9  1 -1</clus>
<clus scale="   81.000">  5  6 -1 -1</clus>
<clus scale="   91.687">  7  8 -1 -1</clus>
<clus scale="  142.895">  1  5  2 -1</clus>
<clus scale="   20.108">  2  5  1 -1</clus>
</clustering>
</event>
<event>
 9    1  0.2674825E-005  0.1289120E+03  0.7546771E-02  0.1235387E+00
         -2   -1    0    0    0  501 -0.00000000000E+00  0.00000000000E+00  0.44802363931E+02  0.44802363931E+02  0.00000000000E+00 0.  1.
          1   -1    0    0  502    0  0.00000000000E+00 -0.00000000000E+00 -0.82407913056E+03  0.82407913056E+03  0.00000000000E+00 0. -1.
         23    2    1    2    0    0  0.20745893946E+02  0.90768536744E+02 -0.11389215079E+03  0.17226264495E+03  0.89630784089E+02 0.  0.
        -24    2    1    2    0    0  0.50437188079E+02 -0.97160242497E+02 -0.33039034448E+03  0.35408557099E+03  0.65075257934E+02 0.  0.
         11    1    4    4    0    0  0.13536455918E+02 -0.82793369815E+02 -0.26147376225E+03  0.27460245096E+03  0.00000000000E+00 0. -1.
        -12    1    4    4    0    0  0.36900732161E+02 -0.14366872682E+02 -0.68916582225E+02  0.79483120033E+02  0.00000000000E+00 0.  1.
        -11    1    3    3    0    0  0.24781786505E+02 -0.10309751556E+01 -0.61901545515E+02  0.66685839496E+02  0.00000000000E+00 0. -1.
         11    1    3    3    0    0 -0.40358925587E+01  0.91799511899E+02 -0.51990605276E+02  0.10557680546E+03  0.00000000000E+00 0.  1.
         21    1    1    2  502  501 -0.71183082025E+02  0.63917057536E+01 -0.33499427136E+03  0.34253327855E+03  0.00000000000E+00 0.  1.
<scales pt_clust_5="13000.00000" pt_clust_6="13000.00000" pt_clust_7="13000.00000" pt_clust_8="13000.00000" pt_clust_9="71.46947"></scales>
<clustering>
<clus scale="   65.075">  5  6 -1 -1</clus>
<clus scale="   71.469">  2  9  1 -1</clus>
<clus scale="   89.631">  7  8 -1 -1</clus>
<clus scale="  113.223">  2  5  1 -1</clus>
<clus scale="   71.469">  2  5  1 -1</clus>
</clustering>
</event>
<event>
 9    1  0.2674825E-005  0.2550410E+03  0.7546771E-02  0.1111040E+00
         -2   -1    0    0    0  501 -0.00000000000E+00  0.00000000000E+00  0.58684830420E+03  0.58684830420E+03  0.00000000000E+00 0.  1.
          1   -1    0    0  502    0  0.00000000000E+00 -0.00000000000E+00 -0.22105449182E+03  0.22105449182E+03  0.00000000000E+00 0. -1.
         23    2    1    2    0    0 -0.22771062098E+03 -0.82355899127E+02  0.46552381479E+03  0.53241478520E+03  0.90102499019E+02 0.  0.
        -24    2    1    2    0    0  0.20807052547E+03  0.70938872601E+02 -0.10133739866E+03  0.25271378044E+03  0.72590076769E+02 0.  0.
         11    1    4    4    0    0  0.17949304090E+03  0.32739322278E+02 -0.91049886343E+02  0.20391100205E+03  0.00000000000E+00 0. -1.
        -12    1    4    4    0    0  0.28577484563E+02  0.38199550323E+02 -0.10287512317E+02  0.48802778389E+02  0.00000000000E+00 0.  1.
        -11    1    3    3    0    0 -0.11120008193E+03 -0.53634407428E+02  0.14658632215E+03  0.19164983100E+03  0.00000000000E+00 0. -1.
         11    1    3    3    0    0 -0.11651053905E+03 -0.28721491699E+02  0.31893749264E+03  0.34076495419E+03  0.00000000000E+00 0.  1.
         21    1    1    2  502  501  0.19640095515E+02  0.11417026527E+02  0.16073962484E+01  0.22774230377E+02  0.00000000000E+00 0. -1.
<scales pt_clust_5="13000.00000" pt_clust_6="13000.00000" pt_clust_7="13000.00000" pt_clust_8="13000.00000" pt_clust_9="22.71743"></scales>
<clustering>
<clus scale="   22.717">  2  9  1 -1</clus>
<clus scale="   72.590">  5  6 -1 -1</clus>
<clus scale="   90.102">  7  8 -1 -1</clus>
<clus scale="  249.393">  2  5  1 -1</clus>
<clus scale="   22.717">  2  5  1 -1</clus>
</clustering>
</event>
<event>
 9    1  0.2674825E-005  0.9280589E+02  0.7546771E-02  0.1303351E+00
         -2   -1    0    0    0  501 -0.00000000000E+00  0.00000000000E+00  0.26562560879E+03  0.26562560879E+03  0.00000000000E+00 0.  1.
          1   -1    0    0  502    0  0.00000000000E+00 -0.00000000000E+00 -0.13274789838E+03  0.13274789838E+03  0.00000000000E+00 0. -1.
         23    2    1    2    0    0 -0.11937207885E+02 -0.11718378211E+02  0.22583367060E+03  0.24424073580E+03  0.91503403923E+02 0.  0.
        -24    2    1    2    0    0  0.18444567020E+02 -0.10793266981E+02 -0.31659126324E+02  0.88509439130E+02  0.79843120373E+02 0.  0.
         11    1    4    4    0    0  0.15666419968E+02  0.32711073003E+02 -0.31149428527E+01  0.36402663097E+02  0.00000000000E+00 0. -1.
        -12    1    4    4    0    0  0.27781470519E+01 -0.43504339984E+02 -0.28544183471E+02  0.52106776033E+02  0.00000000000E+00 0.  1.
        -13    1    3    3    0    0  0.22000696446E+02 -0.40375915552E+02  0.85983711199E+02  0.97506121820E+02  0.00000000000E+00 0.  1.
         13    1    3    3    0    0 -0.33937904330E+02  0.28657537341E+02  0.13984995940E+03  0.14673461398E+03  0.00000000000E+00 0. -1.
         21    1    1    2  502  501 -0.65073591350E+01  0.22511645192E+02 -0.61296833861E+02  0.65623332234E+02  0.00000000000E+00 0. -1.
<scales pt_clust_5="13000.00000" pt_clust_6="13000.00000" pt_clust_7="13000.00000" pt_clust_8="13000.00000" pt_clust_9="23.43331"></scales>
<clustering>
<clus scale="   23.433">  2  9  1 -1</clus>
<clus scale="   79.843">  5  6 -1 -1</clus>
<clus scale="   81.333">  2  5  1 -1</clus>
<clus scale="   91.503">  7  8 -1 -1</clus>
<clus scale="   23.433">  2  5  1 -1</clus>
</clustering>
</event>
<event>
 9    1  0.2674825E-005  0.1394660E+03  0.7546771E-02  0.1216417E+00
          3   -1    0    0  502    0  0.00000000000E+00  0.00000000000E+00  0.17626012971E+03  0.17626012971E+03  0.00000000000E+00 0. -1.
         -4   -1    0    0    0  501 -0.00000000000E+00 -0.00000000000E+00 -0.19971617445E+03  0.19971617445E+03  0.00000000000E+00 0.  1.
         23    2    1    2    0    0  0.11660239044E+03 -0.50831009202E+02 -0.98620630185E+02  0.18529104057E+03  0.91797778113E+02 0.  0.
        -24    2    1    2    0    0 -0.69097509236E+02  0.22782515280E+02  0.16528628475E+02  0.11017683422E+03  0.81069294153E+02 0.  0.
         13    1    4    4    0    0 -0.63802263044E+02  0.12981821392E+02  0.45304117463E+02  0.79320360030E+02  0.00000000000E+00 0. -1.
        -14    1    4    4    0    0 -0.52952461925E+01  0.98006938877E+01 -0.28775488989E+02  0.30856474190E+02  0.00000000000E+00 0.  1.
        -11    1    3    3    0    0  0.48660242507E+01 -0.44424874335E+02 -0.32981478861E+02  0.55543006757E+02  0.00000000000E+00 0.  1.
         11    1    3    3    0    0  0.11173636619E+03 -0.64061348664E+01 -0.65639151324E+02  0.12974803382E+03  0.00000000000E+00 0. -1.
         21    1    1    2  502  501 -0.47504881204E+02  0.28048493922E+02  0.58635956973E+02  0.80508429370E+02  0.00000000000E+00 0. -1.
<scales pt_clust_5="13000.00000" pt_clust_6="13000.00000" pt_clust_7="13000.00000" pt_clust_8="13000.00000" pt_clust_9="55.16731"></scales>
<clustering>
<clus scale="   55.167">  1  9  2 -1</clus>
<clus scale="   81.069">  5  6 -1 -1</clus>
<clus scale="   91.798">  7  8 -1 -1</clus>
<clus scale="  132.651">  1  5  2 -1</clus>
<clus scale="   55.167">  1  5  2 -1</clus>
</clustering>
</event>
<event>
 9    1  0.2674825E-005  0.9872200E+02  0.7546771E-02  0.1290580E+00
         -2   -1    0    0    0  501 -0.00000000000E+00  0.00000000000E+00  0.48532916704E+02  0.48532916704E+02  0.00000000000E+00 0.  1.
          1   -1    0    0  502    0  0.00000000000E+00 -0.00000000000E+00 -0.48492944238E+03  0.48492944238E+03  0.00000000000E+00 0. -1.
         23    2    1    2    0    0 -0.14781611921E+02 -0.38182767936E+02 -0.38724578881E+02  0.10973482193E+03  0.94157943463E+02 0.  0.
        -24    2    1    2    0    0 -0.17318588462E+02  0.11360402066E+02 -0.14027503062E+03  0.16295362237E+03  0.80298235256E+02 0.  0.
         13    1    4    4    0    0  0.25235643783E+02  0.10517049912E+02 -0.10237449918E+03  0.10596218259E+03  0.00000000000E+00 0. -1.
        -14    1    4    4    0    0 -0.42554232245E+02  0.84335215432E+00 -0.37900531442E+02  0.56991439781E+02  0.00000000000E+00 0.  1.
        -13    1    3    3    0    0  0.27092409199E+02 -0.60513762571E+01  0.17342840899E+02  0.32732123690E+02  0.00000000000E+00 0.  1.
         13    1    3    3    0    0 -0.41874021121E+02 -0.32131391679E+02 -0.56067419780E+02  0.77002698244E+02  0.00000000000E+00 0. -1.
         21    1    1    2  502  501  0.32100200383E+02  0.26822365870E+02 -0.25739691617E+03  0.26077391478E+03  0.00000000000E+00 0. -1.
<scales pt_clust_5="13000.00000" pt_clust_6="13000.00000" pt_clust_7="13000.00000" pt_clust_8="13000.00000" pt_clust_9="41.83135"></scales>
<clustering>
<clus scale="   41.831">  2  9  1 -1</clus>
<clus scale="   80.298">  5  6 -1 -1</clus>
<clus scale="   85.604">  2  5  1 -1</clus>
<clus scale="   94.158">  7  8 -1 -1</clus>
<clus scale="   41.831">  2  5  1 -1</clus>
</clustering>
</event>
<event>
 9    1  0.2674825E-005  0.1050391E+03  0.7546771E-02  0.1274827E+00
          1   -1    0    0  502    0  0.00000000000E+00  0.00000000000E+00  0.38390038149E+03  0.38390038149E+03  0.00000000000E+00 0. -1.
         -2   -1    0    0    0  501 -0.00000000000E+00 -0.00000000000E+00 -0.52142980873E+02  0.52142980873E+02  0.00000000000E+00 0.  1.
         23    2    1    2    0    0  0.27339846327E+02  0.39163930487E+02  0.33889695363E+02  0.10837671242E+03  0.91190568012E+02 0.  0.
        -24    2    1    2    0    0 -0.20100615320E+02 -0.67455226776E+02  0.24478128301E+03  0.26707810204E+03  0.80365376366E+02 0.  0.
         11    1    4    4    0    0  0.72794204801E+01 -0.43088882693E+02  0.21627430284E+03  0.22064499959E+03  0.00000000000E+00 0. -1.
        -12    1    4    4    0    0 -0.27380035801E+02 -0.24366344082E+02  0.28506980171E+02  0.46433102447E+02  0.00000000000E+00 0.  1.
        -13    1    3    3    0    0 -0.26286523254E+02 -0.85237897681E+01 -0.28058182888E+01  0.27776049271E+02  0.00000000000E+00 0. -1.
         13    1    3    3    0    0  0.53626369581E+02  0.47687720255E+02  0.36695513652E+02  0.80600663147E+02  0.00000000000E+00 0.  1.
         21    1    1    2  502  501 -0.72392310066E+01  0.28291296289E+02  0.53086422238E+02  0.60588547905E+02  0.00000000000E+00 0.  1.
<scales pt_clust_5="13000.00000" pt_clust_6="13000.00000" pt_clust_7="13000.00000" pt_clust_8="13000.00000" pt_clust_9="29.20281"></scales>
<clustering>
<clus scale="   29.203">  1  9  2 -1</clus>
<clus scale="   80.365">  5  6 -1 -1</clus>
<clus scale="   91.191">  7  8 -1 -1</clus>
<clus scale="   95.792">  1  5  2 -1</clus>
<clus scale="   29.203">  1  5  2 -1</clus>
</clustering>
</event>
<event>
 9    1  0.2674825E-005  0.1291752E+03  0.7546771E-02  0.1231983E+00
          1   -1    0    0  502    0  0.00000000000E+00  0.00000000000E+00  0.57126355970E+03  0.57126355970E+03  0.00000000000E+00 0. -1.
         -2   -1    0    0    0  501 -0.00000000000E+00 -0.00000000000E+00 -0.45554170506E+02  0.45554170506E+02  0.00000000000E+00 0.  1.
        -24    2    1    2    0    0 -0.73353248123E+02 -0.48341383076E+02  0.93828884798E+02  0.15049031391E+03  0.78268043473E+02 0.  0.
         23    2    1    2    0    0  0.10230657789E+03  0.32898842941E+02  0.37677899731E+03  0.40219518233E+03  0.90827210299E+02 0.  0.
         11    1    3    3    0    0 -0.57926695154E+02 -0.59974924529E+02  0.38416311356E+02  0.91805808977E+02  0.00000000000E+00 0. -1.
        -12    1    3    3    0    0 -0.15426552969E+02  0.11633541454E+02  0.55412573442E+02  0.58684504929E+02  0.00000000000E+00 0.  1.
        -11    1    4    4    0    0  0.45884978506E+02 -0.25213684462E+02  0.21486829934E+03  0.22115502978E+03  0.00000000000E+00 0. -1.
         11    1    4    4    0    0  0.56421599386E+02  0.58112527403E+02  0.16191069797E+03  0.18104015255E+03  0.00000000000E+00 0.  1.
         21    1    1    2  502  501 -0.28953329769E+02  0.15442540135E+02  0.55101507091E+02  0.64132233972E+02  0.00000000000E+00 0.  1.
<scales pt_clust_5="13000.00000" pt_clust_6="13000.00000" pt_clust_7="13000.00000" pt_clust_8="13000.00000" pt_clust_9="32.81413"></scales>
<clustering>
<clus scale="   32.814">  1  9  2 -1</clus>
<clus scale="   78.268">  5  6 -1 -1</clus>
<clus scale="   90.827">  7  8 -1 -1</clus>
<clus scale="  120.675">  2  5  1 -1</clus>
<clus scale="   32.814">  1  5  2 -1</clus>
</clustering>
</event>
<event>
 9    1  0.2674825E-005  0.1496887E+03  0.7546771E-02  0.1202701E+00
          3   -1    0    0  502    0  0.00000000000E+00  0.00000000000E+00  0.19064880815E+03  0.19064880815E+03  0.00000000000E+00 0. -1.
         -4   -1    0    0    0  501 -0.00000000000E+00 -0.00000000000E+00 -0.37572700585E+03  0.37572700585E+03  0.00000000000E+00 0.  1.
        -24    2    1    2    0    0  0.88785499431E+02  0.90229297845E+02 -0.30024067336E+03  0.33553356931E+03  0.80088220716E+02 0.  0.
         23    2    1    2    0    0 -0.95464788421E+02 -0.70824558092E+02  0.13578573755E+03  0.20174798826E+03  0.90193350015E+02 0.  0.
         11    1    3    3    0    0  0.78600274877E+02  0.76791861594E+02 -0.15892357372E+03  0.19321411827E+03  0.00000000000E+00 0. -1.
        -12    1    3    3    0    0  0.10185224553E+02  0.13437436251E+02 -0.14131709964E+03  0.14231945104E+03  0.00000000000E+00 0.  1.
        -11    1    4    4    0    0 -0.77771232821E+02 -0.16663983247E+01  0.68527350118E+02  0.10366841010E+03  0.00000000000E+00 0.  1.
         11    1    4    4    0    0 -0.17693555600E+02 -0.69158159767E+02  0.67258387429E+02  0.98079578158E+02  0.00000000000E+00 0. -1.
         21    1    1    2  502  501  0.66792889904E+01 -0.19404739753E+02 -0.20623261891E+02  0.29094256432E+02  0.00000000000E+00 0. -1.
<scales pt_clust_5="13000.00000" pt_clust_6="13000.00000" pt_clust_7="13000.00000" pt_clust_8="13000.00000" pt_clust_9="20.52211"></scales>
<clustering>
<clus scale="   20.522">  2  9  1 -1</clus>
<clus scale="   80.088">  5  6 -1 -1</clus>
<clus scale="   90.193">  7  8 -1 -1</clus>
<clus scale="  143.826">  2  5  1 -1</clus>
<clus scale="  149.689">  1  5  2 -1</clus>
</clustering>
</event>
<event>
 9    1  0.2674825E-005  0.2162597E+03  0.7546771E-02  0.1138118E+00
          1   -1    0    0  502    0  0.00000000000E+00  0.00000000000E+00  0.14610138362E+04  0.14610138362E+04  0.00000000000E+00 0. -1.
         -2   -1    0    0    0  501 -0.00000000000E+00 -0.00000000000E+00 -0.45503339527E+02  0.45503339527E+02  0.00000000000E+00 0.  1.
         23    2    1    2    0    0 -0.10191022187E+03 -0.17766518785E+03  0.36417117672E+03  0.42937768537E+03  0.98964329145E+02 0.  0.
        -24    2    1    2    0    0  0.58664926223E+02  0.15576093601E+03  0.85789263844E+03  0.87771138193E+03  0.81819607160E+02 0.  0.
         13    1    4    4    0    0  0.51439428372E+02  0.13120816634E+03  0.81975933000E+03  0.83178540311E+03  0.00000000000E+00 0. -1.
        -14    1    4    4    0    0  0.72254978513E+01  0.24552769667E+02  0.38133308445E+02  0.45925978819E+02  0.00000000000E+00 0.  1.
        -11    1    3    3    0    0 -0.89497871217E+02 -0.15169023140E+03  0.21730393862E+03  0.27971556445E+03  0.00000000000E+00 0.  1.
         11    1    3    3    0    0 -0.12412350651E+02 -0.25974956455E+02  0.14686723811E+03  0.14966212093E+03  0.00000000000E+00 0. -1.
         21    1    1    2  502  501  0.43245295645E+02  0.21904251849E+02  0.19344668149E+03  0.19942810841E+03  0.00000000000E+00 0. -1.
<scales pt_clust_5="13000.00000" pt_clust_6="13000.00000" pt_clust_7="13000.00000" pt_clust_8="13000.00000" pt_clust_9="48.47630"></scales>
<clustering>
<clus scale="   48.476">  1  9  2 -1</clus>
<clus scale="   81.820">  5  6 -1 -1</clus>
<clus scale="   98.964">  7  8 -1 -1</clus>
<clus scale="  208.971">  1  5  2 -1</clus>
<clus scale="   48.476">  1  5  2 -1</clus>
</clustering>
</event>
<event>
 9    1  0.2674825E-005  0.9880117E+02  0.7546771E-02  0.1288957E+00
          1   -1    0    0  502    0  0.00000000000E+00  0.00000000000E+00  0.25529331137E+03  0.25529331137E+03  0.00000000000E+00 0. -1.
         -2   -1    0    0    0  501 -0.00000000000E+00 -0.00000000000E+00 -0.18013501996E+03  0.18013501996E+03  0.00000000000E+00 0.  1.
         23    2    1    2    0    0 -0.15529982021E+02 -0.34092993732E+02 -0.13743574364E+03  0.16886661044E+03  0.90685367761E+02 0.  0.
        -24    2    1    2    0    0 -0.31911659344E+01  0.54073645322E+02  0.63094069153E+02  0.11457505167E+03  0.78819022103E+02 0.  0.
         13    1    4    4    0    0  0.20288175356E+02  0.66179323422E+02  0.45999871275E+02  0.83110174258E+02  0.00000000000E+00 0. -1.
        -14    1    4    4    0    0 -0.23479341291E+02 -0.12105678100E+02  0.17094197878E+02  0.31464877416E+02  0.00000000000E+00 0.  1.
        -13    1    3    3    0    0 -0.38386988338E+02 -0.53993302537E+02 -0.10746269619E+03  0.12624210338E+03  0.00000000000E+00 0.  1.
         13    1    3    3    0    0  0.22857006317E+02  0.19900308805E+02 -0.29973047450E+02  0.42624507056E+02  0.00000000000E+00 0. -1.
         21    1    1    2  502  501  0.18721147956E+02 -0.19980651591E+02  0.14949996589E+03  0.15198666922E+03  0.00000000000E+00 0. -1.
<scales pt_clust_5="13000.00000" pt_clust_6="13000.00000" pt_clust_7="13000.00000" pt_clust_8="13000.00000" pt_clust_9="27.38079"></scales>
<clustering>
<clus scale="   27.381">  1  9  2 -1</clus>
<clus scale="   78.819">  5  6 -1 -1</clus>
<clus scale="   88.036">  1  5  2 -1</clus>
<clus scale="   90.685">  7  8 -1 -1</clus>
<clus scale="   27.381">  1  5  2 -1</clus>
</clustering>
</event>
<event>
 9    1  0.2674825E-005  0.1082240E+03  0.7546771E-02  0.1269068E+00
          1   -1    0    0  502    0  0.00000000000E+00  0.00000000000E+00  0.50976399971E+03  0.50976399971E+03  0.00000000000E+00 0. -1.
         -2   -1    0    0    0  501 -0.00000000000E+00 -0.00000000000E+00 -0.72402194178E+02  0.72402194178E+02  0.00000000000E+00 0.  1.
        -24    2    1    2    0    0 -0.19934015153E+02 -0.56855379948E+02 -0.25388669025E+02  0.10263937954E+03  0.79122427469E+02 0.  0.
         23    2    1    2    0    0  0.11288240920E+02  0.32830159768E+02  0.32574148220E+03  0.34015886751E+03  0.91625859621E+02 0.  0.
         13    1    3    3    0    0 -0.20406369158E+01 -0.26817601527E+02  0.27997674499E+02  0.38822902107E+02  0.00000000000E+00 0. -1.
        -14    1    3    3    0    0 -0.17893378237E+02 -0.30037778421E+02 -0.53386343524E+02  0.63816477434E+02  0.00000000000E+00 0.  1.
        -13    1    4    4    0    0 -0.33488083544E+02 -0.10661096700E+02  0.10266758573E+03  0.10851609964E+03  0.00000000000E+00 0.  1.
         13    1    4    4    0    0  0.44776324464E+02  0.43491256468E+02  0.22307389647E+03  0.23164276787E+03  0.00000000000E+00 0. -1.
         21    1    1    2  502  501  0.86457742327E+01  0.24025220180E+02  0.13700899236E+03  0.13936794683E+03  0.00000000000E+00 0. -1.
<scales pt_clust_5="13000.00000" pt_clust_6="13000.00000" pt_clust_7="13000.00000" pt_clust_8="13000.00000" pt_clust_9="25.53352"></scales>
<clustering>
<clus scale="   25.534">  1  9  2 -1</clus>
<clus scale="   79.122">  5  6 -1 -1</clus>
<clus scale="   91.626">  7  8 -1 -1</clus>
<clus scale="   97.865">  2  5  1 -1</clus>
<clus scale="   25.534">  1  5  2 -1</clus>
</clustering>
</event>
<event>
 9    1  0.2674825E-005  0.1195159E+03  0.7546771E-02  0.1251714E+00
          3   -1    0    0  502    0  0.00000000000E+00  0.00000000000E+00  0.10464851268E+03  0.10464851268E+03  0.00000000000E+00 0. -1.
         -4   -1    0    0    0  501 -0.00000000000E+00 -0.00000000000E+00 -0.33532843973E+03  0.33532843973E+03  0.00000000000E+00 0.  1.
         23    2    1    2    0    0 -0.50176554066E+02  0.14123697439E+02 -0.12842886399E+03  0.16556263807E+03  0.90553015474E+02 0.  0.
        -24    2    1    2    0    0 -0.55075318939E+02 -0.15964970036E+02  0.28951847963E+02  0.10620149997E+03  0.84571733283E+02 0.  0.
         11    1    4    4    0    0  0.16627180689E+02 -0.24879528470E+02  0.83557651261E+01  0.31068841069E+02  0.00000000000E+00 0. -1.
        -12    1    4    4    0    0 -0.71702499629E+02  0.89145584338E+01  0.20596082837E+02  0.75132658899E+02  0.00000000000E+00 0.  1.
        -13    1    3    3    0    0 -0.64262933841E+02 -0.15256794785E+02 -0.10950756897E+03  0.12788433100E+03  0.00000000000E+00 0.  1.
         13    1    3    3    0    0  0.14086379774E+02  0.29380492224E+02 -0.18921295015E+02  0.37678307068E+02  0.00000000000E+00 0. -1.
         21    1    1    2  502  501  0.10525187301E+03  0.18412725966E+01 -0.13120291103E+03  0.16821281437E+03  0.00000000000E+00 0. -1.
<scales pt_clust_5="13000.00000" pt_clust_6="13000.00000" pt_clust_7="13000.00000" pt_clust_8="13000.00000" pt_clust_9="78.00130"></scales>
<clustering>
<clus scale="   84.572">  5  6 -1 -1</clus>
<clus scale="   90.553">  7  8 -1 -1</clus>
<clus scale="  102.179">  1  5  2 -1</clus>
<clus scale="   78.001">  1  9  2 -1</clus>
<clus scale="  102.179">  1  5  2 -1</clus>
</clustering>
</event>
<event>
 9    1  0.2674825E-005  0.1143309E+03  0.7546771E-02  0.1255020E+00
          1   -1    0    0  502    0  0.00000000000E+00  0.00000000000E+00  0.43016043722E+03  0.43016043722E+03  0.00000000000E+00 0. -1.
         -2   -1    0    0    0  501 -0.00000000000E+00 -0.00000000000E+00 -0.55574611008E+02  0.55574611008E+02  0.00000000000E+00 0.  1.
        -24    2    1    2    0    0 -0.70996858322E+02  0.24285147255E+01  0.32395857511E+02  0.11435723821E+03  0.83556177344E+02 0.  0.
         23    2    1    2    0    0  0.66093080502E+02 -0.30402443879E+02  0.26755827099E+03  0.29152495751E+03  0.90037595451E+02 0.  0.
         13    1    3    3    0    0 -0.33134754529E+02  0.29961515319E+02  0.47461487708E+02  0.65178195536E+02  0.00000000000E+00 0. -1.
        -14    1    3    3    0    0 -0.37862103793E+02 -0.27533000594E+02 -0.15065630197E+02  0.49179042677E+02  0.00000000000E+00 0.  1.
        -13    1    4    4    0    0  0.67638352963E+02  0.15836858343E+02  0.15774840857E+03  0.17236679866E+03  0.00000000000E+00 0. -1.
         13    1    4    4    0    0 -0.15452724615E+01 -0.46239302222E+02  0.10980986242E+03  0.11915815885E+03  0.00000000000E+00 0.  1.
         21    1    1    2  502  501  0.49037778204E+01  0.27973929153E+02  0.74631697713E+02  0.79852852502E+02  0.00000000000E+00 0. -1.
<scales pt_clust_5="13000.00000" pt_clust_6="13000.00000" pt_clust_7="13000.00000" pt_clust_8="13000.00000" pt_clust_9="28.40049"></scales>
<clustering>
<clus scale="   28.400">  1  9  2 -1</clus>
<clus scale="   83.556">  5  6 -1 -1</clus>
<clus scale="   90.038">  7  8 -1 -1</clus>
<clus scale="  109.300">  2  5  1 -1</clus>
<clus scale="   28.400">  1  5  2 -1</clus>
</clustering>
</event>
<event>
 9    1  0.3391261E-005  0.2610082E+03  0.7546771E-02  0.1107164E+00
         -2   -1    0    0    0  501 -0.00000000000E+00  0.00000000000E+00  0.66487941757E+03  0.66487941757E+03  0.00000000000E+00 0.  1.
          1   -1    0    0  502    0  0.00000000000E+00 -0.00000000000E+00 -0.64570657971E+03  0.64570657971E+03  0.00000000000E+00 0. -1.
         23    2    1    2    0    0  0.24227000118E+03 -0.55914247175E+02  0.59751769155E+03  0.65373018984E+03  0.92274659994E+02 0.  0.
        -24    2    1    2    0    0 -0.14877731146E+03  0.10014304564E+03 -0.45726777611E+03  0.49761784601E+03  0.79789620918E+02 0.  0.
         11    1    4    4    0    0 -0.12938450707E+03  0.61428029286E+02 -0.40593529598E+03  0.43046163357E+03  0.00000000000E+00 0. -1.
        -12    1    4    4    0    0 -0.19392804396E+02  0.38715016356E+02 -0.51332480127E+02  0.67156212444E+02  0.00000000000E+00 0.  1.
        -13    1    3    3    0    0  0.24123081093E+03 -0.34641224174E+02  0.55610912620E+03  0.60716528129E+03  0.00000000000E+00 0.  1.
         13    1    3    3    0    0  0.10391902509E+01 -0.21273023001E+02  0.41408565353E+02  0.46564908553E+02  0.00000000000E+00 0. -1.
         21    1    1    2  502  501 -0.93492689719E+02 -0.44228798467E+02 -0.12107707758E+03  0.15923796143E+03  0.00000000000E+00 0. -1.
<scales pt_clust_5="13000.00000" pt_clust_6="13000.00000" pt_clust_7="13000.00000" pt_clust_8="13000.00000" pt_clust_9="103.42664"></scales>
<clustering>
<clus scale="   79.790">  5  6 -1 -1</clus>
<clus scale="   92.275">  7  8 -1 -1</clus>
<clus scale="  103.427">  2  9  1 -1</clus>
<clus scale="  256.860">  2  5  1 -1</clus>
<clus scale="  103.427">  2  5  1 -1</clus>
</clustering>
</event>
<event>
 9    1  0.2674825E-005  0.1143057E+03  0.7546771E-02  0.1255812E+00
         -2   -1    0    0    0  501 -0.00000000000E+00  0.00000000000E+00  0.20191405623E+03  0.20191405623E+03  0.00000000000E+00 0.  1.
          1   -1    0    0  502    0  0.00000000000E+00 -0.00000000000E+00 -0.11742086719E+03  0.11742086719E+03  0.00000000000E+00 0. -1.
         23    2    1    2    0    0 -0.60245251048E+02  0.50605904838E+02  0.12995646109E+03  0.17620823546E+03  0.89276047113E+02 0.  0.
        -24    2    1    2    0    0  0.41181952929E+02 -0.56905148631E+02 -0.55736345872E+02  0.12057395302E+03  0.80606381314E+02 0.  0.
         13    1    4    4    0    0  0.49432193515E+02 -0.70795553241E+02 -0.58343693636E+02  0.10420911045E+03  0.00000000000E+00 0. -1.
        -14    1    4    4    0    0 -0.82502405852E+01  0.13890404610E+02  0.26073477642E+01  0.16364842569E+02  0.00000000000E+00 0.  1.
        -13    1    3    3    0    0 -0.47115120440E+02  0.76248773152E+02  0.10536270021E+03  0.13832934821E+03  0.00000000000E+00 0.  1.
         13    1    3    3    0    0 -0.13130130608E+02 -0.25642868315E+02  0.24593760876E+02  0.37878887249E+02  0.00000000000E+00 0. -1.
         21    1    1    2  502  501  0.19063298118E+02  0.62992437936E+01  0.10273073826E+02  0.22552734942E+02  0.00000000000E+00 0.  1.
<scales pt_clust_5="13000.00000" pt_clust_6="13000.00000" pt_clust_7="13000.00000" pt_clust_8="13000.00000" pt_clust_9="20.07710"></scales>
<clustering>
<clus scale="   20.077">  1  9  2 -1</clus>
<clus scale="   80.606">  5  6 -1 -1</clus>
<clus scale="   89.276">  7  8 -1 -1</clus>
<clus scale="  107.671">  2  5  1 -1</clus>
<clus scale="  107.671">  2  5  1 -1</clus>
</clustering>
</event>
<event>
 9    1  0.2674825E-005  0.1011592E+03  0.7546771E-02  0.1283493E+00
         -2   -1    0    0    0  501 -0.00000000000E+00  0.00000000000E+00  0.42402388261E+02  0.42402388261E+02  0.00000000000E+00 0.  1.
          1   -1    0    0  502    0  0.00000000000E+00 -0.00000000000E+00 -0.39509134746E+03  0.39509134746E+03  0.00000000000E+00 0. -1.
        -24    2    1    2    0    0  0.40614591286E+02  0.77245188644E+01 -0.38398720348E+02  0.10011452908E+03  0.82699721833E+02 0.  0.
         23    2    1    2    0    0 -0.22555706390E+02 -0.17335941294E+02 -0.21952955175E+03  0.24043545706E+03  0.93843967120E+02 0.  0.
         13    1    3    3    0    0  0.29117456724E+01 -0.28324612926E+02 -0.38581032229E+02  0.47950578809E+02  0.00000000000E+00 0. -1.
        -14    1    3    3    0    0  0.37702845613E+02  0.36049131790E+02  0.18231188105E+00  0.52163950270E+02  0.00000000000E+00 0.  1.
        -13    1    4    4    0    0 -0.45166520959E+02 -0.33288365108E+02 -0.77169979205E+02  0.95411401612E+02  0.00000000000E+00 0. -1.
         13    1    4    4    0    0  0.22610814568E+02  0.15952423813E+02 -0.14235957255E+03  0.14502405544E+03  0.00000000000E+00 0.  1.
         21    1    1    2  502  501 -0.18058884895E+02  0.96114224300E+01 -0.94760687097E+02  0.96943749587E+02  0.00000000000E+00 0.  1.
<scales pt_clust_5="13000.00000" pt_clust_6="13000.00000" pt_clust_7="13000.00000" pt_clust_8="13000.00000" pt_clust_9="20.45734"></scales>
<clustering>
<clus scale="   20.457">  2  9  1 -1</clus>
<clus scale="   82.700">  5  6 -1 -1</clus>
<clus scale="   90.916">  1  5  2 -1</clus>
<clus scale="   93.844">  7  8 -1 -1</clus>
<clus scale="   20.457">  2  5  1 -1</clus>
</clustering>
</event>
<event>
 9    1  0.2674825E-005  0.1702883E+03  0.7546771E-02  0.1179108E+00
          1   -1    0    0  502    0  0.00000000000E+00  0.00000000000E+00  0.85045643447E+03  0.85045643447E+03  0.00000000000E+00 0. -1.
         -2   -1    0    0    0  501 -0.00000000000E+00 -0.00000000000E+00 -0.15548066554E+03  0.15548066554E+03  0.00000000000E+00 0.  1.
         23    2    1    2    0    0  0.76489665756E+02  0.12407791151E+03 -0.91295795069E+02  0.19449181919E+03  0.90808306032E+02 0.  0.
        -24    2    1    2    0    0 -0.29021246912E+02 -0.12749401415E+03  0.58979822670E+03  0.60929016014E+03  0.79218650665E+02 0.  0.
         11    1    4    4    0    0 -0.25334253794E+02 -0.12634204249E+03  0.59127622641E+03  0.60515428779E+03  0.00000000000E+00 0. -1.
        -12    1    4    4    0    0 -0.36869931182E+01 -0.11519716582E+01 -0.14779997106E+01  0.41358723505E+01  0.00000000000E+00 0.  1.
        -11    1    3    3    0    0  0.94637275684E+02  0.10723368558E+03 -0.91397486384E+02  0.16973148733E+03  0.00000000000E+00 0.  1.
         11    1    3    3    0    0 -0.18147609928E+02  0.16844225923E+02  0.10169131502E+00  0.24760331867E+02  0.00000000000E+00 0. -1.
         21    1    1    2  502  501 -0.47468418844E+02  0.34161026383E+01  0.19647333730E+03  0.20215512068E+03  0.00000000000E+00 0. -1.
<scales pt_clust_5="13000.00000" pt_clust_6="13000.00000" pt_clust_7="13000.00000" pt_clust_8="13000.00000" pt_clust_9="47.59118"></scales>
<clustering>
<clus scale="   47.591">  1  9  2 -1</clus>
<clus scale="   79.219">  5  6 -1 -1</clus>
<clus scale="   90.808">  7  8 -1 -1</clus>
<clus scale="  164.401">  1  5  2 -1</clus>
<clus scale="   47.591">  1  5  2 -1</clus>
</clustering>
</event>
<event>
 9    1  0.2674825E-005  0.1064298E+03  0.7546771E-02  0.1272796E+00
          1   -1    0    0  502    0  0.00000000000E+00  0.00000000000E+00  0.88408028664E+02  0.88408028664E+02  0.00000000000E+00 0. -1.
         -2   -1    0    0    0  501 -0.00000000000E+00 -0.00000000000E+00 -0.28715044471E+03  0.28715044471E+03  0.00000000000E+00 0.  1.
        -24    2    1    2    0    0  0.55357685153E+02 -0.11359878747E+02 -0.18046248754E+03  0.20564831077E+03  0.80814591269E+02 0.  0.
         23    2    1    2    0    0 -0.14968758361E+02  0.55114889489E+02 -0.97830767065E+01  0.10976065834E+03  0.93220055566E+02 0.  0.
         13    1    3    3    0    0 -0.15905522603E+02 -0.20902110658E+02 -0.39986256785E+02  0.47841243827E+02  0.00000000000E+00 0. -1.
        -14    1    3    3    0    0  0.71263207755E+02  0.95422319116E+01 -0.14047623076E+03  0.15780706694E+03  0.00000000000E+00 0.  1.
        -11    1    4    4    0    0 -0.42304323764E+02  0.32593220454E+02  0.26014142914E+02  0.59402941511E+02  0.00000000000E+00 0. -1.
         11    1    4    4    0    0  0.27335565402E+02  0.22521669034E+02 -0.35797219620E+02  0.50357716831E+02  0.00000000000E+00 0.  1.
         21    1    1    2  502  501 -0.40388926791E+02 -0.43755010742E+02 -0.84968517966E+01  0.60149504261E+02  0.00000000000E+00 0. -1.
<scales pt_clust_5="13000.00000" pt_clust_6="13000.00000" pt_clust_7="13000.00000" pt_clust_8="13000.00000" pt_clust_9="59.54634"></scales>
<clustering>
<clus scale="   59.546">  1  9  2 -1</clus>
<clus scale="   80.815">  5  6 -1 -1</clus>
<clus scale="   93.220">  7  8 -1 -1</clus>
<clus scale="   95.751">  2  5  1 -1</clus>
<clus scale="   59.546">  1  5  2 -1</clus>
</clustering>
</event>
<event>
 9    1  0.2674825E-005  0.1321964E+03  0.7546771E-02  0.1227868E+00
          1   -1    0    0  502    0  0.00000000000E+00  0.00000000000E+00  0.92680684993E+03  0.92680684993E+03  0.00000000000E+00 0. -1.
         -2   -1    0    0    0  501 -0.00000000000E+00 -0.00000000000E+00 -0.69223748183E+02  0.69223748183E+02  0.00000000000E+00 0.  1.
         23    2    1    2    0    0  0.12517128129E+02  0.95140921068E+02  0.69329015121E+01  0.13454295783E+03  0.94049290373E+02 0.  0.
        -24    2    1    2    0    0 -0.54783888939E+01 -0.62767844184E+02  0.68872289077E+03  0.69620602150E+03  0.79961172423E+02 0.  0.
         11    1    4    4    0    0  0.23771754923E+02 -0.10368067680E+02  0.71238653242E+02  0.75812524528E+02  0.00000000000E+00 0. -1.
        -12    1    4    4    0    0 -0.29250143817E+02 -0.52399776504E+02  0.61748423753E+03  0.62039349697E+03  0.00000000000E+00 0.  1.
        -11    1    3    3    0    0  0.51453623701E+02  0.59630804030E+02 -0.95259278918E+01  0.79335058350E+02  0.00000000000E+00 0.  1.
         11    1    3    3    0    0 -0.38936495572E+02  0.35510117038E+02  0.16458829404E+02  0.55207899479E+02  0.00000000000E+00 0. -1.
         21    1    1    2  502  501 -0.70387392353E+01 -0.32373076884E+02  0.16192730947E+03  0.16528161879E+03  0.00000000000E+00 0. -1.
<scales pt_clust_5="13000.00000" pt_clust_6="13000.00000" pt_clust_7="13000.00000" pt_clust_8="13000.00000" pt_clust_9="33.12944"></scales>
<clustering>
<clus scale="   33.129">  1  9  2 -1</clus>
<clus scale="   79.961">  5  6 -1 -1</clus>
<clus scale="   94.049">  7  8 -1 -1</clus>
<clus scale="  122.574">  1  5  2 -1</clus>
<clus scale="   33.129">  1  5  2 -1</clus>
</clustering>
</event>
<event>
 9    1  0.2674825E-005  0.9895612E+02  0.7546771E-02  0.1290154E+00
          3   -1    0    0  502    0  0.00000000000E+00  0.00000000000E+00  0.16710313231E+03  0.16710313231E+03  0.00000000000E+00 0. -1.
         -4   -1    0    0    0  501 -0.00000000000E+00 -0.00000000000E+00 -0.26433574536E+03  0.26433574536E+03  0.00000000000E+00 0.  1.
         23    2    1    2    0    0 -0.20296568609E+01  0.24361647702E+02 -0.22846038728E+03  0.24882279174E+03  0.95504050949E+02 0.  0.
        -24    2    1    2    0    0 -0.17931828528E+02 -0.39979174691E+02  0.69365132833E+02  0.11576285529E+03  0.81667815743E+02 0.  0.
         11    1    4    4    0    0 -0.13554098062E+01 -0.60648477898E+02  0.28414848415E+02  0.66988645437E+02  0.00000000000E+00 0. -1.
        -12    1    4    4    0    0 -0.16576418722E+02  0.20669303206E+02  0.40950284419E+02  0.48774209852E+02  0.00000000000E+00 0.  1.
        -13    1    3    3    0    0  0.26456548811E+02 -0.26763641331E+02 -0.11741541398E+03  0.12329890880E+03  0.00000000000E+00 0.  1.
         13    1    3    3    0    0 -0.28486205672E+02  0.51125289033E+02 -0.11104497330E+03  0.12552388294E+03  0.00000000000E+00 0. -1.
         21    1    1    2  502  501  0.19961485389E+02  0.15617526990E+02  0.61862641387E+02  0.66853230645E+02  0.00000000000E+00 0.  1.
<scales pt_clust_5="13000.00000" pt_clust_6="13000.00000" pt_clust_7="13000.00000" pt_clust_8="13000.00000" pt_clust_9="25.34498"></scales>
<clustering>
<clus scale="   25.345">  1  9  2 -1</clus>
<clus scale="   81.668">  5  6 -1 -1</clus>
<clus scale="   85.679">  1  5  2 -1</clus>
<clus scale="   95.504">  7  8 -1 -1</clus>
<clus scale="   25.345">  1  5  2 -1</clus>
</clustering>
</event>
<event>
 9    1  0.2674825E-005  0.9360524E+02  0.7546771E-02  0.1301745E+00
          1   -1    0    0  502    0  0.00000000000E+00  0.00000000000E+00  0.22371865944E+03  0.22371865944E+03  0.00000000000E+00 0. -1.
         -2   -1    0    0    0  501 -0.00000000000E+00 -0.00000000000E+00 -0.11240324155E+03  0.11240324155E+03  0.00000000000E+00 0.  1.
        -24    2    1    2    0    0 -0.59846428678E+01  0.11956890873E+02 -0.60080872279E+02  0.10094664765E+03  0.80010819700E+02 0.  0.
         23    2    1    2    0    0 -0.26848847334E+02 -0.48244721130E+02  0.14204066186E+03  0.17810864650E+03  0.92188538419E+02 0.  0.
         13    1    3    3    0    0  0.19872637860E+02 -0.12120304792E+02  0.76936790553E+01  0.24515632180E+02  0.00000000000E+00 0. -1.
        -14    1    3    3    0    0 -0.25857280728E+02  0.24077195665E+02 -0.67774551334E+02  0.76431015473E+02  0.00000000000E+00 0.  1.
        -11    1    4    4    0    0  0.33708630808E+02 -0.20770636621E+02  0.39765322828E+02  0.56115702225E+02  0.00000000000E+00 0.  1.
         11    1    4    4    0    0 -0.60557478141E+02 -0.27474084509E+02  0.10227533903E+03  0.12199294427E+03  0.00000000000E+00 0. -1.
         21    1    1    2  502  501  0.32833490201E+02  0.36287830257E+02  0.29355628311E+02  0.57066606847E+02  0.00000000000E+00 0. -1.
<scales pt_clust_5="13000.00000" pt_clust_6="13000.00000" pt_clust_7="13000.00000" pt_clust_8="13000.00000" pt_clust_9="48.93715"></scales>
<clustering>
<clus scale="   48.937">  1  9  2 -1</clus>
<clus scale="   80.011">  5  6 -1 -1</clus>
<clus scale="   81.639">  2  5  1 -1</clus>
<clus scale="   92.189">  7  8 -1 -1</clus>
<clus scale="   48.937">  1  5  2 -1</clus>
</clustering>
</event>
<event>
 9    1  0.2674825E-005  0.1211482E+03  0.7546771E-02  0.1244965E+00
         -2   -1    0    0    0  501 -0.00000000000E+00  0.00000000000E+00  0.63011461648E+02  0.63011461648E+02  0.00000000000E+00 0.  1.
          1   -1    0    0  502    0  0.00000000000E+00 -0.00000000000E+00 -0.52499281672E+03  0.52499281672E+03  0.00000000000E+00 0. -1.
        -24    2    1    2    0    0  0.61973766272E+02 -0.44353364017E+02 -0.15416824621E+02  0.11195128774E+03  0.80544669216E+02 0.  0.
         23    2    1    2    0    0 -0.58509427108E+02  0.74122402042E+02 -0.39358107429E+03  0.41518063321E+03  0.92473848254E+02 0.  0.
         13    1    3    3    0    0  0.73925167201E+01 -0.50460239392E+02 -0.23998203927E+02  0.56363098342E+02  0.00000000000E+00 0. -1.
        -14    1    3    3    0    0  0.54581249551E+02  0.61068753752E+01  0.85813793061E+01  0.55588189395E+02  0.00000000000E+00 0.  1.
        -11    1    4    4    0    0 -0.64237563222E+00  0.34495803665E+02 -0.32660086623E+02  0.47508466352E+02  0.00000000000E+00 0.  1.
         11    1    4    4    0    0 -0.57867051476E+02  0.39626598377E+02 -0.36092098767E+03  0.36767216686E+03  0.00000000000E+00 0. -1.
         21    1    1    2  502  501 -0.34643391632E+01 -0.29769038024E+02 -0.52983456161E+02  0.60872357417E+02  0.00000000000E+00 0.  1.
<scales pt_clust_5="13000.00000" pt_clust_6="13000.00000" pt_clust_7="13000.00000" pt_clust_8="13000.00000" pt_clust_9="29.96994"></scales>
<clustering>
<clus scale="   29.970">  2  9  1 -1</clus>
<clus scale="   80.545">  5  6 -1 -1</clus>
<clus scale="   92.474">  7  8 -1 -1</clus>
<clus scale="  112.307">  1  5  2 -1</clus>
<clus scale="   29.970">  2  5  1 -1</clus>
</clustering>
</event>
<event>
 9    1  0.2674825E-005  0.1132084E+03  0.7546771E-02  0.1257885E+00
          1   -1    0    0  502    0  0.00000000000E+00  0.00000000000E+00  0.81962014049E+03  0.81962014049E+03  0.00000000000E+00 0. -1.
         -2   -1    0    0    0  501 -0.00000000000E+00 -0.00000000000E+00 -0.35709027662E+02  0.35709027662E+02  0.00000000000E+00 0.  1.
         23    2    1    2    0    0 -0.49215303443E+02 -0.53723551066E+01  0.66519329603E+02  0.12250881440E+03  0.90180818931E+02 0.  0.
        -24    2    1    2    0    0  0.68907925085E+02  0.18788084941E+02  0.67934260321E+03  0.68792579668E+03  0.81450812970E+02 0.  0.
         11    1    4    4    0    0 -0.78047111266E+01 -0.20274074176E+02  0.11173826003E+03  0.11383053349E+03  0.00000000000E+00 0. -1.
        -12    1    4    4    0    0  0.76712636212E+02  0.39062159118E+02  0.56760434318E+03  0.57409526320E+03  0.00000000000E+00 0.  1.
        -11    1    3    3    0    0  0.18215314674E+02  0.16103724394E+02  0.40248382264E+02  0.47021908754E+02  0.00000000000E+00 0.  1.
         11    1    3    3    0    0 -0.67430618116E+02 -0.21476079501E+02  0.26270947340E+02  0.75486905649E+02  0.00000000000E+00 0. -1.
         21    1    1    2  502  501 -0.19692621643E+02 -0.13415729835E+02  0.38049180013E+02  0.44894557062E+02  0.00000000000E+00 0. -1.
<scales pt_clust_5="13000.00000" pt_clust_6="13000.00000" pt_clust_7="13000.00000" pt_clust_8="13000.00000" pt_clust_9="23.82816"></scales>
<clustering>
<clus scale="   23.828">  2  9  1 -1</clus>
<clus scale="   81.451">  5  6 -1 -1</clus>
<clus scale="   90.181">  7  8 -1 -1</clus>
<clus scale="  106.385">  1  5  2 -1</clus>
<clus scale="  106.385">  1  5  2 -1</clus>
</clustering>
</event>
<event>
 9    1  0.2674825E-005  0.1456743E+03  0.7546771E-02  0.1208978E+00
          1   -1    0    0  502    0  0.00000000000E+00  0.00000000000E+00  0.12633986302E+03  0.12633986302E+03  0.00000000000E+00 0. -1.
         -2   -1    0    0    0  501 -0.00000000000E+00 -0.00000000000E+00 -0.44565588341E+03  0.44565588341E+03  0.00000000000E+00 0.  1.
        -24    2    1    2    0    0  0.71223622662E+02 -0.11579330135E+03 -0.22145794540E+03  0.27191131539E+03  0.80070274099E+02 0.  0.
         23    2    1    2    0    0 -0.11077890325E+03 -0.10772415349E+02 -0.78394130127E+02  0.16606075396E+03  0.95092187010E+02 0.  0.
         11    1    3    3    0    0  0.11486635832E+02 -0.89463719041E+02 -0.15076276263E+03  0.17568469035E+03  0.00000000000E+00 0. -1.
        -12    1    3    3    0    0  0.59736986830E+02 -0.26329582310E+02 -0.70695182772E+02  0.96226625044E+02  0.00000000000E+00 0.  1.
        -11    1    4    4    0    0 -0.41034064130E+02 -0.10613841283E+02 -0.86024846675E+02  0.95899542706E+02  0.00000000000E+00 0.  1.
         11    1    4    4    0    0 -0.69744839125E+02 -0.15857406557E+00  0.76307165477E+01  0.70161211259E+02  0.00000000000E+00 0. -1.
         21    1    1    2  502  501  0.39555280592E+02  0.12656571670E+03 -0.19463944870E+02  0.13402367707E+03  0.00000000000E+00 0.  1.
<scales pt_clust_5="13000.00000" pt_clust_6="13000.00000" pt_clust_7="13000.00000" pt_clust_8="13000.00000" pt_clust_9="132.60279"></scales>
<clustering>
<clus scale="   80.070">  5  6 -1 -1</clus>
<clus scale="   95.092">  7  8 -1 -1</clus>
<clus scale="  132.603">  1  9  2 -1</clus>
<clus scale="  136.344">  2  5  1 -1</clus>
<clus scale="  132.603">  1  5  2 -1</clus>
</clustering>
</event>
<event>
 9    1  0.2674825E-005  0.1301505E+03  0.7546771E-02  0.1243256E+00
          1   -1    0    0  502    0  0.00000000000E+00  0.00000000000E+00  0.66171934496E+03  0.66171934496E+03  0.00000000000E+00 0. -1.
         -2   -1    0    0    0  501 -0.00000000000E+00 -0.00000000000E+00 -0.11708999419E+03  0.11708999419E+03  0.00000000000E+00 0.  1.
        -24    2    1    2    0    0 -0.42480418192E+02  0.22170947703E+02 -0.39750423759E+02  0.10183267065E+03  0.80583247455E+02 0.  0.
         23    2    1    2    0    0 -0.37569349283E+02  0.28935608919E+02  0.22266716050E+02  0.10689690573E+03  0.93179484552E+02 0.  0.
         13    1    3    3    0    0 -0.55893712290E+02  0.18134375575E+01 -0.50349266522E+02  0.75249214405E+02  0.00000000000E+00 0. -1.
        -14    1    3    3    0    0  0.13413294098E+02  0.20357510146E+02  0.10598842763E+02  0.26583456243E+02  0.00000000000E+00 0.  1.
        -11    1    4    4    0    0 -0.26183161354E+02 -0.14039206766E+02  0.47314495294E+02  0.55868763455E+02  0.00000000000E+00 0. -1.
         11    1    4    4    0    0 -0.11386187929E+02  0.42974815684E+02 -0.25047779244E+02  0.51028142272E+02  0.00000000000E+00 0.  1.
         21    1    1    2  502  501  0.80049767475E+02 -0.51106556622E+02  0.56211305848E+03  0.57007976277E+03  0.00000000000E+00 0. -1.
<scales pt_clust_5="13000.00000" pt_clust_6="13000.00000" pt_clust_7="13000.00000" pt_clust_8="13000.00000" pt_clust_9="90.86654"></scales>
<clustering>
<clus scale="   80.583">  5  6 -1 -1</clus>
<clus scale="   93.179">  7  8 -1 -1</clus>
<clus scale="   93.754">  2  5  1 -1</clus>
<clus scale="   90.867">  1  9  2 -1</clus>
<clus scale="   90.867">  1  5  2 -1</clus>
</clustering>
</event>
<event>
 9    1  0.2674825E-005  0.1045677E+03  0.7546771E-02  0.1278422E+00
          1   -1    0    0  502    0  0.00000000000E+00  0.00000000000E+00  0.17083450179E+03  0.17083450179E+03  0.00000000000E+00 0. -1.
         -2   -1    0    0    0  501 -0.00000000000E+00 -0.00000000000E+00 -0.23840315426E+03  0.23840315426E+03  0.00000000000E+00 0.  1.
         23    2    1    2    0    0  0.30912474593E+02 -0.36929943354E+02 -0.18605831171E+03  0.21272730447E+03  0.91191057166E+02 0.  0.
        -24    2    1    2    0    0 -0.49927282667E+02  0.65997055877E+02  0.11712254166E+03  0.16174932503E+03  0.74811826905E+02 0.  0.
         13    1    4    4    0    0 -0.36568946655E+02  0.81259461133E+02  0.10647168804E+03  0.13884022558E+03  0.00000000000E+00 0. -1.
        -14    1    4    4    0    0 -0.13358336012E+02 -0.15262405256E+02  0.10650853617E+02  0.22909099458E+02  0.00000000000E+00 0.  1.
        -11    1    3    3    0    0 -0.10400508623E+02 -0.39893265426E+02 -0.29270670767E+02  0.50561006448E+02  0.00000000000E+00 0. -1.
         11    1    3    3    0    0  0.41312983215E+02  0.29633220719E+01 -0.15678764094E+03  0.16216629802E+03  0.00000000000E+00 0.  1.
         21    1    1    2  502  501  0.19014808074E+02 -0.29067112523E+02  0.13671175839E+01  0.34761026553E+02  0.00000000000E+00 0.  1.
<scales pt_clust_5="13000.00000" pt_clust_6="13000.00000" pt_clust_7="13000.00000" pt_clust_8="13000.00000" pt_clust_9="34.73413"></scales>
<clustering>
<clus scale="   34.734">  1  9  2 -1</clus>
<clus scale="   74.812">  5  6 -1 -1</clus>
<clus scale="   90.639">  1  5  2 -1</clus>
<clus scale="   91.191">  7  8 -1 -1</clus>
<clus scale="   34.734">  1  5  2 -1</clus>
</clustering>
</event>
<event>
 9    1  0.2674825E-005  0.9937611E+02  0.7546771E-02  0.1297387E+00
          1   -1    0    0  502    0  0.00000000000E+00  0.00000000000E+00  0.65795060337E+02  0.65795060337E+02  0.00000000000E+00 0. -1.
         -2   -1    0    0    0  501 -0.00000000000E+00 -0.00000000000E+00 -0.41912798538E+03  0.41912798538E+03  0.00000000000E+00 0.  1.
        -24    2    1    2    0    0  0.18756541499E+02 -0.26853943480E+02 -0.25615329243E+03  0.26610082912E+03  0.64204360458E+02 0.  0.
         23    2    1    2    0    0 -0.42673821468E+02  0.31525834697E+02 -0.13614608703E+03  0.17286302364E+03  0.92363058832E+02 0.  0.
         13    1    3    3    0    0  0.31836785783E+02 -0.43778839722E+01 -0.58514123528E+02  0.66758141446E+02  0.00000000000E+00 0. -1.
        -14    1    3    3    0    0 -0.13080244284E+02 -0.22476059508E+02 -0.19763916891E+03  0.19934268767E+03  0.00000000000E+00 0.  1.
        -13    1    4    4    0    0 -0.65560306488E+02  0.18960810631E+02 -0.55094836520E+02  0.87710359352E+02  0.00000000000E+00 0. -1.
         13    1    4    4    0    0  0.22886485020E+02  0.12565024066E+02 -0.81051250506E+02  0.85152664286E+02  0.00000000000E+00 0.  1.
         21    1    1    2  502  501  0.23917279969E+02 -0.46718912173E+01  0.38966454413E+02  0.45959192967E+02  0.00000000000E+00 0. -1.
<scales pt_clust_5="13000.00000" pt_clust_6="13000.00000" pt_clust_7="13000.00000" pt_clust_8="13000.00000" pt_clust_9="24.36930"></scales>
<clustering>
<clus scale="   24.369">  1  9  2 -1</clus>
<clus scale="   64.204">  5  6 -1 -1</clus>
<clus scale="   73.938">  2  5  1 -1</clus>
<clus scale="   92.363">  7  8 -1 -1</clus>
<clus scale="   24.369">  1  5  2 -1</clus>
</clustering>
</event>
<event>
 9    1  0.2674825E-005  0.9885106E+02  0.7546771E-02  0.1288465E+00
         -4   -1    0    0    0  501 -0.00000000000E+00  0.00000000000E+00  0.55212464591E+02  0.55212464591E+02  0.00000000000E+00 0.  1.
          3   -1    0    0  502    0  0.00000000000E+00 -0.00000000000E+00 -0.72246698022E+03  0.72246698022E+03  0.00000000000E+00 0. -1.
        -24    2    1    2    0    0 -0.35059427327E+02 -0.23163267051E+02  0.12622608511E+01  0.90959702128E+02  0.80662095955E+02 0.  0.
         23    2    1    2    0    0  0.14977752818E+02 -0.26229614845E+02 -0.32315864949E+03  0.33726993754E+03  0.91690633416E+02 0.  0.
         11    1    3    3    0    0  0.82452287027E+00 -0.25715495519E+02 -0.32617118790E+02  0.41543266433E+02  0.00000000000E+00 0. -1.
        -12    1    3    3    0    0 -0.35883950198E+02  0.25522284685E+01  0.33879379641E+02  0.49416435695E+02  0.00000000000E+00 0.  1.
        -11    1    4    4    0    0  0.48768643514E+02 -0.17122743973E+02 -0.25976935121E+03  0.26486163327E+03  0.00000000000E+00 0. -1.
         11    1    4    4    0    0 -0.33790890696E+02 -0.91068708724E+01 -0.63389298278E+02  0.72408304270E+02  0.00000000000E+00 0.  1.
         21    1    1    2  502  501  0.20081674510E+02  0.49392881896E+02 -0.34535812699E+03  0.34944980514E+03  0.00000000000E+00 0. -1.
<scales pt_clust_5="13000.00000" pt_clust_6="13000.00000" pt_clust_7="13000.00000" pt_clust_8="13000.00000" pt_clust_9="53.31914"></scales>
<clustering>
<clus scale="   53.319">  2  9  1 -1</clus>
<clus scale="   80.662">  5  6 -1 -1</clus>
<clus scale="   88.717">  1  5  2 -1</clus>
<clus scale="   91.691">  7  8 -1 -1</clus>
<clus scale="   53.319">  2  5  1 -1</clus>
</clustering>
</event>
<event>
 9    1  0.2674825E-005  0.1455122E+03  0.7546771E-02  0.1207780E+00
         -2   -1    0    0    0  501 -0.00000000000E+00  0.00000000000E+00  0.73374952661E+02  0.73374952661E+02  0.00000000000E+00 0.  1.
          1   -1    0    0  502    0  0.00000000000E+00 -0.00000000000E+00 -0.10010632996E+04  0.10010632996E+04  0.00000000000E+00 0. -1.
         23    2    1    2    0    0 -0.11270185683E+03 -0.90856072910E+01 -0.17295813665E+02  0.14466829558E+03  0.88574904931E+02 0.  0.
        -24    2    1    2    0    0  0.13929080709E+03  0.10164435033E+02 -0.81564754080E+03  0.83135883056E+03  0.79820734481E+02 0.  0.
         11    1    4    4    0    0  0.62376108153E+02  0.40426529195E+02 -0.29663886500E+03  0.30580990723E+03  0.00000000000E+00 0. -1.
        -12    1    4    4    0    0  0.76914698939E+02 -0.30262094162E+02 -0.51900867580E+03  0.52554892333E+03  0.00000000000E+00 0.  1.
        -11    1    3    3    0    0 -0.62561041211E+02  0.20641871263E+02  0.27263383338E+02  0.71297004128E+02  0.00000000000E+00 0.  1.
         11    1    3    3    0    0 -0.50140815620E+02 -0.29727478554E+02 -0.44559197003E+02  0.73371291454E+02  0.00000000000E+00 0. -1.
         21    1    1    2  502  501 -0.26588950262E+02 -0.10788277423E+01 -0.94744992442E+02  0.98411126090E+02  0.00000000000E+00 0. -1.
<scales pt_clust_5="13000.00000" pt_clust_6="13000.00000" pt_clust_7="13000.00000" pt_clust_8="13000.00000" pt_clust_9="26.61083"></scales>
<clustering>
<clus scale="   26.611">  2  9  1 -1</clus>
<clus scale="   79.821">  5  6 -1 -1</clus>
<clus scale="   88.575">  7  8 -1 -1</clus>
<clus scale="  140.355">  2  5  1 -1</clus>
<clus scale="   26.611">  2  5  1 -1</clus>
</clustering>
</event>
<event>
 9    1  0.2674825E-005  0.2866772E+03  0.7546771E-02  0.1092615E+00
          1   -1    0    0  502    0  0.00000000000E+00  0.00000000000E+00  0.80164554647E+03  0.80164554647E+03  0.00000000000E+00 0. -1.
         -2   -1    0    0    0  501 -0.00000000000E+00 -0.00000000000E+00 -0.13002708564E+03  0.13002708564E+03  0.00000000000E+00 0.  1.
        -24    2    1    2    0    0  0.17997203152E+03  0.18277499214E+03  0.13492807525E+03  0.30047090465E+03  0.79249915878E+02 0.  0.
         23    2    1    2    0    0 -0.20365298470E+03 -0.18979223794E+03  0.52983719244E+03  0.60556980327E+03  0.92150444247E+02 0.  0.
         13    1    3    3    0    0  0.15161253290E+03  0.18132569287E+03  0.10324354936E+03  0.25792362728E+03  0.00000000000E+00 0. -1.
        -14    1    3    3    0    0  0.28359498618E+02  0.14492992762E+01  0.31684525888E+02  0.42547277364E+02  0.00000000000E+00 0.  1.
        -11    1    4    4    0    0 -0.21587576930E+02 -0.20525559524E+02  0.14059875864E+03  0.14371963332E+03  0.00000000000E+00 0. -1.
         11    1    4    4    0    0 -0.18206540777E+03 -0.16926667842E+03  0.38923843380E+03  0.46185016994E+03  0.00000000000E+00 0.  1.
         21    1    1    2  502  501  0.23680953182E+02  0.70172457967E+01  0.68531931384E+01  0.25631924203E+02  0.00000000000E+00 0.  1.
<scales pt_clust_5="13000.00000" pt_clust_6="13000.00000" pt_clust_7="13000.00000" pt_clust_8="13000.00000" pt_clust_9="24.69877"></scales>
<clustering>
<clus scale="   24.699">  2  9  1 -1</clus>
<clus scale="   79.250">  5  6 -1 -1</clus>
<clus scale="   92.150">  7  8 -1 -1</clus>
<clus scale="  282.794">  2  5  1 -1</clus>
<clus scale="  286.677">  1  5  2 -1</clus>
</clustering>
</event>
<event>
 9    1  0.2674825E-005  0.9961694E+02  0.7546771E-02  0.1284669E+00
         -2   -1    0    0    0  501 -0.00000000000E+00  0.00000000000E+00  0.50167935890E+02  0.50167935890E+02  0.00000000000E+00 0.  1.
          1   -1    0    0  502    0  0.00000000000E+00 -0.00000000000E+00 -0.24109661925E+03  0.24109661925E+03  0.00000000000E+00 0. -1.
        -24    2    1    2    0    0  0.30947942666E+02 -0.30679985715E+02 -0.60012297859E+02  0.10998257528E+03  0.81213633666E+02 0.  0.
         23    2    1    2    0    0 -0.48138433691E+02  0.16919149147E+02 -0.97598465193E+02  0.14134506187E+03  0.88596837981E+02 0.  0.
         13    1    3    3    0    0  0.23131225432E+02  0.23724113224E+02 -0.75130378564E+01  0.33975474626E+02  0.00000000000E+00 0. -1.
        -14    1    3    3    0    0  0.78167172347E+01 -0.54404098939E+02 -0.52499260003E+02  0.76007100659E+02  0.00000000000E+00 0.  1.
        -13    1    4    4    0    0  0.26818556287E+01  0.38624717200E+02 -0.14078094076E+02  0.41197740972E+02  0.00000000000E+00 0. -1.
         13    1    4    4    0    0 -0.50820289319E+02 -0.21705568053E+02 -0.83520371117E+02  0.10014732090E+03  0.00000000000E+00 0.  1.
         21    1    1    2  502  501  0.17190491024E+02  0.13760836568E+02 -0.33317920308E+02  0.39936917988E+02  0.00000000000E+00 0.  1.
<scales pt_clust_5="13000.00000" pt_clust_6="13000.00000" pt_clust_7="13000.00000" pt_clust_8="13000.00000" pt_clust_9="22.01985"></scales>
<clustering>
<clus scale="   22.020">  2  9  1 -1</clus>
<clus scale="   81.214">  5  6 -1 -1</clus>
<clus scale="   88.597">  7  8 -1 -1</clus>
<clus scale="   93.112">  1  5  2 -1</clus>
<clus scale="   22.020">  2  5  1 -1</clus>
</clustering>
</event>
<event>
 9    1  0.2674825E-005  0.1476978E+03  0.7546771E-02  0.1205672E+00
         -2   -1    0    0    0  501 -0.00000000000E+00  0.00000000000E+00  0.38210158404E+02  0.38210158404E+02  0.00000000000E+00 0.  1.
          1   -1    0    0  502    0  0.00000000000E+00 -0.00000000000E+00 -0.82843994890E+03  0.82843994890E+03  0.00000000000E+00 0. -1.
        -24    2    1    2    0    0 -0.58871340234E+02  0.75796211391E+02 -0.23441801004E+03  0.26588748751E+03  0.80829773100E+02 0.  0.
         23    2    1    2    0    0  0.79798237388E+02 -0.11783262519E+03 -0.34249183829E+03  0.38233553166E+03  0.92884407838E+02 0.  0.
         13    1    3    3    0    0 -0.46507657697E+02  0.39326161873E+02 -0.21359612260E+03  0.22210991158E+03  0.00000000000E+00 0. -1.
        -14    1    3    3    0    0 -0.12363682536E+02  0.36470049519E+02 -0.20821887447E+02  0.43777575933E+02  0.00000000000E+00 0.  1.
        -13    1    4    4    0    0 -0.91793051112E+01 -0.66255348364E+02 -0.14427047039E+03  0.15902200934E+03  0.00000000000E+00 0.  1.
         13    1    4    4    0    0  0.88977542499E+02 -0.51577276827E+02 -0.19822136791E+03  0.22331352232E+03  0.00000000000E+00 0. -1.
         21    1    1    2  502  501 -0.20926897155E+02  0.42036413800E+02 -0.21331994216E+03  0.21842708814E+03  0.00000000000E+00 0. -1.
<scales pt_clust_5="13000.00000" pt_clust_6="13000.00000" pt_clust_7="13000.00000" pt_clust_8="13000.00000" pt_clust_9="46.95738"></scales>
<clustering>
<clus scale="   46.957">  2  9  1 -1</clus>
<clus scale="   80.830">  5  6 -1 -1</clus>
<clus scale="   92.884">  7  8 -1 -1</clus>
<clus scale="  140.430">  1  5  2 -1</clus>
<clus scale="   46.957">  2  5  1 -1</clus>
</clustering>
</event>
<event>
 9    1  0.2674825E-005  0.9968023E+02  0.7546771E-02  0.1287326E+00
          1   -1    0    0  502    0  0.00000000000E+00  0.00000000000E+00  0.26579797427E+03  0.26579797427E+03  0.00000000000E+00 0. -1.
         -2   -1    0    0    0  501 -0.00000000000E+00 -0.00000000000E+00 -0.94555371822E+02  0.94555371822E+02  0.00000000000E+00 0.  1.
         23    2    1    2    0    0 -0.78472588338E+01  0.40893858356E+02 -0.35525881698E+02  0.10789041554E+03  0.92975084692E+02 0.  0.
        -24    2    1    2    0    0 -0.25503913305E+02 -0.22800383873E+02  0.75189648140E+02  0.11552256182E+03  0.80756869702E+02 0.  0.
         11    1    4    4    0    0 -0.44004668043E+01 -0.43312530090E+02  0.10993457250E+02  0.44902065355E+02  0.00000000000E+00 0. -1.
        -12    1    4    4    0    0 -0.21103446501E+02  0.20512146217E+02  0.64196190890E+02  0.70620496468E+02  0.00000000000E+00 0.  1.
        -11    1    3    3    0    0  0.31303788193E+02  0.33331743622E+02  0.10578775673E+02  0.46934451982E+02  0.00000000000E+00 0. -1.
         11    1    3    3    0    0 -0.39151047027E+02  0.75621147337E+01 -0.46104657370E+02  0.60955963562E+02  0.00000000000E+00 0.  1.
         21    1    1    2  502  501  0.33351172139E+02 -0.18093474483E+02  0.13157883600E+03  0.13694036872E+03  0.00000000000E+00 0. -1.
<scales pt_clust_5="13000.00000" pt_clust_6="13000.00000" pt_clust_7="13000.00000" pt_clust_8="13000.00000" pt_clust_9="37.94304"></scales>
<clustering>
<clus scale="   37.943">  1  9  2 -1</clus>
<clus scale="   80.757">  5  6 -1 -1</clus>
<clus scale="   88.394">  1  5  2 -1</clus>
<clus scale="   92.975">  7  8 -1 -1</clus>
<clus scale="   37.943">  1  5  2 -1</clus>
</clustering>
</event>
<event>
 9    1  0.2674825E-005  0.1297404E+03  0.7546771E-02  0.1229774E+00
         -2   -1    0    0    0  501 -0.00000000000E+00  0.00000000000E+00  0.30738087822E+03  0.30738087822E+03  0.00000000000E+00 0.  1.
          1   -1    0    0  502    0  0.00000000000E+00 -0.00000000000E+00 -0.26157874381E+03  0.26157874381E+03  0.00000000000E+00 0. -1.
        -24    2    1    2    0    0  0.50228839412E+02  0.74751171707E+02  0.21373722321E+03  0.25021330184E+03  0.93874500529E+02 0.  0.
         23    2    1    2    0    0 -0.24691986479E+02 -0.88116391969E+02  0.20844086264E+02  0.12777947252E+03  0.86711734710E+02 0.  0.
         11    1    3    3    0    0 -0.25845616987E+02  0.10682697138E+02  0.70381384417E+02  0.75734108617E+02  0.00000000000E+00 0. -1.
        -12    1    3    3    0    0  0.76074456400E+02  0.64068474569E+02  0.14335583879E+03  0.17447919322E+03  0.00000000000E+00 0.  1.
        -13    1    4    4    0    0 -0.63067057568E+01 -0.66631219382E+02  0.52697498509E+02  0.85185211644E+02  0.00000000000E+00 0.  1.
         13    1    4    4    0    0 -0.18385280722E+02 -0.21485172588E+02 -0.31853412244E+02  0.42594260880E+02  0.00000000000E+00 0. -1.
         21    1    1    2  502  501 -0.25536852934E+02  0.13365220262E+02 -0.18877917506E+03  0.19096684766E+03  0.00000000000E+00 0. -1.
<scales pt_clust_5="13000.00000" pt_clust_6="13000.00000" pt_clust_7="13000.00000" pt_clust_8="13000.00000" pt_clust_9="28.82291"></scales>
<clustering>
<clus scale="   28.823">  2  9  1 -1</clus>
<clus scale="   86.712">  7  8 -1 -1</clus>
<clus scale="   93.875">  5  6 -1 -1</clus>
<clus scale="  124.656">  2  7  1 -1</clus>
<clus scale="   28.823">  2  5  1 -1</clus>
</clustering>
</event>
<event>
 9    1  0.2674825E-005  0.1251123E+03  0.7546771E-02  0.1256448E+00
         -2   -1    0    0    0  501 -0.00000000000E+00  0.00000000000E+00  0.17326426816E+03  0.17326426816E+03  0.00000000000E+00 0.  1.
          1   -1    0    0  502    0  0.00000000000E+00 -0.00000000000E+00 -0.40384351422E+03  0.40384351422E+03  0.00000000000E+00 0. -1.
         23    2    1    2    0    0  0.26913534551E+02  0.82873066384E+02  0.11000522789E+03  0.16624931812E+03  0.89136985243E+02 0.  0.
        -24    2    1    2    0    0  0.68752213592E+01  0.43870742621E-01 -0.30315707213E+03  0.31381358342E+03  0.80792847229E+02 0.  0.
         11    1    4    4    0    0 -0.13493273999E+02  0.32552081111E+02 -0.21207211090E+03  0.21497973544E+03  0.00000000000E+00 0. -1.
        -12    1    4    4    0    0  0.20368495359E+02 -0.32508210368E+02 -0.91084961229E+02  0.98833847980E+02  0.00000000000E+00 0.  1.
        -13    1    3    3    0    0  0.48136115805E+02  0.89603777259E+02  0.96508958014E+02  0.14021377080E+03  0.00000000000E+00 0.  1.
         13    1    3    3    0    0 -0.21222581253E+02 -0.67307108747E+01  0.13496269881E+02  0.26035547327E+02  0.00000000000E+00 0. -1.
         21    1    1    2  502  501 -0.33788755911E+02 -0.82916937127E+02 -0.37427401827E+02  0.97044880834E+02  0.00000000000E+00 0. -1.
<scales pt_clust_5="13000.00000" pt_clust_6="13000.00000" pt_clust_7="13000.00000" pt_clust_8="13000.00000" pt_clust_9="87.79338"></scales>
<clustering>
<clus scale="   80.793">  5  6 -1 -1</clus>
<clus scale="   81.085">  2  5  1 -1</clus>
<clus scale="   87.793">  2  9  1 -1</clus>
<clus scale="   89.137">  7  8 -1 -1</clus>
<clus scale="   81.085">  2  5  1 -1</clus>
</clustering>
</event>
<event>
 9    1  0.2674825E-005  0.9468007E+02  0.7546771E-02  0.1298110E+00
         -2   -1    0    0    0  501 -0.00000000000E+00  0.00000000000E+00  0.45145084067E+02  0.45145084067E+02  0.00000000000E+00 0.  1.
          1   -1    0    0  502    0  0.00000000000E+00 -0.00000000000E+00 -0.35780068983E+03  0.35780068983E+03  0.00000000000E+00 0. -1.
         23    2    1    2    0    0 -0.17351984412E+02  0.22804795075E+02 -0.30624393059E+02  0.10051470099E+03  0.91346601596E+02 0.  0.
        -24    2    1    2    0    0 -0.79060625295E+01 -0.18718772510E+02 -0.22707434922E+03  0.24180994326E+03  0.80600188072E+02 0.  0.
         13    1    4    4    0    0 -0.39329653129E+02  0.80806794580E+01 -0.13612159921E+03  0.14191972649E+03  0.00000000000E+00 0. -1.
        -14    1    4    4    0    0  0.31423590600E+02 -0.26799451968E+02 -0.90952750005E+02  0.99890216765E+02  0.00000000000E+00 0.  1.
        -11    1    3    3    0    0  0.10240404710E+02  0.53126446297E+02 -0.23117364240E+02  0.58836193913E+02  0.00000000000E+00 0.  1.
         11    1    3    3    0    0 -0.27592389122E+02 -0.30321651222E+02 -0.75070288190E+01  0.41678507075E+02  0.00000000000E+00 0. -1.
         21    1    1    2  502  501  0.25258046941E+02 -0.40860225646E+01 -0.54956863486E+02  0.60621129649E+02  0.00000000000E+00 0.  1.
<scales pt_clust_5="13000.00000" pt_clust_6="13000.00000" pt_clust_7="13000.00000" pt_clust_8="13000.00000" pt_clust_9="25.58641"></scales>
<clustering>
<clus scale="   25.586">  2  9  1 -1</clus>
<clus scale="   80.600">  5  6 -1 -1</clus>
<clus scale="   84.359">  2  5  1 -1</clus>
<clus scale="   91.347">  7  8 -1 -1</clus>
<clus scale="   25.586">  2  5  1 -1</clus>
</clustering>
</event>
<event>
 9    1  0.2674825E-005  0.1616301E+03  0.7546771E-02  0.1188435E+00
          1   -1    0    0  502    0  0.00000000000E+00  0.00000000000E+00  0.92812963015E+03  0.92812963015E+03  0.00000000000E+00 0. -1.
         -2   -1    0    0    0  501 -0.00000000000E+00 -0.00000000000E+00 -0.50154051327E+02  0.50154051327E+02  0.00000000000E+00 0.  1.
         23    2    1    2    0    0  0.10861680715E+02 -0.13785194241E+03  0.12537232888E+03  0.20772069400E+03  0.91151147745E+02 0.  0.
        -24    2    1    2    0    0 -0.15989848479E+02  0.11428355132E+03  0.62496392770E+03  0.64066470517E+03  0.80962634348E+02 0.  0.
         13    1    4    4    0    0 -0.13303190432E+02  0.12621961657E+03  0.53366359517E+03  0.54854826524E+03  0.00000000000E+00 0. -1.
        -14    1    4    4    0    0 -0.26866580471E+01 -0.11936065250E+02  0.91300332533E+02  0.92116439932E+02  0.00000000000E+00 0.  1.
        -11    1    3    3    0    0 -0.40012956636E+02 -0.50812912512E+02  0.52974097349E+02  0.83601697152E+02  0.00000000000E+00 0.  1.
         11    1    3    3    0    0  0.50874637352E+02 -0.87039029898E+02  0.72398231528E+02  0.12411899685E+03  0.00000000000E+00 0. -1.
         21    1    1    2  502  501  0.51281677636E+01  0.23568391085E+02  0.12763932224E+03  0.12989828230E+03  0.00000000000E+00 0. -1.
<scales pt_clust_5="13000.00000" pt_clust_6="13000.00000" pt_clust_7="13000.00000" pt_clust_8="13000.00000" pt_clust_9="24.11985"></scales>
<clustering>
<clus scale="   24.120">  1  9  2 -1</clus>
<clus scale="   80.963">  5  6 -1 -1</clus>
<clus scale="   91.151">  7  8 -1 -1</clus>
<clus scale="  156.111">  1  5  2 -1</clus>
<clus scale="   24.120">  1  5  2 -1</clus>
</clustering>
</event>
<event>
 9    1  0.2674825E-005  0.1108478E+03  0.7546771E-02  0.1263208E+00
         -2   -1    0    0    0  501 -0.00000000000E+00  0.00000000000E+00  0.15852844310E+03  0.15852844310E+03  0.00000000000E+00 0.  1.
          1   -1    0    0  502    0  0.00000000000E+00 -0.00000000000E+00 -0.23626855490E+03  0.23626855490E+03  0.00000000000E+00 0. -1.
        -24    2    1    2    0    0  0.52947908848E+02 -0.48942316154E+02  0.10036388037E+03  0.14705908144E+03  0.79715955669E+02 0.  0.
         23    2    1    2    0    0 -0.31823699355E+02  0.20374996368E+02 -0.41584749375E+02  0.10667116769E+03  0.90672809144E+02 0.  0.
         11    1    3    3    0    0  0.33399788665E+02  0.16468102311E+02  0.49408848589E+02  0.61870660215E+02  0.00000000000E+00 0. -1.
        -12    1    3    3    0    0  0.19548120184E+02 -0.65410418465E+02  0.50955031782E+02  0.85188421223E+02  0.00000000000E+00 0.  1.
        -13    1    4    4    0    0  0.31194906255E+02  0.26469132386E+01 -0.22259121913E+02  0.38413498074E+02  0.00000000000E+00 0.  1.
         13    1    4    4    0    0 -0.63018605611E+02  0.17728083129E+02 -0.19325627462E+02  0.68257669616E+02  0.00000000000E+00 0. -1.
         21    1    1    2  502  501 -0.21124209493E+02  0.28567319786E+02 -0.13651924279E+03  0.14106674888E+03  0.00000000000E+00 0.  1.
<scales pt_clust_5="13000.00000" pt_clust_6="13000.00000" pt_clust_7="13000.00000" pt_clust_8="13000.00000" pt_clust_9="35.52920"></scales>
<clustering>
<clus scale="   35.529">  2  9  1 -1</clus>
<clus scale="   79.716">  5  6 -1 -1</clus>
<clus scale="   90.673">  7  8 -1 -1</clus>
<clus scale="  102.080">  1  5  2 -1</clus>
<clus scale="   35.529">  2  5  1 -1</clus>
</clustering>
</event>
<event>
 9    1  0.2674825E-005  0.1253036E+03  0.7546771E-02  0.1236640E+00
         -2   -1    0    0    0  501 -0.00000000000E+00  0.00000000000E+00  0.17989642468E+03  0.17989642468E+03  0.00000000000E+00 0.  1.
          1   -1    0    0  502    0  0.00000000000E+00 -0.00000000000E+00 -0.25573745724E+03  0.25573745724E+03  0.00000000000E+00 0. -1.
        -24    2    1    2    0    0 -0.89536802409E+02  0.56195663325E+01  0.13592842651E+03  0.18278538114E+03  0.82979153486E+02 0.  0.
         23    2    1    2    0    0  0.62998186544E+02 -0.59246297462E+01 -0.18360517920E+03  0.21414943288E+03  0.90251011229E+02 0.  0.
         11    1    3    3    0    0 -0.55258614520E+02  0.17959087921E+02  0.20291032169E+02  0.61544856033E+02  0.00000000000E+00 0. -1.
        -12    1    3    3    0    0 -0.34278187888E+02 -0.12339521588E+02  0.11563739434E+03  0.12124052511E+03  0.00000000000E+00 0.  1.
        -11    1    4    4    0    0  0.22985149275E+02 -0.46867342200E+02 -0.10028692687E+03  0.11305897821E+03  0.00000000000E+00 0.  1.
         11    1    4    4    0    0  0.40013037269E+02  0.40942712453E+02 -0.83318252322E+02  0.10109045467E+03  0.00000000000E+00 0. -1.
         21    1    1    2  502  501  0.26538615865E+02  0.30506341375E+00 -0.28164279880E+02  0.38699067907E+02  0.00000000000E+00 0.  1.
<scales pt_clust_5="13000.00000" pt_clust_6="13000.00000" pt_clust_7="13000.00000" pt_clust_8="13000.00000" pt_clust_9="26.54037"></scales>
<clustering>
<clus scale="   26.540">  2  9  1 -1</clus>
<clus scale="   82.979">  5  6 -1 -1</clus>
<clus scale="   90.251">  7  8 -1 -1</clus>
<clus scale="  120.172">  1  5  2 -1</clus>
<clus scale="   26.540">  2  5  1 -1</clus>
</clustering>
</event>
<event>
 9    1  0.2674825E-005  0.1131048E+03  0.7546771E-02  0.1260008E+00
          1   -1    0    0  502    0  0.00000000000E+00  0.00000000000E+00  0.42636250430E+03  0.42636250430E+03  0.00000000000E+00 0. -1.
         -2   -1    0    0    0  501 -0.00000000000E+00 -0.00000000000E+00 -0.43306544808E+02  0.43306544808E+02  0.00000000000E+00 0.  1.
        -24    2    1    2    0    0  0.41805917185E+02 -0.70257496226E+02  0.83853811786E+02  0.14018909624E+03  0.77056281151E+02 0.  0.
         23    2    1    2    0    0 -0.41095962714E+02  0.46634504743E+02  0.27199429236E+03  0.29344084697E+03  0.90900937331E+02 0.  0.
         11    1    3    3    0    0 -0.22503442234E+02 -0.24698503378E+02  0.27974362397E+02  0.43577355737E+02  0.00000000000E+00 0. -1.
        -12    1    3    3    0    0  0.64309359419E+02 -0.45558992849E+02  0.55879449389E+02  0.96611740500E+02  0.00000000000E+00 0.  1.
        -11    1    4    4    0    0  0.49991801900E+01  0.55770829424E+02  0.94616068509E+02  0.10994352022E+03  0.00000000000E+00 0.  1.
         11    1    4    4    0    0 -0.46095142904E+02 -0.91363246816E+01  0.17737822385E+03  0.18349732675E+03  0.00000000000E+00 0. -1.
         21    1    1    2  502  501 -0.70995447067E+00  0.23622991484E+02  0.27207855347E+02  0.36039105907E+02  0.00000000000E+00 0.  1.
<scales pt_clust_5="13000.00000" pt_clust_6="13000.00000" pt_clust_7="13000.00000" pt_clust_8="13000.00000" pt_clust_9="23.63366"></scales>
<clustering>
<clus scale="   23.634">  2  9  1 -1</clus>
<clus scale="   77.056">  5  6 -1 -1</clus>
<clus scale="   90.901">  7  8 -1 -1</clus>
<clus scale="  102.310">  2  5  1 -1</clus>
<clus scale="  113.105">  1  5  2 -1</clus>
</clustering>
</event>
<event>
 9    1  0.2674825E-005  0.3522020E+03  0.7546771E-02  0.1109820E+00
         -2   -1    0    0    0  501 -0.00000000000E+00  0.00000000000E+00  0.21852625001E+03  0.21852625001E+03  0.00000000000E+00 0.  1.
          1   -1    0    0  502    0  0.00000000000E+00 -0.00000000000E+00 -0.77501533367E+03  0.77501533367E+03  0.00000000000E+00 0. -1.
        -24    2    1    2    0    0 -0.19467997395E+02 -0.53309956070E+02 -0.38560523660E+01  0.97761185762E+02  0.79507395650E+02 0.  0.
         23    2    1    2    0    0 -0.59968382168E+02 -0.30064098095E+03 -0.14890266476E+03  0.35301929662E+03  0.92029418800E+02 0.  0.
         13    1    3    3    0    0  0.76876767831E+01  0.18743572785E+02  0.28959107379E+01  0.20464803788E+02  0.00000000000E+00 0. -1.
        -14    1    3    3    0    0 -0.27155674178E+02 -0.72053528855E+02 -0.67519631039E+01  0.77296381974E+02  0.00000000000E+00 0.  1.
        -13    1    4    4    0    0  0.78055657758E+00 -0.21528216811E+02  0.12519858349E+02  0.24916264582E+02  0.00000000000E+00 0. -1.
         13    1    4    4    0    0 -0.60748938745E+02 -0.27911276414E+03 -0.16142252310E+03  0.32810303204E+03  0.00000000000E+00 0.  1.
         21    1    1    2  502  501  0.79436379563E+02  0.35395093702E+03 -0.40373036654E+03  0.54276110130E+03  0.00000000000E+00 0. -1.
<scales pt_clust_5="13000.00000" pt_clust_6="13000.00000" pt_clust_7="13000.00000" pt_clust_8="13000.00000" pt_clust_9="339.96597"></scales>
<clustering>
<clus scale="   79.507">  5  6 -1 -1</clus>
<clus scale="   92.029">  7  8 -1 -1</clus>
<clus scale="   97.685">  1  5  2 -1</clus>
<clus scale="  339.966">  2  9  1 -1</clus>
<clus scale="  339.966">  2  5  1 -1</clus>
</clustering>
</event>
<event>
 9    1  0.2674825E-005  0.1577983E+03  0.7546771E-02  0.1212101E+00
         -2   -1    0    0    0  501 -0.00000000000E+00  0.00000000000E+00  0.62742044833E+02  0.62742044833E+02  0.00000000000E+00 0.  1.
          1   -1    0    0  502    0  0.00000000000E+00 -0.00000000000E+00 -0.12620809741E+04  0.12620809741E+04  0.00000000000E+00 0. -1.
         23    2    1    2    0    0  0.42148458243E+02  0.14531605659E+02 -0.67363352727E+02  0.12086871691E+03  0.89909762217E+02 0.  0.
        -24    2    1    2    0    0 -0.42022701864E+02 -0.13517565389E+03 -0.10393635029E+04  0.10518622300E+04  0.78097982844E+02 0.  0.
         11    1    4    4    0    0 -0.18871051916E+02 -0.11396208938E+03 -0.57790711372E+03  0.58933870271E+03  0.00000000000E+00 0. -1.
        -12    1    4    4    0    0 -0.23151649948E+02 -0.21213564508E+02 -0.46145638914E+03  0.46252352728E+03  0.00000000000E+00 0.  1.
        -13    1    3    3    0    0  0.40488415036E+02 -0.26429638990E+02 -0.63327517869E+02  0.79675668110E+02  0.00000000000E+00 0. -1.
         13    1    3    3    0    0  0.16600432072E+01  0.40961244649E+02 -0.40358348582E+01  0.41193048802E+02  0.00000000000E+00 0.  1.
         21    1    1    2  502  501 -0.12575637875E+00  0.12064404823E+03 -0.92612073714E+02  0.15209207207E+03  0.00000000000E+00 0.  1.
<scales pt_clust_5="13000.00000" pt_clust_6="13000.00000" pt_clust_7="13000.00000" pt_clust_8="13000.00000" pt_clust_9="137.11672"></scales>
<clustering>
<clus scale="   78.098">  5  6 -1 -1</clus>
<clus scale="   89.910">  7  8 -1 -1</clus>
<clus scale="  100.356">  1  7  2 -1</clus>
<clus scale="  137.117">  1  9  2 -1</clus>
<clus scale="  157.798">  2  5  1 -1</clus>
</clustering>
</event>
<event>
 9    1  0.2674825E-005  0.3330784E+03  0.7546771E-02  0.1130076E+00
         -2   -1    0    0    0  501 -0.00000000000E+00  0.00000000000E+00  0.24635888712E+03  0.24635888712E+03  0.00000000000E+00 0.  1.
          1   -1    0    0  502    0  0.00000000000E+00 -0.00000000000E+00 -0.26408269082E+04  0.26408269082E+04  0.00000000000E+00 0. -1.
        -24    2    1    2    0    0 -0.29589717047E+03  0.11220743900E+03  0.10299235777E+03  0.34785106544E+03  0.10122891442E+03 0.  0.
         23    2    1    2    0    0 -0.15478044074E+02  0.91960610447E+01 -0.12175300520E+03  0.14023513642E+03  0.67215785542E+02 0.  0.
         13    1    3    3    0    0 -0.48035689714E+01  0.28927916370E+02  0.60865265794E+01  0.29949030471E+02  0.00000000000E+00 0. -1.
        -14    1    3    3    0    0 -0.29109360150E+03  0.83279522632E+02  0.96905831190E+02  0.31790203497E+03  0.00000000000E+00 0.  1.
        -11    1    4    4    0    0 -0.39907789795E+01 -0.28492459245E+02 -0.37866173307E+02  0.47556215489E+02  0.00000000000E+00 0.  1.
         11    1    4    4    0    0 -0.11487265095E+02  0.37688520290E+02 -0.83886831892E+02  0.92678920936E+02  0.00000000000E+00 0. -1.
         21    1    1    2  502  501  0.31137521454E+03 -0.12140350005E+03 -0.23757073736E+04  0.23990995934E+04  0.00000000000E+00 0. -1.
<scales pt_clust_5="13000.00000" pt_clust_6="13000.00000" pt_clust_7="13000.00000" pt_clust_8="13000.00000" pt_clust_9="317.32302"></scales>
<clustering>
<clus scale="   67.216">  7  8 -1 -1</clus>
<clus scale="   69.585">  2  7  1 -1</clus>
<clus scale="  101.229">  5  6 -1 -1</clus>
<clus scale="  317.323">  2  9  1 -1</clus>
<clus scale="   69.585">  2  5  1 -1</clus>
</clustering>
</event>
<event>
 9    1  0.2674825E-005  0.1332203E+03  0.7546771E-02  0.1223487E+00
          1   -1    0    0  502    0  0.00000000000E+00  0.00000000000E+00  0.43233721142E+03  0.43233721142E+03  0.00000000000E+00 0. -1.
         -2   -1    0    0    0  501 -0.00000000000E+00 -0.00000000000E+00 -0.12593637165E+03  0.12593637165E+03  0.00000000000E+00 0.  1.
        -24    2    1    2    0    0  0.67741261290E+02 -0.50814344073E+02  0.19378422697E+02  0.12166068125E+03  0.85175243185E+02 0.  0.
         23    2    1    2    0    0 -0.15479600770E+02  0.15231003351E+03  0.67476149445E+02  0.18915943192E+03  0.88262651176E+02 0.  0.
         11    1    3    3    0    0  0.44486332001E+02 -0.54768002021E+02  0.47423024608E+02  0.85014769560E+02  0.00000000000E+00 0. -1.
        -12    1    3    3    0    0  0.23254929289E+02  0.39536579474E+01 -0.28044601911E+02  0.36645911692E+02  0.00000000000E+00 0.  1.
        -11    1    4    4    0    0  0.31080688187E+02  0.32999022878E+02  0.21385918603E+01  0.45381915608E+02  0.00000000000E+00 0. -1.
         11    1    4    4    0    0 -0.46560288958E+02  0.11931101064E+03  0.65337557585E+02  0.14377751632E+03  0.00000000000E+00 0.  1.
         21    1    1    2  502  501 -0.52261660520E+02 -0.10149568944E+03  0.21954626763E+03  0.24745346990E+03  0.00000000000E+00 0. -1.
<scales pt_clust_5="13000.00000" pt_clust_6="13000.00000" pt_clust_7="13000.00000" pt_clust_8="13000.00000" pt_clust_9="114.16066"></scales>
<clustering>
<clus scale="   85.175">  5  6 -1 -1</clus>
<clus scale="   88.263">  7  8 -1 -1</clus>
<clus scale="  114.161">  1  9  2 -1</clus>
<clus scale="  131.195">  2  5  1 -1</clus>
<clus scale="  114.161">  1  5  2 -1</clus>
</clustering>
</event>
<event>
 9    1  0.2674825E-005  0.1318244E+03  0.7546771E-02  0.1226903E+00
          1   -1    0    0  502    0  0.00000000000E+00  0.00000000000E+00  0.29863738388E+03  0.29863738388E+03  0.00000000000E+00 0. -1.
         -2   -1    0    0    0  501 -0.00000000000E+00 -0.00000000000E+00 -0.90718293299E+02  0.90718293299E+02  0.00000000000E+00 0.  1.
        -24    2    1    2    0    0 -0.10181503522E+03  0.13364176268E+02  0.46651425499E+02  0.13649380926E+03  0.76871983582E+02 0.  0.
         23    2    1    2    0    0  0.81332131133E+02 -0.67532924214E+02  0.12219505463E+03  0.18300149646E+03  0.85920340556E+02 0.  0.
         13    1    3    3    0    0 -0.50442218684E+02 -0.17690553975E+02  0.54039986566E+02  0.76011139142E+02  0.00000000000E+00 0. -1.
        -14    1    3    3    0    0 -0.51372816540E+02  0.31054730243E+02 -0.73885610667E+01  0.60482670116E+02  0.00000000000E+00 0.  1.
        -11    1    4    4    0    0  0.25046368872E+02 -0.50280589926E+02  0.10907032807E+03  0.12268575623E+03  0.00000000000E+00 0.  1.
         11    1    4    4    0    0  0.56285762261E+02 -0.17252334288E+02  0.13124726565E+02  0.60315740226E+02  0.00000000000E+00 0. -1.
         21    1    1    2  502  501  0.20482904091E+02  0.54168747946E+02  0.39072610455E+02  0.69860371469E+02  0.00000000000E+00 0. -1.
<scales pt_clust_5="13000.00000" pt_clust_6="13000.00000" pt_clust_7="13000.00000" pt_clust_8="13000.00000" pt_clust_9="57.91202"></scales>
<clustering>
<clus scale="   57.912">  1  9  2 -1</clus>
<clus scale="   76.872">  5  6 -1 -1</clus>
<clus scale="   85.920">  7  8 -1 -1</clus>
<clus scale="  126.114">  2  5  1 -1</clus>
<clus scale="   57.912">  1  5  2 -1</clus>
</clustering>
</event>
<event>
 9    1  0.2674825E-005  0.1002599E+03  0.7546771E-02  0.1290103E+00
          3   -1    0    0  502    0  0.00000000000E+00  0.00000000000E+00  0.33263056858E+03  0.33263056858E+03  0.00000000000E+00 0. -1.
         -4   -1    0    0    0  501 -0.00000000000E+00 -0.00000000000E+00 -0.44090743175E+02  0.44090743175E+02  0.00000000000E+00 0.  1.
         23    2    1    2    0    0 -0.42897231946E+02 -0.30715222597E+02  0.96745376873E+02  0.14429980030E+03  0.93162047057E+02 0.  0.
        -24    2    1    2    0    0  0.29066390915E+02  0.13358756457E+02  0.19414905200E+03  0.21010373294E+03  0.73664189048E+02 0.  0.
         11    1    4    4    0    0  0.33721538341E+02 -0.23538335180E+02  0.12496220066E+03  0.13155510999E+03  0.00000000000E+00 0. -1.
        -12    1    4    4    0    0 -0.46551474256E+01  0.36897091637E+02  0.69186851338E+02  0.78548622947E+02  0.00000000000E+00 0.  1.
        -11    1    3    3    0    0 -0.72573682542E+02 -0.18463274515E+02  0.65250085345E+02  0.99324747878E+02  0.00000000000E+00 0.  1.
         11    1    3    3    0    0  0.29676450596E+02 -0.12251948082E+02  0.31495291528E+02  0.44975052420E+02  0.00000000000E+00 0. -1.
         21    1    1    2  502  501  0.13830841031E+02  0.17356466140E+02 -0.23546034668E+01  0.22317778518E+02  0.00000000000E+00 0.  1.
<scales pt_clust_5="13000.00000" pt_clust_6="13000.00000" pt_clust_7="13000.00000" pt_clust_8="13000.00000" pt_clust_9="22.19322"></scales>
<clustering>
<clus scale="   22.193">  2  9  1 -1</clus>
<clus scale="   73.664">  5  6 -1 -1</clus>
<clus scale="   82.458">  1  5  2 -1</clus>
<clus scale="   93.162">  7  8 -1 -1</clus>
<clus scale="   82.458">  1  5  2 -1</clus>
</clustering>
</event>
<event>
 9    1  0.2674825E-005  0.1554832E+03  0.7546771E-02  0.1196817E+00
         -2   -1    0    0    0  501 -0.00000000000E+00  0.00000000000E+00  0.18567735900E+03  0.18567735900E+03  0.00000000000E+00 0.  1.
          1   -1    0    0  502    0  0.00000000000E+00 -0.00000000000E+00 -0.27764357581E+03  0.27764357581E+03  0.00000000000E+00 0. -1.
        -24    2    1    2    0    0  0.89870303301E+02  0.12463320130E+03  0.65430950371E+02  0.18304813439E+03  0.74935331824E+02 0.  0.
         23    2    1    2    0    0  0.58814565609E+01 -0.73257062844E+02 -0.11141521939E+03  0.16228023014E+03  0.92305650929E+02 0.  0.
         13    1    3    3    0    0  0.31263536828E+02 -0.97239954093E+00  0.20263421523E+02  0.37268761017E+02  0.00000000000E+00 0. -1.
        -14    1    3    3    0    0  0.58606766472E+02  0.12560560084E+03  0.45167528848E+02  0.14577937337E+03  0.00000000000E+00 0.  1.
        -13    1    4    4    0    0 -0.20369512101E+02 -0.78708017681E+02 -0.50455385357E+02  0.95684977829E+02  0.00000000000E+00 0. -1.
         13    1    4    4    0    0  0.26250968662E+02  0.54509548377E+01 -0.60959834038E+02  0.66595252310E+02  0.00000000000E+00 0.  1.
         21    1    1    2  502  501 -0.95751759862E+02 -0.51376138455E+02 -0.45981947794E+02  0.11799257028E+03  0.00000000000E+00 0. -1.
<scales pt_clust_5="13000.00000" pt_clust_6="13000.00000" pt_clust_7="13000.00000" pt_clust_8="13000.00000" pt_clust_9="108.66419"></scales>
<clustering>
<clus scale="   74.935">  5  6 -1 -1</clus>
<clus scale="   92.306">  7  8 -1 -1</clus>
<clus scale="  108.664">  2  9  1 -1</clus>
<clus scale="  145.842">  1  5  2 -1</clus>
<clus scale="  108.664">  2  5  1 -1</clus>
</clustering>
</event>
<event>
 9    1  0.2674825E-005  0.2098691E+03  0.7546771E-02  0.1144376E+00
         -2   -1    0    0    0  501 -0.00000000000E+00  0.00000000000E+00  0.16354536014E+03  0.16354536014E+03  0.00000000000E+00 0.  1.
          1   -1    0    0  502    0  0.00000000000E+00 -0.00000000000E+00 -0.63485871718E+03  0.63485871718E+03  0.00000000000E+00 0. -1.
        -24    2    1    2    0    0 -0.10653737794E+02 -0.17709603073E+03  0.65902270897E+02  0.20583181787E+03  0.80914286185E+02 0.  0.
         23    2    1    2    0    0 -0.83652095983E+01  0.19386230958E+03 -0.50227351813E+03  0.54940074680E+03  0.10913258799E+03 0.  0.
         11    1    3    3    0    0 -0.44003120993E+02 -0.12666800832E+03  0.38931249306E+02  0.13963058820E+03  0.00000000000E+00 0. -1.
        -12    1    3    3    0    0  0.33349383199E+02 -0.50428022410E+02  0.26971021591E+02  0.66201229668E+02  0.00000000000E+00 0.  1.
        -11    1    4    4    0    0  0.29899270431E+02  0.17337577948E+03 -0.43622595271E+03  0.47036816336E+03  0.00000000000E+00 0. -1.
         11    1    4    4    0    0 -0.38264480030E+02  0.20486530100E+02 -0.66047565421E+02  0.79032583442E+02  0.00000000000E+00 0.  1.
         21    1    1    2  502  501  0.19018947393E+02 -0.16766278850E+02 -0.34942109808E+02  0.43171512647E+02  0.00000000000E+00 0. -1.
<scales pt_clust_5="13000.00000" pt_clust_6="13000.00000" pt_clust_7="13000.00000" pt_clust_8="13000.00000" pt_clust_9="25.35406"></scales>
<clustering>
<clus scale="   25.354">  2  9  1 -1</clus>
<clus scale="   80.914">  5  6 -1 -1</clus>
<clus scale="  109.133">  7  8 -1 -1</clus>
<clus scale="  196.678">  1  5  2 -1</clus>
<clus scale="   25.354">  2  5  1 -1</clus>
</clustering>
</event>
<event>
 9    1  0.2674825E-005  0.4023729E+03  0.7546771E-02  0.1043106E+00
         -2   -1    0    0    0  501 -0.00000000000E+00  0.00000000000E+00  0.80757723355E+03  0.80757723355E+03  0.00000000000E+00 0.  1.
          1   -1    0    0  502    0  0.00000000000E+00 -0.00000000000E+00 -0.21938856527E+03  0.21938856527E+03  0.00000000000E+00 0. -1.
        -24    2    1    2    0    0  0.33052435459E+03  0.21681335864E+03  0.36418886812E+03  0.54352643838E+03  0.80827446411E+02 0.  0.
         23    2    1    2    0    0 -0.30969512536E+03 -0.23579060599E+03  0.21700041097E+03  0.45440517101E+03  0.88806534261E+02 0.  0.
         13    1    3    3    0    0  0.31023846420E+03  0.22213647506E+03  0.33618649828E+03  0.50854093232E+03  0.00000000000E+00 0. -1.
        -14    1    3    3    0    0  0.20285890389E+02 -0.53231164227E+01  0.28002369840E+02  0.34985506056E+02  0.00000000000E+00 0.  1.
        -13    1    4    4    0    0 -0.16267439047E+03 -0.17380530815E+03  0.14987106465E+03  0.28130513410E+03  0.00000000000E+00 0.  1.
         13    1    4    4    0    0 -0.14702073490E+03 -0.61985297845E+02  0.67129346329E+02  0.17310003691E+03  0.00000000000E+00 0. -1.
         21    1    1    2  502  501 -0.20829229224E+02  0.18977247353E+02  0.69993891860E+01  0.29034189435E+02  0.00000000000E+00 0. -1.
<scales pt_clust_5="13000.00000" pt_clust_6="13000.00000" pt_clust_7="13000.00000" pt_clust_8="13000.00000" pt_clust_9="28.17788"></scales>
<clustering>
<clus scale="   28.178">  2  9  1 -1</clus>
<clus scale="   80.827">  5  6 -1 -1</clus>
<clus scale="   88.807">  7  8 -1 -1</clus>
<clus scale="  400.687">  1  5  2 -1</clus>
<clus scale="   28.178">  2  5  1 -1</clus>
</clustering>
</event>
<event>
 9    1  0.2674825E-005  0.1032014E+03  0.7546771E-02  0.1279800E+00
         -2   -1    0    0    0  501 -0.00000000000E+00  0.00000000000E+00  0.45073760244E+03  0.45073760244E+03  0.00000000000E+00 0.  1.
          1   -1    0    0  502    0  0.00000000000E+00 -0.00000000000E+00 -0.74881708351E+02  0.74881708351E+02  0.00000000000E+00 0. -1.
        -24    2    1    2    0    0 -0.16793602969E+02 -0.42382304274E+02  0.36186407268E+03  0.37339125669E+03  0.79982114599E+02 0.  0.
         23    2    1    2    0    0 -0.23897177805E+02  0.51627079586E+02  0.22361108008E+01  0.10887598100E+03  0.92803817778E+02 0.  0.
         13    1    3    3    0    0 -0.22984197652E+02  0.12281179795E+02  0.46852543184E+02  0.53612139686E+02  0.00000000000E+00 0. -1.
        -14    1    3    3    0    0  0.61905946834E+01 -0.54663484069E+02  0.31501152950E+03  0.31977911700E+03  0.00000000000E+00 0.  1.
        -11    1    4    4    0    0  0.63644744246E+01  0.20744226528E+02 -0.41840561259E+02  0.47132388391E+02  0.00000000000E+00 0. -1.
         11    1    4    4    0    0 -0.30261652230E+02  0.30882853058E+02  0.44076672060E+02  0.61743592611E+02  0.00000000000E+00 0.  1.
         21    1    1    2  502  501  0.40690780774E+02 -0.92447753123E+01  0.11755710610E+02  0.43352073105E+02  0.00000000000E+00 0. -1.
<scales pt_clust_5="13000.00000" pt_clust_6="13000.00000" pt_clust_7="13000.00000" pt_clust_8="13000.00000" pt_clust_9="41.72775"></scales>
<clustering>
<clus scale="   41.728">  2  9  1 -1</clus>
<clus scale="   79.982">  5  6 -1 -1</clus>
<clus scale="   91.843">  1  5  2 -1</clus>
<clus scale="   92.804">  7  8 -1 -1</clus>
<clus scale="   41.728">  2  5  1 -1</clus>
</clustering>
</event>
<event>
 9    1  0.2674825E-005  0.9387375E+02  0.7546771E-02  0.1297874E+00
          1   -1    0    0  502    0  0.00000000000E+00  0.00000000000E+00  0.26226887784E+03  0.26226887784E+03  0.00000000000E+00 0. -1.
         -2   -1    0    0    0  501 -0.00000000000E+00 -0.00000000000E+00 -0.12813050433E+03  0.12813050433E+03  0.00000000000E+00 0.  1.
        -24    2    1    2    0    0 -0.22259903873E+02 -0.21269144069E+02 -0.77397360509E+02  0.11542789842E+03  0.79908500856E+02 0.  0.
         23    2    1    2    0    0  0.59868462226E+02  0.79617174442E+01  0.68352973805E+02  0.12633503436E+03  0.87411613440E+02 0.  0.
         11    1    3    3    0    0 -0.51177451133E+02 -0.20213800280E+02 -0.61069806360E+02  0.82202496769E+02  0.00000000000E+00 0. -1.
        -12    1    3    3    0    0  0.28917547261E+02 -0.10553437882E+01 -0.16327554149E+02  0.33225401647E+02  0.00000000000E+00 0.  1.
        -11    1    4    4    0    0 -0.54571431392E+01  0.29881492148E+02  0.43560174460E+02  0.53105299013E+02  0.00000000000E+00 0. -1.
         11    1    4    4    0    0  0.65325605365E+02 -0.21919774704E+02  0.24792799345E+02  0.73229735345E+02  0.00000000000E+00 0.  1.
         21    1    1    2  502  501 -0.37608558353E+02  0.13307426624E+02  0.14318276021E+03  0.14863644939E+03  0.00000000000E+00 0. -1.
<scales pt_clust_5="13000.00000" pt_clust_6="13000.00000" pt_clust_7="13000.00000" pt_clust_8="13000.00000" pt_clust_9="39.89350"></scales>
<clustering>
<clus scale="   39.893">  1  9  2 -1</clus>
<clus scale="   79.909">  5  6 -1 -1</clus>
<clus scale="   86.930">  2  5  1 -1</clus>
<clus scale="   87.412">  7  8 -1 -1</clus>
<clus scale="   39.893">  1  5  2 -1</clus>
</clustering>
</event>
<event>
 9    1  0.2674825E-005  0.1021836E+03  0.7546771E-02  0.1280825E+00
         -4   -1    0    0    0  501 -0.00000000000E+00  0.00000000000E+00  0.11825837415E+03  0.11825837415E+03  0.00000000000E+00 0.  1.
          3   -1    0    0  502    0  0.00000000000E+00 -0.00000000000E+00 -0.27955036253E+03  0.27955036253E+03  0.00000000000E+00 0. -1.
        -24    2    1    2    0    0  0.45435681013E+02  0.19452965811E+02  0.71154480901E+02  0.11818492399E+03  0.80385926114E+02 0.  0.
         23    2    1    2    0    0 -0.35507355505E+02  0.14378092461E+01 -0.82542293864E+02  0.12794567341E+03  0.91071540435E+02 0.  0.
         11    1    3    3    0    0  0.31725623700E+02 -0.19295047435E+02  0.13238573128E+01  0.37155977351E+02  0.00000000000E+00 0. -1.
        -12    1    3    3    0    0  0.13710057313E+02  0.38748013246E+02  0.69830623588E+02  0.81028946635E+02  0.00000000000E+00 0.  1.
        -13    1    4    4    0    0  0.22658544268E+02  0.45976509233E+01 -0.62012287203E+02  0.66182110774E+02  0.00000000000E+00 0.  1.
         13    1    4    4    0    0 -0.58165899772E+02 -0.31598416772E+01 -0.20530006661E+02  0.61763562634E+02  0.00000000000E+00 0. -1.
         21    1    1    2  502  501 -0.99283255086E+01 -0.20890775057E+02 -0.14990417541E+03  0.15167813928E+03  0.00000000000E+00 0. -1.
<scales pt_clust_5="13000.00000" pt_clust_6="13000.00000" pt_clust_7="13000.00000" pt_clust_8="13000.00000" pt_clust_9="23.12998"></scales>
<clustering>
<clus scale="   23.130">  2  9  1 -1</clus>
<clus scale="   80.386">  5  6 -1 -1</clus>
<clus scale="   91.072">  7  8 -1 -1</clus>
<clus scale="   92.787">  1  5  2 -1</clus>
<clus scale="   23.130">  2  5  1 -1</clus>
</clustering>
</event>
<event>
 9    1  0.2674825E-005  0.1898551E+03  0.7546771E-02  0.1172636E+00
          1   -1    0    0  502    0  0.00000000000E+00  0.00000000000E+00  0.48602211678E+03  0.48602211678E+03  0.00000000000E+00 0. -1.
         -2   -1    0    0    0  501 -0.00000000000E+00 -0.00000000000E+00 -0.46583542165E+03  0.46583542165E+03  0.00000000000E+00 0.  1.
         23    2    1    2    0    0 -0.10344022586E+03  0.41854035343E+01 -0.12883748330E+03  0.18831879474E+03  0.90263355910E+02 0.  0.
        -24    2    1    2    0    0  0.19006427840E+03 -0.15070021905E+03 -0.23318876878E+03  0.34514054263E+03  0.76876565570E+02 0.  0.
         11    1    4    4    0    0  0.10768408020E+03 -0.36639459924E+02 -0.10326307184E+03  0.15362803507E+03  0.00000000000E+00 0. -1.
        -12    1    4    4    0    0  0.82380198205E+02 -0.11406075912E+03 -0.12992569694E+03  0.19151250756E+03  0.00000000000E+00 0.  1.
        -11    1    3    3    0    0 -0.62006024956E+02  0.23221884030E+02 -0.18221746229E+02  0.68673394153E+02  0.00000000000E+00 0. -1.
         11    1    3    3    0    0 -0.41434200907E+02 -0.19036480495E+02 -0.11061573707E+03  0.11964540059E+03  0.00000000000E+00 0.  1.
         21    1    1    2  502  501 -0.86624052538E+02  0.14651481551E+03  0.38221294720E+03  0.41839820106E+03  0.00000000000E+00 0. -1.
<scales pt_clust_5="13000.00000" pt_clust_6="13000.00000" pt_clust_7="13000.00000" pt_clust_8="13000.00000" pt_clust_9="173.59422"></scales>
<clustering>
<clus scale="   76.877">  5  6 -1 -1</clus>
<clus scale="   90.263">  7  8 -1 -1</clus>
<clus scale="  137.349">  2  7  1 -1</clus>
<clus scale="  173.594">  1  9  2 -1</clus>
<clus scale="  173.594">  1  5  2 -1</clus>
</clustering>
</event>
<event>
 9    1  0.2674825E-005  0.1319444E+03  0.7546771E-02  0.1226878E+00
         -2   -1    0    0    0  501 -0.00000000000E+00  0.00000000000E+00  0.66850973245E+02  0.66850973245E+02  0.00000000000E+00 0.  1.
          1   -1    0    0  502    0  0.00000000000E+00 -0.00000000000E+00 -0.44043727979E+03  0.44043727979E+03  0.00000000000E+00 0. -1.
        -24    2    1    2    0    0 -0.92007345660E+02 -0.28561614405E+02 -0.28871344273E+02  0.12930593288E+03  0.81273318411E+02 0.  0.
         23    2    1    2    0    0  0.96854639412E+02  0.67251764457E+01 -0.29532711112E+03  0.32376529219E+03  0.90442316936E+02 0.  0.
         13    1    3    3    0    0 -0.11023296906E+02 -0.32605994010E+02 -0.33577593120E+02  0.48084495212E+02  0.00000000000E+00 0. -1.
        -14    1    3    3    0    0 -0.80984048754E+02  0.40443796044E+01  0.47062488472E+01  0.81221437670E+02  0.00000000000E+00 0.  1.
        -11    1    4    4    0    0  0.64769302664E+02 -0.39605680437E+02 -0.18197549774E+03  0.19717696181E+03  0.00000000000E+00 0.  1.
         11    1    4    4    0    0  0.32085336749E+02  0.46330856883E+02 -0.11335161337E+03  0.12658833038E+03  0.00000000000E+00 0. -1.
         21    1    1    2  502  501 -0.48472937525E+01  0.21836437960E+02 -0.49387851157E+02  0.54217027965E+02  0.00000000000E+00 0. -1.
<scales pt_clust_5="13000.00000" pt_clust_6="13000.00000" pt_clust_7="13000.00000" pt_clust_8="13000.00000" pt_clust_9="22.36797"></scales>
<clustering>
<clus scale="   22.368">  2  9  1 -1</clus>
<clus scale="   81.273">  5  6 -1 -1</clus>
<clus scale="   90.442">  7  8 -1 -1</clus>
<clus scale="  125.837">  1  5  2 -1</clus>
<clus scale="   22.368">  2  5  1 -1</clus>
</clustering>
</event>
<event>
 9    1  0.2674825E-005  0.9245610E+02  0.7546771E-02  0.1302843E+00
         -2   -1    0    0    0  501 -0.00000000000E+00  0.00000000000E+00  0.24697155854E+03  0.24697155854E+03  0.00000000000E+00 0.  1.
          1   -1    0    0  502    0  0.00000000000E+00 -0.00000000000E+00 -0.12754702437E+03  0.12754702437E+03  0.00000000000E+00 0. -1.
        -24    2    1    2    0    0 -0.65268082627E+01 -0.50796618361E+01  0.15545544683E+03  0.17566233477E+03  0.81378484363E+02 0.  0.
         23    2    1    2    0    0 -0.15188285723E+01  0.75009033635E+02  0.37913035624E+01  0.11798191217E+03  0.90976346655E+02 0.  0.
         13    1    3    3    0    0 -0.43169201448E+02 -0.11301686693E+02  0.83693809927E+02  0.94847044740E+02  0.00000000000E+00 0. -1.
        -14    1    3    3    0    0  0.36642393185E+02  0.62220248571E+01  0.71761636904E+02  0.80815290031E+02  0.00000000000E+00 0.  1.
        -13    1    4    4    0    0 -0.34407257502E+02 -0.68157646561E+00 -0.58000752418E+01  0.34899352259E+02  0.00000000000E+00 0.  1.
         13    1    4    4    0    0  0.32888428929E+02  0.75690610101E+02  0.95913788042E+01  0.83082559916E+02  0.00000000000E+00 0. -1.
         21    1    1    2  502  501  0.80456368350E+01 -0.69929371799E+02 -0.39822216224E+02  0.80874335962E+02  0.00000000000E+00 0.  1.
<scales pt_clust_5="13000.00000" pt_clust_6="13000.00000" pt_clust_7="13000.00000" pt_clust_8="13000.00000" pt_clust_9="70.39069"></scales>
<clustering>
<clus scale="   70.391">  2  9  1 -1</clus>
<clus scale="   81.378">  5  6 -1 -1</clus>
<clus scale="   83.029">  1  5  2 -1</clus>
<clus scale="   90.976">  7  8 -1 -1</clus>
<clus scale="   70.391">  2  5  1 -1</clus>
</clustering>
</event>
<event>
 9    1  0.2674825E-005  0.1215621E+03  0.7546771E-02  0.1244298E+00
          1   -1    0    0  502    0  0.00000000000E+00  0.00000000000E+00  0.57981393028E+03  0.57981393028E+03  0.00000000000E+00 0. -1.
         -2   -1    0    0    0  501 -0.00000000000E+00 -0.00000000000E+00 -0.75132008183E+02  0.75132008183E+02  0.00000000000E+00 0.  1.
         23    2    1    2    0    0 -0.69624828764E+02  0.36854072338E+02 -0.76619502474E+01  0.12180591783E+03  0.92585834281E+02 0.  0.
        -24    2    1    2    0    0  0.80937978990E+02 -0.14199666394E+02  0.33998235239E+03  0.35892835903E+03  0.80554205408E+02 0.  0.
         11    1    4    4    0    0  0.59955690624E+02 -0.46949752140E+02  0.22862693238E+03  0.24097559684E+03  0.00000000000E+00 0. -1.
        -12    1    4    4    0    0  0.20982288366E+02  0.32750085746E+02  0.11135542001E+03  0.11795276218E+03  0.00000000000E+00 0.  1.
        -11    1    3    3    0    0 -0.26503737221E+02 -0.31023204944E+02 -0.69244199635E+01  0.41386409889E+02  0.00000000000E+00 0. -1.
         11    1    3    3    0    0 -0.43121091544E+02  0.67877277282E+02 -0.73753028383E+00  0.80419507945E+02  0.00000000000E+00 0.  1.
         21    1    1    2  502  501 -0.11313150226E+02 -0.22654405944E+02  0.17236151995E+03  0.17421166160E+03  0.00000000000E+00 0. -1.
<scales pt_clust_5="13000.00000" pt_clust_6="13000.00000" pt_clust_7="13000.00000" pt_clust_8="13000.00000" pt_clust_9="25.32211"></scales>
<clustering>
<clus scale="   25.322">  1  9  2 -1</clus>
<clus scale="   80.554">  5  6 -1 -1</clus>
<clus scale="   92.586">  7  8 -1 -1</clus>
<clus scale="  112.669">  1  5  2 -1</clus>
<clus scale="   25.322">  1  5  2 -1</clus>
</clustering>
</event>
<event>
 9    1  0.2674825E-005  0.1623825E+03  0.7546771E-02  0.1195397E+00
          1   -1    0    0  502    0  0.00000000000E+00  0.00000000000E+00  0.16052774076E+03  0.16052774076E+03  0.00000000000E+00 0. -1.
         -2   -1    0    0    0  501 -0.00000000000E+00 -0.00000000000E+00 -0.33831115724E+03  0.33831115724E+03  0.00000000000E+00 0.  1.
         23    2    1    2    0    0 -0.78572778130E+02  0.75964682773E+02 -0.26134557366E+03  0.30929034590E+03  0.12415592901E+03 0.  0.
        -24    2    1    2    0    0  0.38809425911E+02 -0.76105457537E+02  0.91673646886E+02  0.14896604031E+03  0.80551917581E+02 0.  0.
         11    1    4    4    0    0  0.37296954533E+02 -0.76718180303E+02  0.10514483316E+03  0.13539637346E+03  0.00000000000E+00 0. -1.
        -12    1    4    4    0    0  0.15124713781E+01  0.61272276569E+00 -0.13471186272E+02  0.13569666850E+02  0.00000000000E+00 0.  1.
        -13    1    3    3    0    0 -0.11016057000E+03  0.75365191035E+02 -0.21878271150E+03  0.25628331599E+03  0.00000000000E+00 0.  1.
         13    1    3    3    0    0  0.31587791870E+02  0.59949173774E+00 -0.42562862154E+02  0.53007029914E+02  0.00000000000E+00 0. -1.
         21    1    1    2  502  501  0.39763352219E+02  0.14077476411E+00 -0.81114897104E+01  0.40582511782E+02  0.00000000000E+00 0. -1.
<scales pt_clust_5="13000.00000" pt_clust_6="13000.00000" pt_clust_7="13000.00000" pt_clust_8="13000.00000" pt_clust_9="39.76360"></scales>
<clustering>
<clus scale="   39.764">  1  9  2 -1</clus>
<clus scale="   80.552">  5  6 -1 -1</clus>
<clus scale="  124.156">  7  8 -1 -1</clus>
<clus scale="  132.068">  1  5  2 -1</clus>
<clus scale="   39.764">  1  5  2 -1</clus>
</clustering>
</event>
<event>
 9    1  0.2674825E-005  0.1053590E+03  0.7546771E-02  0.1273299E+00
         -2   -1    0    0    0  501 -0.00000000000E+00  0.00000000000E+00  0.18530014434E+03  0.18530014434E+03  0.00000000000E+00 0.  1.
          1   -1    0    0  502    0  0.00000000000E+00 -0.00000000000E+00 -0.14183810740E+03  0.14183810740E+03  0.00000000000E+00 0. -1.
         23    2    1    2    0    0 -0.14144288012E+02  0.57854726835E+02  0.12171168083E+03  0.16291422334E+03  0.90443798111E+02 0.  0.
        -24    2    1    2    0    0  0.16348361973E+02 -0.37693217942E+02 -0.85429840386E+01  0.91626763912E+02  0.81452032944E+02 0.  0.
         13    1    4    4    0    0 -0.12690917658E+02 -0.55578283349E+02 -0.31286554990E+01  0.57094600938E+02  0.00000000000E+00 0. -1.
        -14    1    4    4    0    0  0.29039279631E+02  0.17885065407E+02 -0.54143285396E+01  0.34532162974E+02  0.00000000000E+00 0.  1.
        -13    1    3    3    0    0 -0.86079206223E+01  0.80018738199E+02  0.11240538126E+03  0.13824639054E+03  0.00000000000E+00 0.  1.
         13    1    3    3    0    0 -0.55363673902E+01 -0.22164011363E+02  0.93062995643E+01  0.24667832802E+02  0.00000000000E+00 0. -1.
         21    1    1    2  502  501 -0.22040739607E+01 -0.20161508893E+02 -0.69706659854E+02  0.72597264487E+02  0.00000000000E+00 0. -1.
<scales pt_clust_5="13000.00000" pt_clust_6="13000.00000" pt_clust_7="13000.00000" pt_clust_8="13000.00000" pt_clust_9="20.28163"></scales>
<clustering>
<clus scale="   20.282">  2  9  1 -1</clus>
<clus scale="   81.452">  5  6 -1 -1</clus>
<clus scale="   90.444">  7  8 -1 -1</clus>
<clus scale="   97.749">  2  5  1 -1</clus>
<clus scale="   20.282">  2  5  1 -1</clus>
</clustering>
</event>
<event>
 9    1  0.2674825E-005  0.9945041E+02  0.7546771E-02  0.1284079E+00
          1   -1    0    0  502    0  0.00000000000E+00  0.00000000000E+00  0.24519399141E+03  0.24519399141E+03  0.00000000000E+00 0. -1.
         -2   -1    0    0    0  501 -0.00000000000E+00 -0.00000000000E+00 -0.17630153146E+03  0.17630153146E+03  0.00000000000E+00 0.  1.
         23    2    1    2    0    0  0.34267868782E+02 -0.28298719090E+02 -0.12100664372E+03  0.15535094410E+03  0.86696041858E+02 0.  0.
        -24    2    1    2    0    0 -0.94141948385E+02  0.21335857158E+02  0.13259931329E+03  0.18297816227E+03  0.81120310265E+02 0.  0.
         13    1    4    4    0    0 -0.87304694180E+02  0.32699538554E+01  0.13762957468E+03  0.16301749001E+03  0.00000000000E+00 0. -1.
        -14    1    4    4    0    0 -0.68372542046E+01  0.18065903303E+02 -0.50302613938E+01  0.19960672256E+02  0.00000000000E+00 0.  1.
        -13    1    3    3    0    0 -0.26914159868E+02  0.51625993170E+01 -0.28953565299E+02  0.39866444244E+02  0.00000000000E+00 0. -1.
         13    1    3    3    0    0  0.61182028650E+02 -0.33461318407E+02 -0.92053078421E+02  0.11548449985E+03  0.00000000000E+00 0.  1.
         21    1    1    2  502  501  0.59874079603E+02  0.69628619315E+01  0.57299790386E+02  0.83166416497E+02  0.00000000000E+00 0.  1.
<scales pt_clust_5="13000.00000" pt_clust_6="13000.00000" pt_clust_7="13000.00000" pt_clust_8="13000.00000" pt_clust_9="60.27758"></scales>
<clustering>
<clus scale="   60.278">  1  9  2 -1</clus>
<clus scale="   81.120">  5  6 -1 -1</clus>
<clus scale="   86.696">  7  8 -1 -1</clus>
<clus scale="   94.629">  1  5  2 -1</clus>
<clus scale="   60.278">  1  5  2 -1</clus>
</clustering>
</event>
<event>
 9    1  0.2674825E-005  0.1022822E+03  0.7546771E-02  0.1282615E+00
          3   -1    0    0  502    0  0.00000000000E+00  0.00000000000E+00  0.20301868941E+03  0.20301868941E+03  0.00000000000E+00 0. -1.
         -4   -1    0    0    0  501 -0.00000000000E+00 -0.00000000000E+00 -0.11089442742E+03  0.11089442742E+03  0.00000000000E+00 0.  1.
        -24    2    1    2    0    0 -0.38212472660E+02 -0.35706040437E+02 -0.48815681527E+02  0.10665935424E+03  0.79108360448E+02 0.  0.
         23    2    1    2    0    0 -0.81042939594E+01  0.20867817525E+02  0.61292047379E+02  0.11393065138E+03  0.93393430512E+02 0.  0.
         13    1    3    3    0    0 -0.60181960402E+02 -0.20316788542E+02 -0.18452012747E+02  0.66144667426E+02  0.00000000000E+00 0. -1.
        -14    1    3    3    0    0  0.21969487742E+02 -0.15389251895E+02 -0.30363668781E+02  0.40514686811E+02  0.00000000000E+00 0.  1.
        -13    1    4    4    0    0  0.39154194563E+02  0.20228640525E+02  0.47279499406E+02  0.64634355520E+02  0.00000000000E+00 0.  1.
         13    1    4    4    0    0 -0.47258488522E+02  0.63917699982E+00  0.14012547973E+02  0.49296295858E+02  0.00000000000E+00 0. -1.
         21    1    1    2  502  501  0.46316766619E+02  0.14838222913E+02  0.79647896135E+02  0.93323111221E+02  0.00000000000E+00 0.  1.
<scales pt_clust_5="13000.00000" pt_clust_6="13000.00000" pt_clust_7="13000.00000" pt_clust_8="13000.00000" pt_clust_9="48.63554"></scales>
<clustering>
<clus scale="   48.636">  1  9  2 -1</clus>
<clus scale="   79.108">  5  6 -1 -1</clus>
<clus scale="   89.428">  2  5  1 -1</clus>
<clus scale="   93.393">  7  8 -1 -1</clus>
<clus scale="   48.636">  1  5  2 -1</clus>
</clustering>
</event>
<event>
 9    1  0.2674825E-005  0.9089514E+02  0.7546771E-02  0.1305735E+00
         -2   -1    0    0    0  501 -0.00000000000E+00  0.00000000000E+00  0.32453170204E+03  0.32453170204E+03  0.00000000000E+00 0.  1.
          1   -1    0    0  502    0  0.00000000000E+00 -0.00000000000E+00 -0.82223288486E+02  0.82223288486E+02  0.00000000000E+00 0. -1.
         23    2    1    2    0    0  0.12823516541E+02 -0.14779418776E+02  0.16903239366E+03  0.18565029410E+03  0.74237509377E+02 0.  0.
        -24    2    1    2    0    0  0.40643959868E+02 -0.25827920724E+02 -0.27599237608E+02  0.99929019693E+02  0.83096799564E+02 0.  0.
         13    1    4    4    0    0  0.10668411551E+02 -0.52766891476E+02 -0.59003480487E+01  0.54156938135E+02  0.00000000000E+00 0. -1.
        -14    1    4    4    0    0  0.29975548317E+02  0.26938970752E+02 -0.21698889559E+02  0.45772081558E+02  0.00000000000E+00 0.  1.
        -13    1    3    3    0    0 -0.10645740626E+02  0.26796969906E+02  0.57334159945E+02  0.64176438716E+02  0.00000000000E+00 0.  1.
         13    1    3    3    0    0  0.23469257167E+02 -0.41576388682E+02  0.11169823371E+03  0.12147385539E+03  0.00000000000E+00 0. -1.
         21    1    1    2  502  501 -0.53467476409E+02  0.40607339500E+02  0.10087525750E+03  0.12117567673E+03  0.00000000000E+00 0.  1.
<scales pt_clust_5="13000.00000" pt_clust_6="13000.00000" pt_clust_7="13000.00000" pt_clust_8="13000.00000" pt_clust_9="67.13961"></scales>
<clustering>
<clus scale="   67.140">  1  9  2 -1</clus>
<clus scale="   74.238">  7  8 -1 -1</clus>
<clus scale="   82.874">  1  7  2 -1</clus>
<clus scale="   83.097">  5  6 -1 -1</clus>
<clus scale="   90.895">  2  5  1 -1</clus>
</clustering>
</event>
<event>
 9    1  0.2674825E-005  0.1571696E+03  0.7546771E-02  0.1193387E+00
          1   -1    0    0  502    0  0.00000000000E+00  0.00000000000E+00  0.65394594545E+03  0.65394594545E+03  0.00000000000E+00 0. -1.
         -2   -1    0    0    0  501 -0.00000000000E+00 -0.00000000000E+00 -0.13282930931E+03  0.13282930931E+03  0.00000000000E+00 0.  1.
         23    2    1    2    0    0 -0.45073132611E+02 -0.11938114702E+03 -0.63706769372E+02  0.16806073573E+03  0.88895516667E+02 0.  0.
        -24    2    1    2    0    0  0.74170870392E+02  0.13017906736E+03  0.46789321517E+03  0.49773541819E+03  0.79803371647E+02 0.  0.
         11    1    4    4    0    0  0.15319783576E+02  0.82884214206E+02  0.16144297987E+03  0.18212172985E+03  0.00000000000E+00 0. -1.
        -12    1    4    4    0    0  0.58851086817E+02  0.47294853154E+02  0.30645023530E+03  0.31561368834E+03  0.00000000000E+00 0.  1.
        -13    1    3    3    0    0 -0.31369858707E+02 -0.10426961656E+03 -0.85326657684E+02  0.13833603827E+03  0.00000000000E+00 0.  1.
         13    1    3    3    0    0 -0.13703273903E+02 -0.15111530460E+02  0.21619888312E+02  0.29724697461E+02  0.00000000000E+00 0. -1.
         21    1    1    2  502  501 -0.29097737781E+02 -0.10797920336E+02  0.11693019034E+03  0.12097910084E+03  0.00000000000E+00 0. -1.
<scales pt_clust_5="13000.00000" pt_clust_6="13000.00000" pt_clust_7="13000.00000" pt_clust_8="13000.00000" pt_clust_9="31.03665"></scales>
<clustering>
<clus scale="   31.037">  1  9  2 -1</clus>
<clus scale="   79.803">  5  6 -1 -1</clus>
<clus scale="   88.896">  7  8 -1 -1</clus>
<clus scale="  152.212">  1  5  2 -1</clus>
<clus scale="   31.037">  1  5  2 -1</clus>
</clustering>
</event>
<event>
 9    1  0.2674825E-005  0.9517522E+02  0.7546771E-02  0.1297006E+00
         -2   -1    0    0    0  501 -0.00000000000E+00  0.00000000000E+00  0.47915342533E+02  0.47915342533E+02  0.00000000000E+00 0.  1.
          1   -1    0    0  502    0  0.00000000000E+00 -0.00000000000E+00 -0.44374081012E+03  0.44374081012E+03  0.00000000000E+00 0. -1.
        -24    2    1    2    0    0  0.40698862082E+01  0.21053727920E+02 -0.15292083471E+02  0.85276550474E+02  0.81107452251E+02 0.  0.
         23    2    1    2    0    0 -0.39591454768E+02 -0.32516687252E+02 -0.27652773580E+03  0.29587912186E+03  0.91935019683E+02 0.  0.
         13    1    3    3    0    0 -0.27901240876E+02  0.20179247842E+02 -0.33861382520E+02  0.48293628069E+02  0.00000000000E+00 0. -1.
        -14    1    3    3    0    0  0.31971127084E+02  0.87448007796E+00  0.18569299049E+02  0.36982922405E+02  0.00000000000E+00 0.  1.
        -11    1    4    4    0    0  0.22595610881E+02 -0.26898397163E+02 -0.15856723932E+03  0.16241199089E+03  0.00000000000E+00 0.  1.
         11    1    4    4    0    0 -0.62187065649E+02 -0.56182900894E+01 -0.11796049648E+03  0.13346713096E+03  0.00000000000E+00 0. -1.
         21    1    1    2  502  501  0.35521568560E+02  0.11462959333E+02 -0.10400564832E+03  0.11050048032E+03  0.00000000000E+00 0.  1.
<scales pt_clust_5="13000.00000" pt_clust_6="13000.00000" pt_clust_7="13000.00000" pt_clust_8="13000.00000" pt_clust_9="37.32534"></scales>
<clustering>
<clus scale="   37.325">  2  9  1 -1</clus>
<clus scale="   81.107">  5  6 -1 -1</clus>
<clus scale="   84.763">  1  5  2 -1</clus>
<clus scale="   91.935">  7  8 -1 -1</clus>
<clus scale="   37.325">  2  5  1 -1</clus>
</clustering>
</event>
<event>
 9    1  0.2674825E-005  0.9505211E+02  0.7546771E-02  0.1297309E+00
         -2   -1    0    0    0  501 -0.00000000000E+00  0.00000000000E+00  0.10869505308E+03  0.10869505308E+03  0.00000000000E+00 0.  1.
          1   -1    0    0  502    0  0.00000000000E+00 -0.00000000000E+00 -0.16836213483E+03  0.16836213483E+03  0.00000000000E+00 0. -1.
         23    2    1    2    0    0  0.36552587249E+02  0.14321308004E+02  0.46149019227E+02  0.10893698678E+03  0.90533660127E+02 0.  0.
        -24    2    1    2    0    0 -0.98912113751E+01 -0.35526860363E+01 -0.27647829745E+02  0.84831121351E+02  0.79507603533E+02 0.  0.
         11    1    4    4    0    0 -0.39311797950E+02 -0.21007179216E+02 -0.77046047477E+01  0.45233615497E+02  0.00000000000E+00 0. -1.
        -12    1    4    4    0    0  0.29420586575E+02  0.17454493179E+02 -0.19943224997E+02  0.39597505854E+02  0.00000000000E+00 0.  1.
        -11    1    3    3    0    0  0.52081089743E+02 -0.15364438851E+02  0.31008210068E+01  0.54388610765E+02  0.00000000000E+00 0. -1.
         11    1    3    3    0    0 -0.15528502494E+02  0.29685746856E+02  0.43048198221E+02  0.54548376017E+02  0.00000000000E+00 0.  1.
         21    1    1    2  502  501 -0.26661375874E+02 -0.10768621968E+02 -0.78168271230E+02  0.83289079775E+02  0.00000000000E+00 0. -1.
<scales pt_clust_5="13000.00000" pt_clust_6="13000.00000" pt_clust_7="13000.00000" pt_clust_8="13000.00000" pt_clust_9="28.75399"></scales>
<clustering>
<clus scale="   28.754">  2  9  1 -1</clus>
<clus scale="   79.508">  5  6 -1 -1</clus>
<clus scale="   84.617">  2  5  1 -1</clus>
<clus scale="   90.534">  7  8 -1 -1</clus>
<clus scale="   28.754">  2  5  1 -1</clus>
</clustering>
</event>
<event>
 9    1  0.2674825E-005  0.8984814E+02  0.7546771E-02  0.1305759E+00
         -2   -1    0    0    0  501 -0.00000000000E+00  0.00000000000E+00  0.48281471738E+03  0.48281471738E+03  0.00000000000E+00 0.  1.
          1   -1    0    0  502    0  0.00000000000E+00 -0.00000000000E+00 -0.50647251406E+02  0.50647251406E+02  0.00000000000E+00 0. -1.
        -24    2    1    2    0    0  0.43133282467E+02 -0.15406140689E+02  0.35485865234E+03  0.36567751988E+03  0.75482158004E+02 0.  0.
         23    2    1    2    0    0 -0.15279031060E+02 -0.27179854654E+02  0.14845107698E+02  0.87216832088E+02  0.80088733839E+02 0.  0.
         13    1    3    3    0    0  0.12400792932E+02 -0.44156844732E+02  0.20106226714E+03  0.20622716084E+03  0.00000000000E+00 0. -1.
        -14    1    3    3    0    0  0.30732489534E+02  0.28750704043E+02  0.15379638520E+03  0.15945035903E+03  0.00000000000E+00 0.  1.
        -13    1    4    4    0    0 -0.36656902336E+02 -0.52599202487E+01 -0.18962433816E+02  0.41604917331E+02  0.00000000000E+00 0. -1.
         13    1    4    4    0    0  0.21377871276E+02 -0.21919934405E+02  0.33807541514E+02  0.45611914758E+02  0.00000000000E+00 0.  1.
         21    1    1    2  502  501 -0.27854251407E+02  0.42585995342E+02  0.62463705935E+02  0.80567616819E+02  0.00000000000E+00 0. -1.
<scales pt_clust_5="13000.00000" pt_clust_6="13000.00000" pt_clust_7="13000.00000" pt_clust_8="13000.00000" pt_clust_9="50.88641"></scales>
<clustering>
<clus scale="   50.886">  2  9  1 -1</clus>
<clus scale="   75.482">  5  6 -1 -1</clus>
<clus scale="   80.089">  7  8 -1 -1</clus>
<clus scale="   85.767">  1  5  2 -1</clus>
<clus scale="   50.886">  2  5  1 -1</clus>
</clustering>
</event>
<event>
 9    1  0.2674825E-005  0.1021258E+03  0.7546771E-02  0.1279961E+00
         -2   -1    0    0    0  501 -0.00000000000E+00  0.00000000000E+00  0.13820273216E+03  0.13820273216E+03  0.00000000000E+00 0.  1.
          1   -1    0    0  502    0  0.00000000000E+00 -0.00000000000E+00 -0.24364619010E+03  0.24364619010E+03  0.00000000000E+00 0. -1.
         23    2    1    2    0    0 -0.28460167827E+02 -0.49571681432E+02  0.97211129194E+02  0.14271791834E+03  0.87470382553E+02 0.  0.
        -24    2    1    2    0    0  0.18357219119E+02  0.26198184107E+02 -0.89779008495E+02  0.12341892070E+03  0.78413183044E+02 0.  0.
         11    1    4    4    0    0  0.24011116454E+02 -0.17529548987E+02 -0.84497273975E+01  0.30906580111E+02  0.00000000000E+00 0. -1.
        -12    1    4    4    0    0 -0.56538973350E+01  0.43727733094E+02 -0.81329281097E+02  0.92512340584E+02  0.00000000000E+00 0.  1.
        -13    1    3    3    0    0 -0.24393890431E+02  0.15460384846E+01  0.87082684153E+02  0.90448029302E+02  0.00000000000E+00 0.  1.
         13    1    3    3    0    0 -0.40662773955E+01 -0.51117719916E+02  0.10128445041E+02  0.52269889040E+02  0.00000000000E+00 0. -1.
         21    1    1    2  502  501  0.10102948708E+02  0.23373497325E+02 -0.11287557865E+03  0.11571208323E+03  0.00000000000E+00 0.  1.
<scales pt_clust_5="13000.00000" pt_clust_6="13000.00000" pt_clust_7="13000.00000" pt_clust_8="13000.00000" pt_clust_9="25.46350"></scales>
<clustering>
<clus scale="   25.464">  2  9  1 -1</clus>
<clus scale="   78.413">  5  6 -1 -1</clus>
<clus scale="   87.470">  7  8 -1 -1</clus>
<clus scale="   94.484">  2  5  1 -1</clus>
<clus scale="   25.464">  2  5  1 -1</clus>
</clustering>
</event>
<event>
 9    1  0.2674825E-005  0.2047475E+03  0.7546771E-02  0.1146797E+00
         -2   -1    0    0    0  501 -0.00000000000E+00  0.00000000000E+00  0.38878475277E+03  0.38878475277E+03  0.00000000000E+00 0.  1.
          1   -1    0    0  502    0  0.00000000000E+00 -0.00000000000E+00 -0.12449128371E+03  0.12449128371E+03  0.00000000000E+00 0. -1.
         23    2    1    2    0    0  0.17539263463E+03 -0.95480419582E+02  0.13292823868E+03  0.25687582496E+03  0.91848712581E+02 0.  0.
        -24    2    1    2    0    0 -0.14978574194E+03  0.79627428430E+02  0.99274796159E+02  0.21239082332E+03  0.80486525777E+02 0.  0.
         13    1    4    4    0    0 -0.41263682086E+02  0.52090703023E+02  0.61047458116E+01  0.66733804943E+02  0.00000000000E+00 0. -1.
        -14    1    4    4    0    0 -0.10852205985E+03  0.27536725407E+02  0.93170050347E+02  0.14565701838E+03  0.00000000000E+00 0.  1.
        -13    1    3    3    0    0  0.76112455395E+02 -0.89302560232E+02  0.92862351273E+02  0.14963779407E+03  0.00000000000E+00 0.  1.
         13    1    3    3    0    0  0.99280179232E+02 -0.61778593504E+01  0.40065887411E+02  0.10723803089E+03  0.00000000000E+00 0. -1.
         21    1    1    2  502  501 -0.25606892691E+02  0.15852991152E+02  0.32090434216E+02  0.44009388202E+02  0.00000000000E+00 0. -1.
<scales pt_clust_5="13000.00000" pt_clust_6="13000.00000" pt_clust_7="13000.00000" pt_clust_8="13000.00000" pt_clust_9="30.11694"></scales>
<clustering>
<clus scale="   30.117">  1  9  2 -1</clus>
<clus scale="   80.487">  5  6 -1 -1</clus>
<clus scale="   91.849">  7  8 -1 -1</clus>
<clus scale="  199.909">  2  5  1 -1</clus>
<clus scale="  199.909">  2  5  1 -1</clus>
</clustering>
</event>
<event>
 9    1  0.2674825E-005  0.1587428E+03  0.7546771E-02  0.1191736E+00
          1   -1    0    0  502    0  0.00000000000E+00  0.00000000000E+00  0.31612071081E+03  0.31612071081E+03  0.00000000000E+00 0. -1.
         -2   -1    0    0    0  501 -0.00000000000E+00 -0.00000000000E+00 -0.47954298715E+03  0.47954298715E+03  0.00000000000E+00 0.  1.
         23    2    1    2    0    0 -0.11887690961E+03  0.69260813928E+02 -0.43776940597E+03  0.46759776202E+03  0.89871209262E+02 0.  0.
        -24    2    1    2    0    0  0.50575726379E+02 -0.41172403096E+02  0.12913491387E+03  0.16515308176E+03  0.79665824283E+02 0.  0.
         11    1    4    4    0    0  0.40323007845E+02  0.14084323330E+02  0.79157171561E+02  0.89945377507E+02  0.00000000000E+00 0. -1.
        -12    1    4    4    0    0  0.10252718534E+02 -0.55256726425E+02  0.49977742313E+02  0.75207704254E+02  0.00000000000E+00 0.  1.
        -13    1    3    3    0    0 -0.10797775450E+03  0.15628914302E+02 -0.27384357530E+03  0.29477747906E+03  0.00000000000E+00 0.  1.
         13    1    3    3    0    0 -0.10899155115E+02  0.53631899626E+02 -0.16392583067E+03  0.17282028296E+03  0.00000000000E+00 0. -1.
         21    1    1    2  502  501  0.68301183233E+02 -0.28088410832E+02  0.14521221575E+03  0.16291285418E+03  0.00000000000E+00 0. -1.
<scales pt_clust_5="13000.00000" pt_clust_6="13000.00000" pt_clust_7="13000.00000" pt_clust_8="13000.00000" pt_clust_9="73.85127"></scales>
<clustering>
<clus scale="   73.851">  1  9  2 -1</clus>
<clus scale="   79.666">  5  6 -1 -1</clus>
<clus scale="   89.871">  7  8 -1 -1</clus>
<clus scale="  153.196">  1  5  2 -1</clus>
<clus scale="   73.851">  1  5  2 -1</clus>
</clustering>
</event>
<event>
 9    1  0.2674825E-005  0.1014710E+03  0.7546771E-02  0.1287284E+00
         -2   -1    0    0    0  501 -0.00000000000E+00  0.00000000000E+00  0.45618434544E+03  0.45618434544E+03  0.00000000000E+00 0.  1.
          1   -1    0    0  502    0  0.00000000000E+00 -0.00000000000E+00 -0.59059837822E+02  0.59059837822E+02  0.00000000000E+00 0. -1.
        -24    2    1    2    0    0  0.29117058349E+02 -0.23203198637E+00  0.35140998436E+03  0.36161777794E+03  0.80190917719E+02 0.  0.
         23    2    1    2    0    0  0.13906016522E+02  0.45013701470E+01  0.15162269037E+02  0.10068632167E+03  0.98459135384E+02 0.  0.
         11    1    3    3    0    0  0.28212916351E+02 -0.11445587637E+02  0.41329088748E+02  0.51332871556E+02  0.00000000000E+00 0. -1.
        -12    1    3    3    0    0  0.90414199814E+00  0.11213555650E+02  0.31008089561E+03  0.31028490638E+03  0.00000000000E+00 0.  1.
        -11    1    4    4    0    0  0.46356546352E+02 -0.20470288893E+02 -0.11317712608E+02  0.51923527767E+02  0.00000000000E+00 0.  1.
         11    1    4    4    0    0 -0.32450529830E+02  0.24971659040E+02  0.26479981645E+02  0.48762793905E+02  0.00000000000E+00 0. -1.
         21    1    1    2  502  501 -0.43023074871E+02 -0.42693381607E+01  0.30552254223E+02  0.52940083659E+02  0.00000000000E+00 0.  1.
<scales pt_clust_5="13000.00000" pt_clust_6="13000.00000" pt_clust_7="13000.00000" pt_clust_8="13000.00000" pt_clust_9="43.23439"></scales>
<clustering>
<clus scale="   43.234">  2  9  1 -1</clus>
<clus scale="   80.191">  5  6 -1 -1</clus>
<clus scale="   83.862">  1  5  2 -1</clus>
<clus scale="   98.459">  7  8 -1 -1</clus>
<clus scale="   43.234">  2  5  1 -1</clus>
</clustering>
</event>
<event>
 9    1  0.2674825E-005  0.9878893E+02  0.7546771E-02  0.1288431E+00
         -2   -1    0    0    0  501 -0.00000000000E+00  0.00000000000E+00  0.10806508530E+03  0.10806508530E+03  0.00000000000E+00 0.  1.
          1   -1    0    0  502    0  0.00000000000E+00 -0.00000000000E+00 -0.31670316779E+03  0.31670316779E+03  0.00000000000E+00 0. -1.
        -24    2    1    2    0    0 -0.35224423537E+02 -0.91727399940E+01  0.72621056260E+02  0.11529309862E+03  0.81815534000E+02 0.  0.
         23    2    1    2    0    0  0.21847134225E+02 -0.17604342397E+02 -0.23815703201E+03  0.25699891589E+03  0.92425433338E+02 0.  0.
         13    1    3    3    0    0 -0.37390411316E+02 -0.17142914456E+02 -0.10638633064E+01  0.41146739599E+02  0.00000000000E+00 0. -1.
        -14    1    3    3    0    0  0.21659877794E+01  0.79701744622E+01  0.73684919566E+02  0.74146359017E+02  0.00000000000E+00 0.  1.
        -11    1    4    4    0    0 -0.77572555364E+01  0.32973429966E+02 -0.12574356451E+03  0.13022621132E+03  0.00000000000E+00 0. -1.
         11    1    4    4    0    0  0.29604389762E+02 -0.50577772363E+02 -0.11241346750E+03  0.12677270457E+03  0.00000000000E+00 0.  1.
         21    1    1    2  502  501  0.13377289312E+02  0.26777082391E+02 -0.43102106744E+02  0.52476238589E+02  0.00000000000E+00 0. -1.
<scales pt_clust_5="13000.00000" pt_clust_6="13000.00000" pt_clust_7="13000.00000" pt_clust_8="13000.00000" pt_clust_9="29.93266"></scales>
<clustering>
<clus scale="   29.933">  2  9  1 -1</clus>
<clus scale="   81.816">  5  6 -1 -1</clus>
<clus scale="   88.941">  1  5  2 -1</clus>
<clus scale="   92.425">  7  8 -1 -1</clus>
<clus scale="   29.933">  2  5  1 -1</clus>
</clustering>
</event>
<event>
 9    1  0.2674825E-005  0.1269002E+03  0.7546771E-02  0.1235406E+00
          1   -1    0    0  502    0  0.00000000000E+00  0.00000000000E+00  0.70723735463E+03  0.70723735463E+03  0.00000000000E+00 0. -1.
         -2   -1    0    0    0  501 -0.00000000000E+00 -0.00000000000E+00 -0.86801572188E+02  0.86801572188E+02  0.00000000000E+00 0.  1.
        -24    2    1    2    0    0  0.85865911830E+02  0.42348074163E+02  0.12340181766E+01  0.12474963086E+03  0.79966451709E+02 0.  0.
         23    2    1    2    0    0 -0.72237805613E+02  0.72863015920E+02  0.35403776040E+03  0.37985662762E+03  0.91766018263E+02 0.  0.
         11    1    3    3    0    0  0.29891005841E+02  0.32092644651E+02  0.37133439328E+02  0.57465662680E+02  0.00000000000E+00 0. -1.
        -12    1    3    3    0    0  0.55974905989E+02  0.10255429512E+02 -0.35899421152E+02  0.67283968179E+02  0.00000000000E+00 0.  1.
        -11    1    4    4    0    0 -0.65714553939E+02  0.75195464277E+01  0.23234404332E+03  0.24157545539E+03  0.00000000000E+00 0. -1.
         11    1    4    4    0    0 -0.65232516737E+01  0.65343469492E+02  0.12169371708E+03  0.13828117224E+03  0.00000000000E+00 0.  1.
         21    1    1    2  502  501 -0.13628106217E+02 -0.11521109008E+03  0.26516400386E+03  0.28943266834E+03  0.00000000000E+00 0. -1.
<scales pt_clust_5="13000.00000" pt_clust_6="13000.00000" pt_clust_7="13000.00000" pt_clust_8="13000.00000" pt_clust_9="116.01431"></scales>
<clustering>
<clus scale="   79.966">  5  6 -1 -1</clus>
<clus scale="   91.766">  7  8 -1 -1</clus>
<clus scale="  116.014">  1  9  2 -1</clus>
<clus scale="  118.648">  2  5  1 -1</clus>
<clus scale="  116.014">  1  5  2 -1</clus>
</clustering>
</event>
<event>
 9    1  0.2674825E-005  0.1409236E+03  0.7546771E-02  0.1214531E+00
         -2   -1    0    0    0  501 -0.00000000000E+00  0.00000000000E+00  0.77414870357E+03  0.77414870357E+03  0.00000000000E+00 0.  1.
          1   -1    0    0  502    0  0.00000000000E+00 -0.00000000000E+00 -0.43026097727E+02  0.43026097727E+02  0.00000000000E+00 0. -1.
         23    2    1    2    0    0 -0.37269975535E+02 -0.99833313761E+02  0.52932813953E+03  0.54774406324E+03  0.92084406425E+02 0.  0.
        -24    2    1    2    0    0  0.58635292785E+02  0.91420322737E+02  0.20560010260E+03  0.24615547078E+03  0.80779580561E+02 0.  0.
         13    1    4    4    0    0  0.36871579974E+02  0.26210344392E+02  0.22397332025E+02  0.50479065411E+02  0.00000000000E+00 0. -1.
        -14    1    4    4    0    0  0.21763712811E+02  0.65209978345E+02  0.18320277057E+03  0.19567640537E+03  0.00000000000E+00 0.  1.
        -11    1    3    3    0    0  0.26054340222E+02 -0.44078404389E+02  0.13257764611E+03  0.14212166135E+03  0.00000000000E+00 0. -1.
         11    1    3    3    0    0 -0.63324315758E+02 -0.55754909372E+02  0.39675049342E+03  0.40562240189E+03  0.00000000000E+00 0.  1.
         21    1    1    2  502  501 -0.21365317250E+02  0.84129910236E+01 -0.38056362869E+01  0.23275267274E+02  0.00000000000E+00 0. -1.
<scales pt_clust_5="13000.00000" pt_clust_6="13000.00000" pt_clust_7="13000.00000" pt_clust_8="13000.00000" pt_clust_9="22.96204"></scales>
<clustering>
<clus scale="   22.962">  2  9  1 -1</clus>
<clus scale="   80.780">  5  6 -1 -1</clus>
<clus scale="   92.084">  7  8 -1 -1</clus>
<clus scale="  133.811">  2  5  1 -1</clus>
<clus scale="   22.962">  2  5  1 -1</clus>
</clustering>
</event>
<event>
 9    1  0.2674825E-005  0.9312550E+02  0.7546771E-02  0.1298872E+00
          1   -1    0    0  502    0  0.00000000000E+00  0.00000000000E+00  0.25964277797E+03  0.25964277797E+03  0.00000000000E+00 0. -1.
         -2   -1    0    0    0  501 -0.00000000000E+00 -0.00000000000E+00 -0.59069121513E+02  0.59069121513E+02  0.00000000000E+00 0.  1.
        -24    2    1    2    0    0 -0.27677382915E+02  0.15753794837E+01  0.19979863795E+02  0.92453580044E+02  0.85906636298E+02 0.  0.
         23    2    1    2    0    0 -0.10996041938E+02  0.14019937756E+02  0.11053314455E+03  0.14472708540E+03  0.91710858748E+02 0.  0.
         13    1    3    3    0    0 -0.40207143534E+02 -0.33775609888E+02  0.82419751018E+01  0.53153893254E+02  0.00000000000E+00 0. -1.
        -14    1    3    3    0    0  0.12529760620E+02  0.35350989372E+02  0.11737888693E+02  0.39299686789E+02  0.00000000000E+00 0.  1.
        -13    1    4    4    0    0  0.35037488475E+02 -0.85352322002E+01  0.21482863015E+02  0.41976054968E+02  0.00000000000E+00 0.  1.
         13    1    4    4    0    0 -0.46033530413E+02  0.22555169956E+02  0.89050281535E+02  0.10275103044E+03  0.00000000000E+00 0. -1.
         21    1    1    2  502  501  0.38673424853E+02 -0.15595317240E+02  0.70060648112E+02  0.81531234037E+02  0.00000000000E+00 0.  1.
<scales pt_clust_5="13000.00000" pt_clust_6="13000.00000" pt_clust_7="13000.00000" pt_clust_8="13000.00000" pt_clust_9="41.69949"></scales>
<clustering>
<clus scale="   41.699">  1  9  2 -1</clus>
<clus scale="   85.907">  5  6 -1 -1</clus>
<clus scale="   87.415">  2  5  1 -1</clus>
<clus scale="   91.711">  7  8 -1 -1</clus>
<clus scale="   41.699">  1  5  2 -1</clus>
</clustering>
</event>
<event>
 9    1  0.2674825E-005  0.2362686E+03  0.7546771E-02  0.1123464E+00
          1   -1    0    0  502    0  0.00000000000E+00  0.00000000000E+00  0.15742246837E+04  0.15742246837E+04  0.00000000000E+00 0. -1.
         -2   -1    0    0    0  501 -0.00000000000E+00 -0.00000000000E+00 -0.51275873513E+02  0.51275873513E+02  0.00000000000E+00 0.  1.
        -24    2    1    2    0    0  0.18808542712E+03 -0.84668685587E+02  0.39689559796E+03  0.45424667937E+03  0.79177116798E+02 0.  0.
         23    2    1    2    0    0 -0.23390733508E+03  0.43988862426E+02  0.82795072926E+03  0.86691921729E+03  0.96947706530E+02 0.  0.
         13    1    3    3    0    0  0.94666876571E+02 -0.44087393201E+01  0.13625231533E+03  0.16596971993E+03  0.00000000000E+00 0. -1.
        -14    1    3    3    0    0  0.93418550551E+02 -0.80259946267E+02  0.26064328263E+03  0.28827695944E+03  0.00000000000E+00 0.  1.
        -13    1    4    4    0    0 -0.83707264440E+02  0.61847925402E+02  0.29011683982E+03  0.30822046127E+03  0.00000000000E+00 0.  1.
         13    1    4    4    0    0 -0.15020007064E+03 -0.17859062976E+02  0.53783388943E+03  0.55869875602E+03  0.00000000000E+00 0. -1.
         21    1    1    2  502  501  0.45821907959E+02  0.40679823161E+02  0.29810248294E+03  0.30433466053E+03  0.00000000000E+00 0. -1.
<scales pt_clust_5="13000.00000" pt_clust_6="13000.00000" pt_clust_7="13000.00000" pt_clust_8="13000.00000" pt_clust_9="61.27394"></scales>
<clustering>
<clus scale="   61.274">  1  9  2 -1</clus>
<clus scale="   79.177">  5  6 -1 -1</clus>
<clus scale="   96.948">  7  8 -1 -1</clus>
<clus scale="  229.550">  2  5  1 -1</clus>
<clus scale="   61.274">  1  5  2 -1</clus>
</clustering>
</event>
<event>
 9    1  0.2674825E-005  0.1111519E+03  0.7546771E-02  0.1264029E+00
         -2   -1    0    0    0  501 -0.00000000000E+00  0.00000000000E+00  0.17150213726E+03  0.17150213726E+03  0.00000000000E+00 0.  1.
          1   -1    0    0  502    0  0.00000000000E+00 -0.00000000000E+00 -0.18149323528E+03  0.18149323528E+03  0.00000000000E+00 0. -1.
         23    2    1    2    0    0  0.53501464899E+02 -0.26354870131E+02  0.12087367808E+03  0.16530480578E+03  0.95698729539E+02 0.  0.
        -24    2    1    2    0    0 -0.49241699539E+02 -0.32183496853E+01 -0.66018444820E+02  0.11629191403E+03  0.82038231720E+02 0.  0.
         13    1    4    4    0    0 -0.53100427320E+02  0.12701404281E+02 -0.70034454504E+01  0.55045701925E+02  0.00000000000E+00 0. -1.
        -14    1    4    4    0    0  0.38587277811E+01 -0.15919753966E+02 -0.59014999369E+02  0.61246212103E+02  0.00000000000E+00 0.  1.
        -13    1    3    3    0    0  0.26685606704E+02 -0.58554419577E+02  0.98894971199E+02  0.11798710517E+03  0.00000000000E+00 0.  1.
         13    1    3    3    0    0  0.26815858195E+02  0.32199549446E+02  0.21978706886E+02  0.47317700616E+02  0.00000000000E+00 0. -1.
         21    1    1    2  502  501 -0.42597653597E+01  0.29573219816E+02 -0.64846331276E+02  0.71398652727E+02  0.00000000000E+00 0. -1.
<scales pt_clust_5="13000.00000" pt_clust_6="13000.00000" pt_clust_7="13000.00000" pt_clust_8="13000.00000" pt_clust_9="29.87844"></scales>
<clustering>
<clus scale="   29.878">  2  9  1 -1</clus>
<clus scale="   82.038">  5  6 -1 -1</clus>
<clus scale="   95.699">  7  8 -1 -1</clus>
<clus scale="   99.633">  2  5  1 -1</clus>
<clus scale="   29.878">  2  5  1 -1</clus>
</clustering>
</event>
<event>
 9    1  0.2674825E-005  0.1649670E+03  0.7546771E-02  0.1197182E+00
          1   -1    0    0  502    0  0.00000000000E+00  0.00000000000E+00  0.26921098497E+03  0.26921098497E+03  0.00000000000E+00 0. -1.
         -2   -1    0    0    0  501 -0.00000000000E+00 -0.00000000000E+00 -0.50283588091E+03  0.50283588091E+03  0.00000000000E+00 0.  1.
        -24    2    1    2    0    0  0.41912449228E+02  0.80246473680E+02 -0.26375248433E+03  0.29024060840E+03  0.80486569285E+02 0.  0.
         23    2    1    2    0    0  0.84330154967E+02 -0.13449770321E+03 -0.16260160968E+03  0.24511038761E+03  0.91861915067E+02 0.  0.
         11    1    3    3    0    0 -0.73920263033E+01  0.38366915867E+02 -0.34795103686E+02  0.52319800521E+02  0.00000000000E+00 0. -1.
        -12    1    3    3    0    0  0.49304475531E+02  0.41879557813E+02 -0.22895738065E+03  0.23792080788E+03  0.00000000000E+00 0.  1.
        -11    1    4    4    0    0  0.50541437709E+02 -0.51025882643E+02 -0.13150946380E+03  0.14984263978E+03  0.00000000000E+00 0. -1.
         11    1    4    4    0    0  0.33788717258E+02 -0.83471820566E+02 -0.31092145877E+02  0.95267747836E+02  0.00000000000E+00 0.  1.
         21    1    1    2  502  501 -0.12624260419E+03  0.54251229529E+02  0.19272919808E+03  0.23669586986E+03  0.00000000000E+00 0. -1.
<scales pt_clust_5="13000.00000" pt_clust_6="13000.00000" pt_clust_7="13000.00000" pt_clust_8="13000.00000" pt_clust_9="137.02374"></scales>
<clustering>
<clus scale="   80.487">  5  6 -1 -1</clus>
<clus scale="   91.862">  7  8 -1 -1</clus>
<clus scale="  121.137">  2  5  1 -1</clus>
<clus scale="  137.024">  1  9  2 -1</clus>
<clus scale="  137.024">  1  5  2 -1</clus>
</clustering>
</event>
<event>
 9    1  0.2674825E-005  0.1846639E+03  0.7546771E-02  0.1167023E+00
          3   -1    0    0  502    0  0.00000000000E+00  0.00000000000E+00  0.49631984497E+03  0.49631984497E+03  0.00000000000E+00 0. -1.
         -4   -1    0    0    0  501 -0.00000000000E+00 -0.00000000000E+00 -0.11693119325E+03  0.11693119325E+03  0.00000000000E+00 0.  1.
         23    2    1    2    0    0 -0.47776861144E+02  0.13273019154E+03 -0.41355041429E+01  0.18456598261E+03  0.11894354684E+03 0.  0.
        -24    2    1    2    0    0  0.29054681869E+02 -0.14018238479E+03  0.34644981425E+03  0.38648834973E+03  0.94077070218E+02 0.  0.
         11    1    4    4    0    0  0.69930546313E+01 -0.85972199495E+02  0.94998011211E+02  0.12831501874E+03  0.00000000000E+00 0. -1.
        -12    1    4    4    0    0  0.22061627238E+02 -0.54210185291E+02  0.25145180304E+03  0.25817333099E+03  0.00000000000E+00 0.  1.
        -13    1    3    3    0    0  0.38953349178E+02  0.53564647718E+02  0.70572855418E+01  0.66605856924E+02  0.00000000000E+00 0. -1.
         13    1    3    3    0    0 -0.86730210323E+02  0.79165543820E+02 -0.11192789685E+02  0.11796012569E+03  0.00000000000E+00 0.  1.
         21    1    1    2  502  501  0.18722179275E+02  0.74521932478E+01  0.37074341611E+02  0.42196705878E+02  0.00000000000E+00 0.  1.
<scales pt_clust_5="13000.00000" pt_clust_6="13000.00000" pt_clust_7="13000.00000" pt_clust_8="13000.00000" pt_clust_9="20.15081"></scales>
<clustering>
<clus scale="   20.151">  1  9  2 -1</clus>
<clus scale="   94.077">  5  6 -1 -1</clus>
<clus scale="  118.944">  7  8 -1 -1</clus>
<clus scale="  169.716">  1  5  2 -1</clus>
<clus scale="   20.151">  1  5  2 -1</clus>
</clustering>
</event>
<event>
 9    1  0.2674825E-005  0.1236320E+03  0.7546771E-02  0.1240971E+00
         -2   -1    0    0    0  501 -0.00000000000E+00  0.00000000000E+00  0.19017813077E+03  0.19017813077E+03  0.00000000000E+00 0.  1.
          1   -1    0    0  502    0  0.00000000000E+00 -0.00000000000E+00 -0.22386884060E+03  0.22386884060E+03  0.00000000000E+00 0. -1.
        -24    2    1    2    0    0  0.16149029520E+01  0.86235690733E+02  0.13326498307E+03  0.17834082519E+03  0.81281559713E+02 0.  0.
         23    2    1    2    0    0  0.28983392176E+02 -0.42105405610E+02 -0.13883144755E+03  0.17508675237E+03  0.93639189564E+02 0.  0.
         11    1    3    3    0    0  0.31440903142E+02  0.34075493946E+02  0.98638688696E+02  0.10899202074E+03  0.00000000000E+00 0. -1.
        -12    1    3    3    0    0 -0.29826000190E+02  0.52160196787E+02  0.34626294373E+02  0.69348804447E+02  0.00000000000E+00 0.  1.
        -11    1    4    4    0    0 -0.31109460664E+02 -0.29609668032E+02 -0.75711446872E+02  0.87044552794E+02  0.00000000000E+00 0. -1.
         11    1    4    4    0    0  0.60092852840E+02 -0.12495737578E+02 -0.63120000675E+02  0.88042199571E+02  0.00000000000E+00 0.  1.
         21    1    1    2  502  501 -0.30598295128E+02 -0.44130285122E+02 -0.28124245346E+02  0.60619393811E+02  0.00000000000E+00 0.  1.
<scales pt_clust_5="13000.00000" pt_clust_6="13000.00000" pt_clust_7="13000.00000" pt_clust_8="13000.00000" pt_clust_9="53.70044"></scales>
<clustering>
<clus scale="   53.700">  2  9  1 -1</clus>
<clus scale="   81.282">  5  6 -1 -1</clus>
<clus scale="   93.639">  7  8 -1 -1</clus>
<clus scale="  114.557">  1  5  2 -1</clus>
<clus scale="   53.700">  2  5  1 -1</clus>
</clustering>
</event>
<event>
 9    1  0.2674825E-005  0.9236781E+02  0.7546771E-02  0.1304753E+00
         -4   -1    0    0    0  501 -0.00000000000E+00  0.00000000000E+00  0.18760346735E+03  0.18760346735E+03  0.00000000000E+00 0.  1.
          3   -1    0    0  502    0  0.00000000000E+00 -0.00000000000E+00 -0.11761395460E+03  0.11761395460E+03  0.00000000000E+00 0. -1.
        -24    2    1    2    0    0  0.51266170046E+01 -0.99797397348E+01  0.13581779382E+03  0.15803482234E+03  0.80016589183E+02 0.  0.
         23    2    1    2    0    0  0.99721202157E+01 -0.17151114974E+02 -0.67881039495E+02  0.11606557919E+03  0.92031403465E+02 0.  0.
         11    1    3    3    0    0  0.30522589971E+02  0.71923180383E+01  0.17711583650E+02  0.36014693289E+02  0.00000000000E+00 0. -1.
        -12    1    3    3    0    0 -0.25395972966E+02 -0.17172057773E+02  0.11810621017E+03  0.12202012905E+03  0.00000000000E+00 0.  1.
        -11    1    4    4    0    0 -0.20000101485E+02 -0.42913914537E+02 -0.58837520704E+02  0.75521268282E+02  0.00000000000E+00 0.  1.
         11    1    4    4    0    0  0.29972221701E+02  0.25762799564E+02 -0.90435187907E+01  0.40544310910E+02  0.00000000000E+00 0. -1.
         21    1    1    2  502  501 -0.15098737220E+02  0.27130854708E+02  0.20527584177E+01  0.31117020423E+02  0.00000000000E+00 0. -1.
<scales pt_clust_5="13000.00000" pt_clust_6="13000.00000" pt_clust_7="13000.00000" pt_clust_8="13000.00000" pt_clust_9="31.04924"></scales>
<clustering>
<clus scale="   31.049">  2  9  1 -1</clus>
<clus scale="   80.017">  5  6 -1 -1</clus>
<clus scale="   80.403">  1  5  2 -1</clus>
<clus scale="   92.031">  7  8 -1 -1</clus>
<clus scale="   31.049">  2  5  1 -1</clus>
</clustering>
</event>
<event>
 9    1  0.2674825E-005  0.9688528E+02  0.7546771E-02  0.1293489E+00
          1   -1    0    0  502    0  0.00000000000E+00  0.00000000000E+00  0.10206531227E+03  0.10206531227E+03  0.00000000000E+00 0. -1.
         -2   -1    0    0    0  501 -0.00000000000E+00 -0.00000000000E+00 -0.30562722656E+03  0.30562722656E+03  0.00000000000E+00 0.  1.
         23    2    1    2    0    0 -0.30658392455E+02 -0.38749960975E+02 -0.20525015828E+03  0.23004599531E+03  0.91389474125E+02 0.  0.
        -24    2    1    2    0    0 -0.33188493224E+02  0.16298443171E+02  0.43709354631E+02  0.97983068813E+02  0.79517663192E+02 0.  0.
         11    1    4    4    0    0 -0.56415266899E+02  0.17157873747E+02  0.45775156373E+02  0.74648777028E+02  0.00000000000E+00 0. -1.
        -12    1    4    4    0    0  0.23226773675E+02 -0.85943057523E+00 -0.20658017426E+01  0.23334291785E+02  0.00000000000E+00 0.  1.
        -11    1    3    3    0    0  0.25246614909E+02 -0.10262879979E+02 -0.18247436858E+02  0.32797670980E+02  0.00000000000E+00 0. -1.
         11    1    3    3    0    0 -0.55905007364E+02 -0.28487080996E+02 -0.18700272143E+03  0.19724832433E+03  0.00000000000E+00 0.  1.
         21    1    1    2  502  501  0.63846885679E+02  0.22451517803E+02 -0.42021110636E+02  0.79663474703E+02  0.00000000000E+00 0. -1.
<scales pt_clust_5="13000.00000" pt_clust_6="13000.00000" pt_clust_7="13000.00000" pt_clust_8="13000.00000" pt_clust_9="67.67936"></scales>
<clustering>
<clus scale="   67.679">  2  9  1 -1</clus>
<clus scale="   79.518">  5  6 -1 -1</clus>
<clus scale="   85.778">  1  5  2 -1</clus>
<clus scale="   91.389">  7  8 -1 -1</clus>
<clus scale="   85.778">  1  5  2 -1</clus>
</clustering>
</event>
<event>
 9    1  0.2674825E-005  0.9252533E+02  0.7546771E-02  0.1304984E+00
          1   -1    0    0  502    0  0.00000000000E+00  0.00000000000E+00  0.18492710430E+03  0.18492710430E+03  0.00000000000E+00 0. -1.
         -2   -1    0    0    0  501 -0.00000000000E+00 -0.00000000000E+00 -0.59325379287E+02  0.59325379287E+02  0.00000000000E+00 0.  1.
         23    2    1    2    0    0  0.26182925681E+01 -0.18124304877E+02  0.15709802252E+02  0.94163650171E+02  0.91020048580E+02 0.  0.
        -24    2    1    2    0    0 -0.20494533208E+02  0.64875776791E+01  0.89344925264E+02  0.12047207287E+03  0.77903081547E+02 0.  0.
         13    1    4    4    0    0 -0.34835918192E+02 -0.91467150264E+01  0.86582671244E+01  0.37042802022E+02  0.00000000000E+00 0. -1.
        -14    1    4    4    0    0  0.14341384984E+02  0.15634292705E+02  0.80686658140E+02  0.83429270843E+02  0.00000000000E+00 0.  1.
        -11    1    3    3    0    0 -0.21259123411E+02 -0.22808227232E+02  0.45837648160E+02  0.55436951093E+02  0.00000000000E+00 0. -1.
         11    1    3    3    0    0  0.23877415979E+02  0.46839223557E+01 -0.30127845908E+02  0.38726699078E+02  0.00000000000E+00 0.  1.
         21    1    1    2  502  501  0.17876240640E+02  0.11636727197E+02  0.20546997496E+02  0.29616760549E+02  0.00000000000E+00 0.  1.
<scales pt_clust_5="13000.00000" pt_clust_6="13000.00000" pt_clust_7="13000.00000" pt_clust_8="13000.00000" pt_clust_9="21.33011"></scales>
<clustering>
<clus scale="   21.330">  1  9  2 -1</clus>
<clus scale="   77.903">  5  6 -1 -1</clus>
<clus scale="   79.657">  1  5  2 -1</clus>
<clus scale="   91.020">  7  8 -1 -1</clus>
<clus scale="   21.330">  1  5  2 -1</clus>
</clustering>
</event>
<event>
 9    1  0.2674825E-005  0.1332134E+03  0.7546771E-02  0.1226144E+00
          1   -1    0    0  502    0  0.00000000000E+00  0.00000000000E+00  0.12833762501E+04  0.12833762501E+04  0.00000000000E+00 0. -1.
         -2   -1    0    0    0  501 -0.00000000000E+00 -0.00000000000E+00 -0.25428014822E+02  0.25428014822E+02  0.00000000000E+00 0.  1.
         23    2    1    2    0    0 -0.77894741704E+02 -0.55710489427E+02  0.22637462809E+03  0.26263320285E+03  0.92517444733E+02 0.  0.
        -24    2    1    2    0    0  0.51662073624E+02  0.88781281097E+02  0.69578536662E+03  0.70774001644E+03  0.78914946344E+02 0.  0.
         11    1    4    4    0    0  0.66800745347E+02  0.92225328765E+02  0.60143954605E+03  0.61212529632E+03  0.00000000000E+00 0. -1.
        -12    1    4    4    0    0 -0.15138671724E+02 -0.34440476683E+01  0.94345820570E+02  0.95614720127E+02  0.00000000000E+00 0.  1.
        -11    1    3    3    0    0 -0.80091858311E+01 -0.52223697692E+02  0.49414532289E+02  0.72341258350E+02  0.00000000000E+00 0.  1.
         11    1    3    3    0    0 -0.69885555873E+02 -0.34867917343E+01  0.17696009580E+03  0.19029194450E+03  0.00000000000E+00 0. -1.
         21    1    1    2  502  501  0.26232668080E+02 -0.33070791671E+02  0.33578824057E+03  0.33843104562E+03  0.00000000000E+00 0. -1.
<scales pt_clust_5="13000.00000" pt_clust_6="13000.00000" pt_clust_7="13000.00000" pt_clust_8="13000.00000" pt_clust_9="42.21173"></scales>
<clustering>
<clus scale="   42.212">  1  9  2 -1</clus>
<clus scale="   78.915">  5  6 -1 -1</clus>
<clus scale="   92.517">  7  8 -1 -1</clus>
<clus scale="  124.153">  1  5  2 -1</clus>
<clus scale="   42.212">  1  5  2 -1</clus>
</clustering>
</event>
<event>
 9    1  0.2674825E-005  0.1238735E+03  0.7546771E-02  0.1245566E+00
          1   -1    0    0  502    0  0.00000000000E+00  0.00000000000E+00  0.23891228596E+03  0.23891228596E+03  0.00000000000E+00 0. -1.
         -2   -1    0    0    0  501 -0.00000000000E+00 -0.00000000000E+00 -0.20727576613E+03  0.20727576613E+03  0.00000000000E+00 0.  1.
        -24    2    1    2    0    0 -0.26036199217E+02  0.76397711142E+02 -0.15760026205E+03  0.18795803149E+03  0.63054619726E+02 0.  0.
         23    2    1    2    0    0  0.51141467692E+02 -0.93571483322E+02  0.17450232361E+03  0.22443183697E+03  0.92452778719E+02 0.  0.
         11    1    3    3    0    0 -0.19098560976E+02  0.29782919771E+02 -0.16204197633E+02  0.38914693399E+02  0.00000000000E+00 0. -1.
        -12    1    3    3    0    0 -0.69376382410E+01  0.46614791371E+02 -0.14139606441E+03  0.14904333809E+03  0.00000000000E+00 0.  1.
        -11    1    4    4    0    0  0.71068746644E+02 -0.95770131700E+02  0.16058884507E+03  0.20002865304E+03  0.00000000000E+00 0. -1.
         11    1    4    4    0    0 -0.19927278952E+02  0.21986483778E+01  0.13913478546E+02  0.24403183939E+02  0.00000000000E+00 0.  1.
         21    1    1    2  502  501 -0.25105268475E+02  0.17173772180E+02  0.14734458260E+02  0.33798183624E+02  0.00000000000E+00 0.  1.
<scales pt_clust_5="13000.00000" pt_clust_6="13000.00000" pt_clust_7="13000.00000" pt_clust_8="13000.00000" pt_clust_9="30.41731"></scales>
<clustering>
<clus scale="   30.417">  1  9  2 -1</clus>
<clus scale="   63.055">  5  6 -1 -1</clus>
<clus scale="   92.453">  7  8 -1 -1</clus>
<clus scale="  103.793">  2  5  1 -1</clus>
<clus scale="   30.417">  1  5  2 -1</clus>
</clustering>
</event>
<event>
 9    1  0.2674825E-005  0.9377465E+02  0.7546771E-02  0.1302786E+00
         -2   -1    0    0    0  501 -0.00000000000E+00  0.00000000000E+00  0.52645083687E+02  0.52645083687E+02  0.00000000000E+00 0.  1.
          1   -1    0    0  502    0  0.00000000000E+00 -0.00000000000E+00 -0.33169944381E+03  0.33169944381E+03  0.00000000000E+00 0. -1.
         23    2    1    2    0    0  0.59592929536E+01  0.15902206772E+02 -0.20632245756E+02  0.94795454564E+02  0.90951059853E+02 0.  0.
        -24    2    1    2    0    0 -0.36851990161E+02 -0.32545727148E+02 -0.21723364519E+03  0.23543941109E+03  0.76314914396E+02 0.  0.
         11    1    4    4    0    0 -0.25554206768E+02  0.12166592263E+02 -0.15724899944E+03  0.15977575309E+03  0.00000000000E+00 0. -1.
        -12    1    4    4    0    0 -0.11297783393E+02 -0.44712319411E+02 -0.59984645753E+02  0.75663658006E+02  0.00000000000E+00 0.  1.
        -13    1    3    3    0    0  0.96624642331E+01  0.41314369890E+02  0.19859357226E+02  0.46846925661E+02  0.00000000000E+00 0.  1.
         13    1    3    3    0    0 -0.37031712796E+01 -0.25412163118E+02 -0.40491602983E+02  0.47948528903E+02  0.00000000000E+00 0. -1.
         21    1    1    2  502  501  0.30892697207E+02  0.16643520376E+02 -0.41188469179E+02  0.54109661841E+02  0.00000000000E+00 0. -1.
<scales pt_clust_5="13000.00000" pt_clust_6="13000.00000" pt_clust_7="13000.00000" pt_clust_8="13000.00000" pt_clust_9="35.09082"></scales>
<clustering>
<clus scale="   35.091">  2  9  1 -1</clus>
<clus scale="   76.315">  5  6 -1 -1</clus>
<clus scale="   79.659">  2  5  1 -1</clus>
<clus scale="   90.951">  7  8 -1 -1</clus>
<clus scale="   35.091">  2  5  1 -1</clus>
</clustering>
</event>
<event>
 9    1  0.2674825E-005  0.1063345E+03  0.7546771E-02  0.1272718E+00
          1   -1    0    0  502    0  0.00000000000E+00  0.00000000000E+00  0.30937959488E+03  0.30937959488E+03  0.00000000000E+00 0. -1.
         -2   -1    0    0    0  501 -0.00000000000E+00 -0.00000000000E+00 -0.54831723457E+02  0.54831723457E+02  0.00000000000E+00 0.  1.
        -24    2    1    2    0    0  0.93414239110E+01  0.51484321626E+02  0.28749013891E+02  0.10027215144E+03  0.80561162978E+02 0.  0.
         23    2    1    2    0    0  0.15028997679E+02 -0.54936999330E+02  0.15729789365E+03  0.19115029080E+03  0.92476276190E+02 0.  0.
         13    1    3    3    0    0  0.44609569106E+02  0.22951789509E+02  0.20342780010E+02  0.54135265733E+02  0.00000000000E+00 0. -1.
        -14    1    3    3    0    0 -0.35268145195E+02  0.28532532117E+02  0.84062338811E+01  0.46136885705E+02  0.00000000000E+00 0.  1.
        -13    1    4    4    0    0 -0.38428053473E+02 -0.32341177697E+02  0.80613301607E+02  0.94979847676E+02  0.00000000000E+00 0.  1.
         13    1    4    4    0    0  0.53457051152E+02 -0.22595821633E+02  0.76684592044E+02  0.96170443121E+02  0.00000000000E+00 0. -1.
         21    1    1    2  502  501 -0.24370421590E+02  0.34526777037E+01  0.68500963881E+02  0.72788876104E+02  0.00000000000E+00 0. -1.
<scales pt_clust_5="13000.00000" pt_clust_6="13000.00000" pt_clust_7="13000.00000" pt_clust_8="13000.00000" pt_clust_9="24.61379"></scales>
<clustering>
<clus scale="   24.614">  1  9  2 -1</clus>
<clus scale="   80.561">  5  6 -1 -1</clus>
<clus scale="   92.476">  7  8 -1 -1</clus>
<clus scale="   96.152">  2  5  1 -1</clus>
<clus scale="   24.614">  1  5  2 -1</clus>
</clustering>
</event>
<event>
 9    1  0.2674825E-005  0.2139988E+03  0.7546771E-02  0.1156380E+00
          1   -1    0    0  502    0  0.00000000000E+00  0.00000000000E+00  0.60562712658E+03  0.60562712658E+03  0.00000000000E+00 0. -1.
         -2   -1    0    0    0  501 -0.00000000000E+00 -0.00000000000E+00 -0.31272575703E+03  0.31272575703E+03  0.00000000000E+00 0.  1.
        -24    2    1    2    0    0  0.11258811234E+03  0.14071214479E+02 -0.16407371473E+03  0.21543342031E+03  0.81346743056E+02 0.  0.
         23    2    1    2    0    0 -0.97788914648E+02 -0.20540327005E+03  0.45784453620E+02  0.24915222508E+03  0.90705236321E+02 0.  0.
         11    1    3    3    0    0  0.49884327547E+02 -0.25071597929E+01 -0.13889186292E+02  0.51842467929E+02  0.00000000000E+00 0. -1.
        -12    1    3    3    0    0  0.62703784797E+02  0.16578374272E+02 -0.15018452843E+03  0.16359095238E+03  0.00000000000E+00 0.  1.
        -11    1    4    4    0    0 -0.33386330875E+02 -0.16411518638E+03  0.21284103059E+02  0.16882373806E+03  0.00000000000E+00 0.  1.
         11    1    4    4    0    0 -0.64402583773E+02 -0.41288083668E+02  0.24500350562E+02  0.80328487023E+02  0.00000000000E+00 0. -1.
         21    1    1    2  502  501 -0.14799197697E+02  0.19133205557E+03  0.41119063065E+03  0.45376723822E+03  0.00000000000E+00 0. -1.
<scales pt_clust_5="13000.00000" pt_clust_6="13000.00000" pt_clust_7="13000.00000" pt_clust_8="13000.00000" pt_clust_9="193.82478"></scales>
<clustering>
<clus scale="   81.347">  5  6 -1 -1</clus>
<clus scale="   90.705">  7  8 -1 -1</clus>
<clus scale="  139.612">  2  5  1 -1</clus>
<clus scale="  193.825">  1  9  2 -1</clus>
<clus scale="  193.825">  1  5  2 -1</clus>
</clustering>
</event>
<event>
 9    1  0.2674825E-005  0.8935473E+02  0.7546771E-02  0.1307989E+00
          3   -1    0    0  502    0  0.00000000000E+00  0.00000000000E+00  0.15017856098E+03  0.15017856098E+03  0.00000000000E+00 0. -1.
         -4   -1    0    0    0  501 -0.00000000000E+00 -0.00000000000E+00 -0.18551727609E+03  0.18551727609E+03  0.00000000000E+00 0.  1.
         23    2    1    2    0    0 -0.47963911157E+01 -0.95397993830E+01 -0.14574850000E+03  0.17108304858E+03  0.88953758306E+02 0.  0.
        -24    2    1    2    0    0  0.10469931370E+02 -0.12002949043E+02  0.46034507894E+02  0.96491900681E+02  0.83293581574E+02 0.  0.
         13    1    4    4    0    0  0.45629785863E+02 -0.14724306193E+02  0.17197410745E+02  0.50937544965E+02  0.00000000000E+00 0. -1.
        -14    1    4    4    0    0 -0.35159854493E+02  0.27213571493E+01  0.28837097149E+02  0.45554355716E+02  0.00000000000E+00 0.  1.
        -11    1    3    3    0    0 -0.29559788593E+02 -0.39579989277E+02 -0.67065322680E+02  0.83295342961E+02  0.00000000000E+00 0.  1.
         11    1    3    3    0    0  0.24763397477E+02  0.30040189894E+02 -0.78683177324E+02  0.87787705615E+02  0.00000000000E+00 0. -1.
         21    1    1    2  502  501 -0.56735402538E+01  0.21542748426E+02  0.64375276993E+02  0.68120887815E+02  0.00000000000E+00 0. -1.
<scales pt_clust_5="13000.00000" pt_clust_6="13000.00000" pt_clust_7="13000.00000" pt_clust_8="13000.00000" pt_clust_9="22.27732"></scales>
<clustering>
<clus scale="   22.277">  1  9  2 -1</clus>
<clus scale="   83.294">  5  6 -1 -1</clus>
<clus scale="   83.722">  1  5  2 -1</clus>
<clus scale="   88.954">  7  8 -1 -1</clus>
<clus scale="   22.277">  1  5  2 -1</clus>
</clustering>
</event>
<event>
 9    1  0.2674825E-005  0.2332823E+03  0.7546771E-02  0.1145969E+00
          1   -1    0    0  502    0  0.00000000000E+00  0.00000000000E+00  0.41757682416E+03  0.41757682416E+03  0.00000000000E+00 0. -1.
         -2   -1    0    0    0  501 -0.00000000000E+00 -0.00000000000E+00 -0.23708102768E+03  0.23708102768E+03  0.00000000000E+00 0.  1.
         23    2    1    2    0    0 -0.16368977603E+03  0.11599648304E+03  0.17561283126E+02  0.22076772871E+03  0.90445920434E+02 0.  0.
        -24    2    1    2    0    0  0.48774947590E+02  0.10129603020E+03  0.12321573939E+03  0.18489406872E+03  0.79773535501E+02 0.  0.
         13    1    4    4    0    0  0.54152772872E+02  0.72888289968E+02  0.12658613266E+03  0.15578598976E+03  0.00000000000E+00 0. -1.
        -14    1    4    4    0    0 -0.53778252823E+01  0.28407740232E+02 -0.33703932659E+01  0.29108078958E+02  0.00000000000E+00 0.  1.
        -11    1    3    3    0    0 -0.77113994232E+01  0.49191028746E+02  0.10804360309E+02  0.50950536718E+02  0.00000000000E+00 0. -1.
         11    1    3    3    0    0 -0.15597837661E+03  0.66805454291E+02  0.67569228176E+01  0.16981719200E+03  0.00000000000E+00 0.  1.
         21    1    1    2  502  501  0.11491482844E+03 -0.21729251324E+03  0.39718773969E+02  0.24899605441E+03  0.00000000000E+00 0.  1.
<scales pt_clust_5="13000.00000" pt_clust_6="13000.00000" pt_clust_7="13000.00000" pt_clust_8="13000.00000" pt_clust_9="215.03529"></scales>
<clustering>
<clus scale="   79.774">  5  6 -1 -1</clus>
<clus scale="   90.446">  7  8 -1 -1</clus>
<clus scale="  137.854">  1  5  2 -1</clus>
<clus scale="  215.035">  1  9  2 -1</clus>
<clus scale="  137.854">  1  5  2 -1</clus>
</clustering>
</event>
<event>
 9    1  0.2674825E-005  0.1173899E+03  0.7546771E-02  0.1251128E+00
          1   -1    0    0  502    0  0.00000000000E+00  0.00000000000E+00  0.24266932005E+03  0.24266932005E+03  0.00000000000E+00 0. -1.
         -2   -1    0    0    0  501 -0.00000000000E+00 -0.00000000000E+00 -0.81418284407E+02  0.81418284407E+02  0.00000000000E+00 0.  1.
        -24    2    1    2    0    0  0.17027987996E+02 -0.86366464975E+02  0.27349371908E+02  0.12310729313E+03  0.81598399683E+02 0.  0.
         23    2    1    2    0    0 -0.54417837846E+01  0.51993284699E+02  0.68938218732E+02  0.12657597787E+03  0.92390938447E+02 0.  0.
         13    1    3    3    0    0 -0.16798473238E+02 -0.32895186621E+02  0.44227339200E+02  0.57622387478E+02  0.00000000000E+00 0. -1.
        -14    1    3    3    0    0  0.33826461234E+02 -0.53471278354E+02 -0.16877967292E+02  0.65484905653E+02  0.00000000000E+00 0.  1.
        -11    1    4    4    0    0 -0.50606514032E+01  0.29595651391E+02  0.90581108213E+02  0.95427721020E+02  0.00000000000E+00 0. -1.
         11    1    4    4    0    0 -0.38113238137E+00  0.22397633308E+02 -0.21642889481E+02  0.31148256850E+02  0.00000000000E+00 0.  1.
         21    1    1    2  502  501 -0.11586204212E+02  0.34373180276E+02  0.64963445005E+02  0.74404333458E+02  0.00000000000E+00 0. -1.
<scales pt_clust_5="13000.00000" pt_clust_6="13000.00000" pt_clust_7="13000.00000" pt_clust_8="13000.00000" pt_clust_9="36.27335"></scales>
<clustering>
<clus scale="   36.273">  1  9  2 -1</clus>
<clus scale="   81.598">  5  6 -1 -1</clus>
<clus scale="   92.391">  7  8 -1 -1</clus>
<clus scale="  109.099">  2  5  1 -1</clus>
<clus scale="   36.273">  1  5  2 -1</clus>
</clustering>
</event>
<event>
 9    1  0.2674825E-005  0.1314478E+03  0.7546771E-02  0.1254173E+00
          1   -1    0    0  502    0  0.00000000000E+00  0.00000000000E+00  0.19291997096E+03  0.19291997096E+03  0.00000000000E+00 0. -1.
         -2   -1    0    0    0  501 -0.00000000000E+00 -0.00000000000E+00 -0.27144920947E+03  0.27144920947E+03  0.00000000000E+00 0.  1.
         23    2    1    2    0    0  0.63981049617E+02  0.49913705118E+02 -0.20777288496E+03  0.24612432102E+03  0.10403199990E+03 0.  0.
        -24    2    1    2    0    0  0.24497005588E+01 -0.76919531943E+01  0.11786524738E+03  0.13871380340E+03  0.72692059664E+02 0.  0.
         13    1    4    4    0    0 -0.28944719378E+02  0.48470994166E+01  0.90748845603E+02  0.95376328986E+02  0.00000000000E+00 0. -1.
        -14    1    4    4    0    0  0.31394419936E+02 -0.12539052611E+02  0.27116401772E+02  0.43337474414E+02  0.00000000000E+00 0.  1.
        -13    1    3    3    0    0  0.69125621093E+02  0.77484723769E+02 -0.16067114438E+03  0.19130460148E+03  0.00000000000E+00 0.  1.
         13    1    3    3    0    0 -0.51445714759E+01 -0.27571018651E+02 -0.47101740582E+02  0.54819719545E+02  0.00000000000E+00 0. -1.
         21    1    1    2  502  501 -0.66430750175E+02 -0.42221751924E+02  0.11378399080E+02  0.79531056010E+02  0.00000000000E+00 0.  1.
<scales pt_clust_5="13000.00000" pt_clust_6="13000.00000" pt_clust_7="13000.00000" pt_clust_8="13000.00000" pt_clust_9="80.34843"></scales>
<clustering>
<clus scale="   72.692">  5  6 -1 -1</clus>
<clus scale="   73.139">  1  5  2 -1</clus>
<clus scale="   80.348">  1  9  2 -1</clus>
<clus scale="  104.032">  7  8 -1 -1</clus>
<clus scale="   73.139">  1  5  2 -1</clus>
</clustering>
</event>
<event>
 9    1  0.2674825E-005  0.9330427E+02  0.7546771E-02  0.1301726E+00
          1   -1    0    0  502    0  0.00000000000E+00  0.00000000000E+00  0.40614154449E+03  0.40614154449E+03  0.00000000000E+00 0. -1.
         -2   -1    0    0    0  501 -0.00000000000E+00 -0.00000000000E+00 -0.44396066244E+02  0.44396066244E+02  0.00000000000E+00 0.  1.
         23    2    1    2    0    0 -0.89214381931E+01 -0.19688079852E+02  0.24422943519E+02  0.96821966470E+02  0.91163591818E+02 0.  0.
        -24    2    1    2    0    0 -0.12644228828E+02  0.16586517032E+02  0.29101381766E+03  0.30253757316E+03  0.80030944219E+02 0.  0.
         11    1    4    4    0    0 -0.44233880373E+02  0.58080842960E+01  0.21401453902E+03  0.21861517086E+03  0.00000000000E+00 0. -1.
        -12    1    4    4    0    0  0.31589651545E+02  0.10778432736E+02  0.76999278635E+02  0.83922402296E+02  0.00000000000E+00 0.  1.
        -11    1    3    3    0    0  0.83683578313E+01 -0.52869542295E+02  0.27855185998E+01  0.53600158854E+02  0.00000000000E+00 0.  1.
         11    1    3    3    0    0 -0.17289796024E+02  0.33181462443E+02  0.21637424919E+02  0.43221807616E+02  0.00000000000E+00 0. -1.
         21    1    1    2  502  501  0.21565667021E+02  0.31015628203E+01  0.46308717071E+02  0.51178071112E+02  0.00000000000E+00 0.  1.
<scales pt_clust_5="13000.00000" pt_clust_6="13000.00000" pt_clust_7="13000.00000" pt_clust_8="13000.00000" pt_clust_9="21.78756"></scales>
<clustering>
<clus scale="   21.788">  1  9  2 -1</clus>
<clus scale="   80.031">  5  6 -1 -1</clus>
<clus scale="   82.461">  1  5  2 -1</clus>
<clus scale="   91.164">  7  8 -1 -1</clus>
<clus scale="   21.788">  1  5  2 -1</clus>
</clustering>
</event>
<event>
 9    1  0.2674825E-005  0.8772271E+02  0.7546771E-02  0.1312099E+00
          1   -1    0    0  502    0  0.00000000000E+00  0.00000000000E+00  0.59716387080E+02  0.59716387080E+02  0.00000000000E+00 0. -1.
         -2   -1    0    0    0  501 -0.00000000000E+00 -0.00000000000E+00 -0.43842156681E+03  0.43842156681E+03  0.00000000000E+00 0.  1.
        -24    2    1    2    0    0 -0.26181846383E+02  0.36147050329E+01 -0.35733271729E+03  0.36680554465E+03  0.78492557422E+02 0.  0.
         23    2    1    2    0    0  0.37304009174E+01 -0.27833942949E+02 -0.35102650228E+02  0.95567105584E+02  0.84334046183E+02 0.  0.
         13    1    3    3    0    0  0.23485951353E+02  0.19570019492E+02 -0.14011912800E+03  0.14341529069E+03  0.00000000000E+00 0. -1.
        -14    1    3    3    0    0 -0.49667797736E+02 -0.15955314459E+02 -0.21721358929E+03  0.22339025396E+03  0.00000000000E+00 0.  1.
        -11    1    4    4    0    0  0.33192687066E+01  0.30393562778E+02 -0.10126293447E+02  0.32207577091E+02  0.00000000000E+00 0. -1.
         11    1    4    4    0    0  0.41113221083E+00 -0.58227505727E+02 -0.24976356781E+02  0.63359528493E+02  0.00000000000E+00 0.  1.
         21    1    1    2  502  501  0.22451445466E+02  0.24219237916E+02  0.13730187787E+02  0.35765303653E+02  0.00000000000E+00 0. -1.
<scales pt_clust_5="13000.00000" pt_clust_6="13000.00000" pt_clust_7="13000.00000" pt_clust_8="13000.00000" pt_clust_9="33.02482"></scales>
<clustering>
<clus scale="   33.025">  1  9  2 -1</clus>
<clus scale="   78.493">  5  6 -1 -1</clus>
<clus scale="   82.123">  2  5  1 -1</clus>
<clus scale="   84.334">  7  8 -1 -1</clus>
<clus scale="   33.025">  1  5  2 -1</clus>
</clustering>
</event>
<event>
 9    1  0.2674825E-005  0.1110647E+03  0.7546771E-02  0.1270167E+00
         -2   -1    0    0    0  501 -0.00000000000E+00  0.00000000000E+00  0.16212891996E+03  0.16212891996E+03  0.00000000000E+00 0.  1.
          1   -1    0    0  502    0  0.00000000000E+00 -0.00000000000E+00 -0.12719000666E+03  0.12719000666E+03  0.00000000000E+00 0. -1.
         23    2    1    2    0    0  0.15832947761E+01 -0.18541316578E+02  0.61545236134E+02  0.12385293846E+03  0.10585578412E+03 0.  0.
        -24    2    1    2    0    0 -0.42513670111E+02  0.40841190802E+02  0.16058856586E+02  0.10227660970E+03  0.82019528184E+02 0.  0.
         11    1    4    4    0    0 -0.15462088409E+02  0.29859567831E+02 -0.31757591157E+02  0.46251643918E+02  0.00000000000E+00 0. -1.
        -12    1    4    4    0    0 -0.27051581702E+02  0.10981622971E+02  0.47816447742E+02  0.56024965778E+02  0.00000000000E+00 0.  1.
        -13    1    3    3    0    0  0.51824279809E+02 -0.14477166823E+02  0.46858682069E+02  0.71351807421E+02  0.00000000000E+00 0.  1.
         13    1    3    3    0    0 -0.50240985033E+02 -0.40641497558E+01  0.14686554065E+02  0.52501131041E+02  0.00000000000E+00 0. -1.
         21    1    1    2  502  501  0.40930375335E+02 -0.22299874223E+02 -0.42665179424E+02  0.63189378464E+02  0.00000000000E+00 0. -1.
<scales pt_clust_5="13000.00000" pt_clust_6="13000.00000" pt_clust_7="13000.00000" pt_clust_8="13000.00000" pt_clust_9="46.61094"></scales>
<clustering>
<clus scale="   46.611">  2  9  1 -1</clus>
<clus scale="   82.020">  5  6 -1 -1</clus>
<clus scale="   88.640">  2  5  1 -1</clus>
<clus scale="  105.856">  7  8 -1 -1</clus>
<clus scale="   46.611">  2  5  1 -1</clus>
</clustering>
</event>
<event>
 9    1  0.2674825E-005  0.9360836E+02  0.7546771E-02  0.1303282E+00
          1   -1    0    0  502    0  0.00000000000E+00  0.00000000000E+00  0.28362704523E+03  0.28362704523E+03  0.00000000000E+00 0. -1.
         -2   -1    0    0    0  501 -0.00000000000E+00 -0.00000000000E+00 -0.77772633212E+02  0.77772633212E+02  0.00000000000E+00 0.  1.
        -24    2    1    2    0    0 -0.59418839637E+00 -0.11104012814E+02 -0.36742069164E+02  0.87859750641E+02  0.79029766391E+02 0.  0.
         23    2    1    2    0    0  0.26821536746E+01 -0.94331037824E+01  0.23215899439E+03  0.25040826363E+03  0.93329108103E+02 0.  0.
         13    1    3    3    0    0 -0.25785833482E+02 -0.56335246446E+01  0.14778457017E+02  0.30249770248E+02  0.00000000000E+00 0. -1.
        -14    1    3    3    0    0  0.25191645086E+02 -0.54704881691E+01 -0.51520526180E+02  0.57609980392E+02  0.00000000000E+00 0.  1.
        -11    1    4    4    0    0  0.45578306446E+02 -0.37331758860E+01  0.79291056966E+02  0.91533547596E+02  0.00000000000E+00 0.  1.
         11    1    4    4    0    0 -0.42896152771E+02 -0.56999278964E+01  0.15286793743E+03  0.15887471603E+03  0.00000000000E+00 0. -1.
         21    1    1    2  502  501 -0.20879652783E+01  0.20537116596E+02  0.10437486790E+02  0.23131664176E+02  0.00000000000E+00 0. -1.
<scales pt_clust_5="13000.00000" pt_clust_6="13000.00000" pt_clust_7="13000.00000" pt_clust_8="13000.00000" pt_clust_9="20.64298"></scales>
<clustering>
<clus scale="   20.643">  2  9  1 -1</clus>
<clus scale="   79.030">  5  6 -1 -1</clus>
<clus scale="   79.359">  2  5  1 -1</clus>
<clus scale="   93.329">  7  8 -1 -1</clus>
<clus scale="   93.608">  1  5  2 -1</clus>
</clustering>
</event>
<event>
 9    1  0.2674825E-005  0.1137135E+03  0.7546771E-02  0.1257205E+00
         -2   -1    0    0    0  501 -0.00000000000E+00  0.00000000000E+00  0.62986807424E+02  0.62986807424E+02  0.00000000000E+00 0.  1.
          1   -1    0    0  502    0  0.00000000000E+00 -0.00000000000E+00 -0.70873112968E+03  0.70873112968E+03  0.00000000000E+00 0. -1.
        -24    2    1    2    0    0 -0.41981370123E+02  0.46434880529E+02 -0.27110585185E+02  0.11257242791E+03  0.89548501552E+02 0.  0.
         23    2    1    2    0    0  0.10792893129E+01  0.64288662394E+02 -0.23963366372E+03  0.26218992128E+03  0.84764763055E+02 0.  0.
         11    1    3    3    0    0  0.22517818849E+02  0.37181412491E+02 -0.49589720254E+01  0.43750440044E+02  0.00000000000E+00 0. -1.
        -12    1    3    3    0    0 -0.64499188972E+02  0.92534680386E+01 -0.22151613159E+02  0.68821987869E+02  0.00000000000E+00 0.  1.
        -11    1    4    4    0    0  0.35219623486E+02  0.19277695912E+01 -0.76804379893E+02  0.84516572013E+02  0.00000000000E+00 0.  1.
         11    1    4    4    0    0 -0.34140334173E+02  0.62360892802E+02 -0.16282928383E+03  0.17767334927E+03  0.00000000000E+00 0. -1.
         21    1    1    2  502  501  0.40902080810E+02 -0.11072354292E+03 -0.37900007335E+03  0.39695558790E+03  0.00000000000E+00 0.  1.
<scales pt_clust_5="13000.00000" pt_clust_6="13000.00000" pt_clust_7="13000.00000" pt_clust_8="13000.00000" pt_clust_9="70.08447"></scales>
<clustering>
<clus scale="   84.765">  7  8 -1 -1</clus>
<clus scale="   89.549">  5  6 -1 -1</clus>
<clus scale="  106.392">  2  7  1 -1</clus>
<clus scale="   70.084">  2  9  1 -1</clus>
<clus scale="  106.392">  2  5  1 -1</clus>
</clustering>
</event>
<event>
 9    1  0.2674825E-005  0.1281709E+03  0.7546771E-02  0.1235958E+00
         -2   -1    0    0    0  501 -0.00000000000E+00  0.00000000000E+00  0.10205596115E+03  0.10205596115E+03  0.00000000000E+00 0.  1.
          1   -1    0    0  502    0  0.00000000000E+00 -0.00000000000E+00 -0.17741885803E+03  0.17741885803E+03  0.00000000000E+00 0. -1.
        -24    2    1    2    0    0 -0.27881566081E+01 -0.79292260458E+02 -0.56132842929E+01  0.11334909860E+03  0.80755636387E+02 0.  0.
         23    2    1    2    0    0  0.22994231594E+02  0.80092922270E+02 -0.55863834076E+02  0.14159530332E+03  0.99924226689E+02 0.  0.
         13    1    3    3    0    0  0.16001785201E+02 -0.77431367235E+02 -0.28167076829E+02  0.83934843650E+02  0.00000000000E+00 0. -1.
        -14    1    3    3    0    0 -0.18789941809E+02 -0.18608932226E+01  0.22553792536E+02  0.29414254955E+02  0.00000000000E+00 0.  1.
        -13    1    4    4    0    0 -0.22503891020E+02  0.32402659889E+01  0.15295573969E+02  0.27402171771E+02  0.00000000000E+00 0.  1.
         13    1    4    4    0    0  0.45498122615E+02  0.76852656281E+02 -0.71159408044E+02  0.11419313155E+03  0.00000000000E+00 0. -1.
         21    1    1    2  502  501 -0.20206074986E+02 -0.80066181256E+00 -0.13885778519E+02  0.24530417256E+02  0.00000000000E+00 0. -1.
<scales pt_clust_5="13000.00000" pt_clust_6="13000.00000" pt_clust_7="13000.00000" pt_clust_8="13000.00000" pt_clust_9="20.22193"></scales>
<clustering>
<clus scale="   20.222">  2  9  1 -1</clus>
<clus scale="   80.756">  5  6 -1 -1</clus>
<clus scale="   99.924">  7  8 -1 -1</clus>
<clus scale="  113.861">  1  5  2 -1</clus>
<clus scale="   20.222">  2  5  1 -1</clus>
</clustering>
</event>
<event>
 9    1  0.2674825E-005  0.9827304E+02  0.7546771E-02  0.1285459E+00
         -2   -1    0    0    0  501 -0.00000000000E+00  0.00000000000E+00  0.80648492558E+02  0.80648492558E+02  0.00000000000E+00 0.  1.
          1   -1    0    0  502    0  0.00000000000E+00 -0.00000000000E+00 -0.19276603278E+03  0.19276603278E+03  0.00000000000E+00 0. -1.
        -24    2    1    2    0    0  0.37688363091E+02  0.32757542137E+02  0.11161608378E+02  0.95207080885E+02  0.80289086865E+02 0.  0.
         23    2    1    2    0    0 -0.25718258334E+02 -0.54927799584E+02 -0.94274408159E+02  0.13978767492E+03  0.83513101046E+02 0.  0.
         13    1    3    3    0    0  0.82371998803E+01  0.38999343921E+02 -0.25842052736E+02  0.47503810139E+02  0.00000000000E+00 0. -1.
        -14    1    3    3    0    0  0.29451163211E+02 -0.62418017840E+01  0.37003661114E+02  0.47703270745E+02  0.00000000000E+00 0.  1.
        -13    1    4    4    0    0 -0.33648453140E+02  0.29418331973E+01 -0.67612454846E+02  0.75579870545E+02  0.00000000000E+00 0. -1.
         13    1    4    4    0    0  0.79301948057E+01 -0.57869632781E+02 -0.26661953312E+02  0.64207804372E+02  0.00000000000E+00 0.  1.
         21    1    1    2  502  501 -0.11970104757E+02  0.22170257447E+02 -0.29004740443E+02  0.38419769538E+02  0.00000000000E+00 0. -1.
<scales pt_clust_5="13000.00000" pt_clust_6="13000.00000" pt_clust_7="13000.00000" pt_clust_8="13000.00000" pt_clust_9="25.19531"></scales>
<clustering>
<clus scale="   25.195">  2  9  1 -1</clus>
<clus scale="   80.289">  5  6 -1 -1</clus>
<clus scale="   83.513">  7  8 -1 -1</clus>
<clus scale="   95.548">  1  5  2 -1</clus>
<clus scale="   25.195">  2  5  1 -1</clus>
</clustering>
</event>
<event>
 9    1  0.2674825E-005  0.1451031E+03  0.7546771E-02  0.1233228E+00
          1   -1    0    0  502    0  0.00000000000E+00  0.00000000000E+00  0.28783378368E+03  0.28783378368E+03  0.00000000000E+00 0. -1.
         -2   -1    0    0    0  501 -0.00000000000E+00 -0.00000000000E+00 -0.17952757443E+03  0.17952757443E+03  0.00000000000E+00 0.  1.
        -24    2    1    2    0    0 -0.18100735729E+02  0.25201113845E+01 -0.10363691645E+03  0.13276783498E+03  0.80948748954E+02 0.  0.
         23    2    1    2    0    0 -0.47847778393E+02 -0.97816827651E+02  0.10304429845E+03  0.17556640210E+03  0.91366801603E+02 0.  0.
         13    1    3    3    0    0 -0.24194560231E+02 -0.25124446436E+01  0.41632340912E+01  0.24678363822E+02  0.00000000000E+00 0. -1.
        -14    1    3    3    0    0  0.60938245013E+01  0.50325560281E+01 -0.10780015054E+03  0.10808947115E+03  0.00000000000E+00 0.  1.
        -13    1    4    4    0    0  0.53377202496E+01 -0.80047812431E+02  0.35364146383E+02  0.87674205910E+02  0.00000000000E+00 0.  1.
         13    1    4    4    0    0 -0.53185498643E+02 -0.17769015220E+02  0.67680152065E+02  0.87892196191E+02  0.00000000000E+00 0. -1.
         21    1    1    2  502  501  0.65948514123E+02  0.95296716266E+02  0.10889882725E+03  0.15902712103E+03  0.00000000000E+00 0. -1.
<scales pt_clust_5="13000.00000" pt_clust_6="13000.00000" pt_clust_7="13000.00000" pt_clust_8="13000.00000" pt_clust_9="112.72535"></scales>
<clustering>
<clus scale="   80.949">  5  6 -1 -1</clus>
<clus scale="   82.986">  2  5  1 -1</clus>
<clus scale="   91.367">  7  8 -1 -1</clus>
<clus scale="  112.725">  1  9  2 -1</clus>
<clus scale="  112.725">  1  5  2 -1</clus>
</clustering>
</event>
<event>
 9    1  0.2674825E-005  0.9565956E+02  0.7546771E-02  0.1294304E+00
         -2   -1    0    0    0  501 -0.00000000000E+00  0.00000000000E+00  0.69166256427E+02  0.69166256427E+02  0.00000000000E+00 0.  1.
          1   -1    0    0  502    0  0.00000000000E+00 -0.00000000000E+00 -0.46563097194E+03  0.46563097194E+03  0.00000000000E+00 0. -1.
        -24    2    1    2    0    0  0.24510056793E+02 -0.14323379108E+02  0.25177337474E+02  0.90451670892E+02  0.82107882520E+02 0.  0.
         23    2    1    2    0    0 -0.48171638738E+02  0.20822727647E+02 -0.25064518035E+03  0.27159706271E+03  0.90486823765E+02 0.  0.
         13    1    3    3    0    0  0.51646461031E+02  0.68165113282E+01  0.10984192110E+02  0.53239780616E+02  0.00000000000E+00 0. -1.
        -14    1    3    3    0    0 -0.27136404238E+02 -0.21139890436E+02  0.14193145364E+02  0.37211890277E+02  0.00000000000E+00 0.  1.
        -13    1    4    4    0    0 -0.32962770179E+02 -0.23661097489E+02 -0.44765410618E+02  0.60417991857E+02  0.00000000000E+00 0.  1.
         13    1    4    4    0    0 -0.15208868558E+02  0.44483825136E+02 -0.20587976974E+03  0.21117907086E+03  0.00000000000E+00 0. -1.
         21    1    1    2  502  501  0.23661581945E+02 -0.64993485389E+01 -0.17099687263E+03  0.17274849476E+03  0.00000000000E+00 0.  1.
<scales pt_clust_5="13000.00000" pt_clust_6="13000.00000" pt_clust_7="13000.00000" pt_clust_8="13000.00000" pt_clust_9="24.53797"></scales>
<clustering>
<clus scale="   24.538">  2  9  1 -1</clus>
<clus scale="   82.108">  5  6 -1 -1</clus>
<clus scale="   87.776">  1  5  2 -1</clus>
<clus scale="   90.487">  7  8 -1 -1</clus>
<clus scale="   24.538">  2  5  1 -1</clus>
</clustering>
</event>
<event>
 9    1  0.2674825E-005  0.9519896E+02  0.7546771E-02  0.1296899E+00
         -2   -1    0    0    0  501 -0.00000000000E+00  0.00000000000E+00  0.19192779728E+03  0.19192779728E+03  0.00000000000E+00 0.  1.
          1   -1    0    0  502    0  0.00000000000E+00 -0.00000000000E+00 -0.66858775797E+02  0.66858775797E+02  0.00000000000E+00 0. -1.
        -24    2    1    2    0    0 -0.27923936638E+02 -0.89013851131E+01  0.10153592172E+03  0.13234014903E+03  0.79657961017E+02 0.  0.
         23    2    1    2    0    0  0.32717694131E+02 -0.16854827578E+02  0.15170404010E+02  0.98945564354E+02  0.90584495504E+02 0.  0.
         13    1    3    3    0    0 -0.30047593179E+00  0.24418347154E+02  0.28569728844E+01  0.24586749634E+02  0.00000000000E+00 0. -1.
        -14    1    3    3    0    0 -0.27623460706E+02 -0.33319732267E+02  0.98678948831E+02  0.10775339940E+03  0.00000000000E+00 0.  1.
        -13    1    4    4    0    0 -0.15764818760E+02  0.18115618955E+02 -0.18520323037E+02  0.30326680103E+02  0.00000000000E+00 0.  1.
         13    1    4    4    0    0  0.48482512891E+02 -0.34970446532E+02  0.33690727048E+02  0.68618884252E+02  0.00000000000E+00 0. -1.
         21    1    1    2  502  501 -0.47937574936E+01  0.25756212691E+02  0.83626957527E+01  0.27500859684E+02  0.00000000000E+00 0. -1.
<scales pt_clust_5="13000.00000" pt_clust_6="13000.00000" pt_clust_7="13000.00000" pt_clust_8="13000.00000" pt_clust_9="26.19852"></scales>
<clustering>
<clus scale="   26.199">  2  9  1 -1</clus>
<clus scale="   79.658">  5  6 -1 -1</clus>
<clus scale="   84.869">  1  5  2 -1</clus>
<clus scale="   90.584">  7  8 -1 -1</clus>
<clus scale="   26.199">  2  5  1 -1</clus>
</clustering>
</event>
<event>
 9    1  0.2674825E-005  0.9928914E+02  0.7546771E-02  0.1286321E+00
          1   -1    0    0  502    0  0.00000000000E+00  0.00000000000E+00  0.17541085112E+03  0.17541085112E+03  0.00000000000E+00 0. -1.
         -2   -1    0    0    0  501 -0.00000000000E+00 -0.00000000000E+00 -0.10693201132E+03  0.10693201132E+03  0.00000000000E+00 0.  1.
        -24    2    1    2    0    0  0.30800433425E+01  0.41182521009E+02 -0.35216595752E+02  0.96706651403E+02  0.80040496660E+02 0.  0.
         23    2    1    2    0    0  0.40192220614E+02 -0.48587342788E+02  0.64973793551E+02  0.12709831072E+03  0.89197770499E+02 0.  0.
         11    1    3    3    0    0  0.36723687997E+02  0.50638476114E+01 -0.18318027512E+01  0.37116402224E+02  0.00000000000E+00 0. -1.
        -12    1    3    3    0    0 -0.33643644654E+02  0.36118673397E+02 -0.33384793001E+02  0.59590249180E+02  0.00000000000E+00 0.  1.
        -11    1    4    4    0    0 -0.20007444782E+02 -0.16730243529E+02 -0.79982605560E+01  0.27279499027E+02  0.00000000000E+00 0.  1.
         11    1    4    4    0    0  0.60199665395E+02 -0.31857099259E+02  0.72972054107E+02  0.99818811692E+02  0.00000000000E+00 0. -1.
         21    1    1    2  502  501 -0.43272263956E+02  0.74048217796E+01  0.38721642007E+02  0.58537900314E+02  0.00000000000E+00 0.  1.
<scales pt_clust_5="13000.00000" pt_clust_6="13000.00000" pt_clust_7="13000.00000" pt_clust_8="13000.00000" pt_clust_9="43.90126"></scales>
<clustering>
<clus scale="   43.901">  1  9  2 -1</clus>
<clus scale="   80.040">  5  6 -1 -1</clus>
<clus scale="   89.198">  7  8 -1 -1</clus>
<clus scale="   91.151">  2  5  1 -1</clus>
<clus scale="   43.901">  1  5  2 -1</clus>
</clustering>
</event>
<event>
 9    1  0.2674825E-005  0.1193586E+03  0.7546771E-02  0.1246510E+00
         -2   -1    0    0    0  501 -0.00000000000E+00  0.00000000000E+00  0.25598318109E+03  0.25598318109E+03  0.00000000000E+00 0.  1.
          1   -1    0    0  502    0  0.00000000000E+00 -0.00000000000E+00 -0.74816979170E+02  0.74816979170E+02  0.00000000000E+00 0. -1.
        -24    2    1    2    0    0 -0.65527258924E+02  0.17782205029E+02  0.13171082957E+03  0.16879181894E+03  0.80826400616E+02 0.  0.
         23    2    1    2    0    0  0.75972621525E+02 -0.43033839247E+02  0.28306876432E+02  0.12745389863E+03  0.88427747227E+02 0.  0.
         13    1    3    3    0    0 -0.15870725142E+02  0.18033702084E+02 -0.39345408309E+01  0.24342862177E+02  0.00000000000E+00 0. -1.
        -14    1    3    3    0    0 -0.49656533782E+02 -0.25149705501E+00  0.13564537040E+03  0.14444895676E+03  0.00000000000E+00 0.  1.
        -11    1    4    4    0    0 -0.19594016401E+02 -0.11485090488E+02 -0.68309004681E+00  0.22722222476E+02  0.00000000000E+00 0.  1.
         11    1    4    4    0    0  0.95566637925E+02 -0.31548748758E+02  0.28989966479E+02  0.10473167615E+03  0.00000000000E+00 0. -1.
         21    1    1    2  502  501 -0.10445362600E+02  0.25251634217E+02  0.21148495916E+02  0.34554442696E+02  0.00000000000E+00 0. -1.
<scales pt_clust_5="13000.00000" pt_clust_6="13000.00000" pt_clust_7="13000.00000" pt_clust_8="13000.00000" pt_clust_9="27.32674"></scales>
<clustering>
<clus scale="   27.327">  1  9  2 -1</clus>
<clus scale="   80.826">  5  6 -1 -1</clus>
<clus scale="   88.428">  7  8 -1 -1</clus>
<clus scale="  113.842">  1  5  2 -1</clus>
<clus scale="  119.359">  2  5  1 -1</clus>
</clustering>
</event>
<event>
 9    1  0.2674825E-005  0.1185259E+03  0.7546771E-02  0.1248064E+00
         -2   -1    0    0    0  501 -0.00000000000E+00  0.00000000000E+00  0.45620549885E+03  0.45620549885E+03  0.00000000000E+00 0.  1.
          1   -1    0    0  502    0  0.00000000000E+00 -0.00000000000E+00 -0.18150188402E+03  0.18150188402E+03  0.00000000000E+00 0. -1.
        -24    2    1    2    0    0  0.80108857423E+02 -0.31758121270E+02  0.33893898577E+03  0.35867630218E+03  0.79643244312E+02 0.  0.
         23    2    1    2    0    0 -0.38566653964E+01 -0.67328042781E+02  0.36519532329E+02  0.11845706277E+03  0.90279899569E+02 0.  0.
         11    1    3    3    0    0  0.25732756673E+02  0.23982002896E+02  0.65278312251E+02  0.74152338326E+02  0.00000000000E+00 0. -1.
        -12    1    3    3    0    0  0.54376100750E+02 -0.55740124165E+02  0.27366067352E+03  0.28452396385E+03  0.00000000000E+00 0.  1.
        -11    1    4    4    0    0  0.26606551097E+02 -0.54373253214E+02 -0.10007307707E+02  0.61355565631E+02  0.00000000000E+00 0.  1.
         11    1    4    4    0    0 -0.30463216494E+02 -0.12954789567E+02  0.46526840036E+02  0.57101497140E+02  0.00000000000E+00 0. -1.
         21    1    1    2  502  501 -0.76252192027E+02  0.99086164051E+02 -0.10075490327E+03  0.16057401791E+03  0.00000000000E+00 0. -1.
<scales pt_clust_5="13000.00000" pt_clust_6="13000.00000" pt_clust_7="13000.00000" pt_clust_8="13000.00000" pt_clust_9="87.78010"></scales>
<clustering>
<clus scale="   79.643">  5  6 -1 -1</clus>
<clus scale="   90.280">  7  8 -1 -1</clus>
<clus scale="  112.687">  2  7  1 -1</clus>
<clus scale="   87.780">  2  9  1 -1</clus>
<clus scale="  112.687">  2  5  1 -1</clus>
</clustering>
</event>
<event>
 9    1  0.2674825E-005  0.1105788E+03  0.7546771E-02  0.1264875E+00
          1   -1    0    0  502    0  0.00000000000E+00  0.00000000000E+00  0.26071420248E+03  0.26071420248E+03  0.00000000000E+00 0. -1.
         -2   -1    0    0    0  501 -0.00000000000E+00 -0.00000000000E+00 -0.95106154540E+02  0.95106154540E+02  0.00000000000E+00 0.  1.
         23    2    1    2    0    0 -0.44963754858E+02 -0.43729354098E+02 -0.64365508017E+01  0.11164312251E+03  0.92134477571E+02 0.  0.
        -24    2    1    2    0    0  0.85281095147E-01  0.72133361576E+02  0.65548141187E+02  0.12517151818E+03  0.78537386157E+02 0.  0.
         11    1    4    4    0    0 -0.64398453622E+01  0.71752847065E+02  0.80995400727E+02  0.10839832844E+03  0.00000000000E+00 0. -1.
        -12    1    4    4    0    0  0.65251264573E+01  0.38051451096E+00 -0.15447259539E+02  0.16773189734E+02  0.00000000000E+00 0.  1.
        -11    1    3    3    0    0 -0.27926710458E+02  0.11154578179E+02 -0.36089416323E+02  0.46976289145E+02  0.00000000000E+00 0.  1.
         11    1    3    3    0    0 -0.17037044400E+02 -0.54883932277E+02  0.29652865521E+02  0.64666833366E+02  0.00000000000E+00 0. -1.
         21    1    1    2  502  501  0.44878473763E+02 -0.28404007478E+02  0.10649645756E+03  0.11900571633E+03  0.00000000000E+00 0.  1.
<scales pt_clust_5="13000.00000" pt_clust_6="13000.00000" pt_clust_7="13000.00000" pt_clust_8="13000.00000" pt_clust_9="53.11182"></scales>
<clustering>
<clus scale="   53.112">  1  9  2 -1</clus>
<clus scale="   78.537">  5  6 -1 -1</clus>
<clus scale="   92.134">  7  8 -1 -1</clus>
<clus scale="   99.534">  1  5  2 -1</clus>
<clus scale="   53.112">  1  5  2 -1</clus>
</clustering>
</event>
<event>
 9    1  0.2674825E-005  0.1239953E+03  0.7546771E-02  0.1239556E+00
         -2   -1    0    0    0  501 -0.00000000000E+00  0.00000000000E+00  0.12466207007E+03  0.12466207007E+03  0.00000000000E+00 0.  1.
          1   -1    0    0  502    0  0.00000000000E+00 -0.00000000000E+00 -0.42754062041E+03  0.42754062041E+03  0.00000000000E+00 0. -1.
         23    2    1    2    0    0  0.72249315375E+02 -0.44750166697E+02  0.74666838382E+02  0.14497076489E+03  0.90657845368E+02 0.  0.
        -24    2    1    2    0    0 -0.55515254903E+02  0.64749060791E+02 -0.23911508043E+03  0.26636697325E+03  0.80628520691E+02 0.  0.
         11    1    4    4    0    0 -0.51711179220E+02  0.67665931754E+02 -0.24464756267E+03  0.25904662572E+03  0.00000000000E+00 0. -1.
        -12    1    4    4    0    0 -0.38040756839E+01 -0.29168709633E+01  0.55324822480E+01  0.73203475225E+01  0.00000000000E+00 0.  1.
        -13    1    3    3    0    0 -0.13564706318E+01 -0.36584746070E+02 -0.41210888685E+01  0.36841105182E+02  0.00000000000E+00 0. -1.
         13    1    3    3    0    0  0.73605786007E+02 -0.81654206265E+01  0.78787927250E+02  0.10812965971E+03  0.00000000000E+00 0.  1.
         21    1    1    2  502  501 -0.16734060471E+02 -0.19998894095E+02 -0.13843030829E+03  0.14086495234E+03  0.00000000000E+00 0.  1.
<scales pt_clust_5="13000.00000" pt_clust_6="13000.00000" pt_clust_7="13000.00000" pt_clust_8="13000.00000" pt_clust_9="26.07651"></scales>
<clustering>
<clus scale="   26.077">  2  9  1 -1</clus>
<clus scale="   80.629">  5  6 -1 -1</clus>
<clus scale="   90.658">  7  8 -1 -1</clus>
<clus scale="  116.863">  2  5  1 -1</clus>
<clus scale="   26.077">  2  5  1 -1</clus>
</clustering>
</event>
<event>
 9    1  0.2674825E-005  0.1014767E+03  0.7546771E-02  0.1283768E+00
          3   -1    0    0  502    0  0.00000000000E+00  0.00000000000E+00  0.21769301710E+02  0.21769301710E+02  0.00000000000E+00 0. -1.
         -4   -1    0    0    0  501 -0.00000000000E+00 -0.00000000000E+00 -0.58107908049E+03  0.58107908049E+03  0.00000000000E+00 0.  1.
        -24    2    1    2    0    0 -0.22386344069E+02 -0.26182320741E+02 -0.29937250929E+03  0.31188186028E+03  0.80372465004E+02 0.  0.
         23    2    1    2    0    0  0.45724357938E+02  0.24077711977E+02 -0.22265850681E+03  0.24693473322E+03  0.93431786307E+02 0.  0.
         13    1    3    3    0    0 -0.14956409764E+01 -0.53207140697E+02 -0.18783260767E+03  0.19522890479E+03  0.00000000000E+00 0. -1.
        -14    1    3    3    0    0 -0.20890703092E+02  0.27024819956E+02 -0.11153990162E+03  0.11665295548E+03  0.00000000000E+00 0.  1.
        -11    1    4    4    0    0 -0.20413271328E+02 -0.23021633419E+01 -0.12152690445E+03  0.12325092336E+03  0.00000000000E+00 0.  1.
         11    1    4    4    0    0  0.66137629267E+02  0.26379875319E+02 -0.10113160235E+03  0.12368380986E+03  0.00000000000E+00 0. -1.
         21    1    1    2  502  501 -0.23338013870E+02  0.21046087640E+01 -0.37278762679E+02  0.44031788702E+02  0.00000000000E+00 0.  1.
<scales pt_clust_5="13000.00000" pt_clust_6="13000.00000" pt_clust_7="13000.00000" pt_clust_8="13000.00000" pt_clust_9="23.43272"></scales>
<clustering>
<clus scale="   23.433">  1  9  2 -1</clus>
<clus scale="   80.372">  5  6 -1 -1</clus>
<clus scale="   89.598">  2  5  1 -1</clus>
<clus scale="   93.432">  7  8 -1 -1</clus>
<clus scale="   23.433">  1  5  2 -1</clus>
</clustering>
</event>
<event>
 9    1  0.2674825E-005  0.2254821E+03  0.7546771E-02  0.1131409E+00
          1   -1    0    0  502    0  0.00000000000E+00  0.00000000000E+00  0.35809969674E+03  0.35809969674E+03  0.00000000000E+00 0. -1.
         -2   -1    0    0    0  501 -0.00000000000E+00 -0.00000000000E+00 -0.11470228983E+04  0.11470228983E+04  0.00000000000E+00 0.  1.
        -24    2    1    2    0    0  0.23437630854E+03  0.14266319400E+03 -0.79160542033E+03  0.84173089796E+03  0.81158623483E+02 0.  0.
         23    2    1    2    0    0 -0.19970986413E+03  0.76279556722E+01  0.27234737037E+03  0.35273354730E+03  0.10151674592E+03 0.  0.
         11    1    3    3    0    0  0.22489428567E+03  0.15276169140E+03 -0.76193466110E+03  0.80898578596E+03  0.00000000000E+00 0. -1.
        -12    1    3    3    0    0  0.94820228682E+01 -0.10098497400E+02 -0.29670759225E+02  0.32745112008E+02  0.00000000000E+00 0.  1.
        -13    1    4    4    0    0 -0.13955176412E+03  0.43171015883E+02  0.13629248970E+03  0.19978507009E+03  0.00000000000E+00 0. -1.
         13    1    4    4    0    0 -0.60158100012E+02 -0.35543060211E+02  0.13605488067E+03  0.15294847721E+03  0.00000000000E+00 0.  1.
         21    1    1    2  502  501 -0.34666444405E+02 -0.15029114967E+03 -0.26966515161E+03  0.31065814979E+03  0.00000000000E+00 0.  1.
<scales pt_clust_5="13000.00000" pt_clust_6="13000.00000" pt_clust_7="13000.00000" pt_clust_8="13000.00000" pt_clust_9="154.23745"></scales>
<clustering>
<clus scale="   81.159">  5  6 -1 -1</clus>
<clus scale="  101.517">  7  8 -1 -1</clus>
<clus scale="  154.237">  2  9  1 -1</clus>
<clus scale="  217.079">  2  5  1 -1</clus>
<clus scale="  225.482">  1  5  2 -1</clus>
</clustering>
</event>
<event>
 9    1  0.2674825E-005  0.9016864E+02  0.7546771E-02  0.1307917E+00
          1   -1    0    0  502    0  0.00000000000E+00  0.00000000000E+00  0.20452319733E+03  0.20452319733E+03  0.00000000000E+00 0. -1.
         -2   -1    0    0    0  501 -0.00000000000E+00 -0.00000000000E+00 -0.23869488475E+03  0.23869488475E+03  0.00000000000E+00 0.  1.
         23    2    1    2    0    0 -0.86849416476E+01  0.10140077878E+02 -0.19829261860E+03  0.21771800377E+03  0.88898353101E+02 0.  0.
        -24    2    1    2    0    0  0.52229218206E+02 -0.11698370327E+02  0.15248521808E+03  0.18040105265E+03  0.80175151773E+02 0.  0.
         11    1    4    4    0    0 -0.46133198088E+00 -0.24673447994E+02  0.10634910222E+03  0.10917473795E+03  0.00000000000E+00 0. -1.
        -12    1    4    4    0    0  0.52690550187E+02  0.12975077667E+02  0.46136115862E+02  0.71226314704E+02  0.00000000000E+00 0.  1.
        -13    1    3    3    0    0 -0.17417456206E+02 -0.37524326098E+02 -0.95554316071E+02  0.10412526182E+03  0.00000000000E+00 0. -1.
         13    1    3    3    0    0  0.87325145579E+01  0.47664403976E+02 -0.10273830253E+03  0.11359274195E+03  0.00000000000E+00 0.  1.
         21    1    1    2  502  501 -0.43544276558E+02  0.15582924486E+01  0.11635713095E+02  0.45099025661E+02  0.00000000000E+00 0.  1.
<scales pt_clust_5="13000.00000" pt_clust_6="13000.00000" pt_clust_7="13000.00000" pt_clust_8="13000.00000" pt_clust_9="43.57215"></scales>
<clustering>
<clus scale="   43.572">  1  9  2 -1</clus>
<clus scale="   80.175">  5  6 -1 -1</clus>
<clus scale="   81.581">  1  5  2 -1</clus>
<clus scale="   88.898">  7  8 -1 -1</clus>
<clus scale="   43.572">  1  5  2 -1</clus>
</clustering>
</event>
<event>
 9    1  0.2674825E-005  0.1084843E+03  0.7546771E-02  0.1268104E+00
         -2   -1    0    0    0  501 -0.00000000000E+00  0.00000000000E+00  0.78365152900E+02  0.78365152900E+02  0.00000000000E+00 0.  1.
          1   -1    0    0  502    0  0.00000000000E+00 -0.00000000000E+00 -0.51010668040E+03  0.51010668040E+03  0.00000000000E+00 0. -1.
         23    2    1    2    0    0 -0.55149763307E+02  0.13543772701E+02  0.23962388602E+02  0.10992442673E+03  0.91017873804E+02 0.  0.
        -24    2    1    2    0    0  0.81576107659E+02 -0.48492136024E+01 -0.40473456712E+03  0.42048001840E+03  0.79468231630E+02 0.  0.
         11    1    4    4    0    0  0.75002277972E+02 -0.25587490736E+02 -0.20865329137E+03  0.22319555860E+03  0.00000000000E+00 0. -1.
        -12    1    4    4    0    0  0.65738296865E+01  0.20738277133E+02 -0.19608127575E+03  0.19728445979E+03  0.00000000000E+00 0.  1.
        -11    1    3    3    0    0 -0.73523840510E+02  0.28191824238E+02  0.35912765750E+01  0.78825321722E+02  0.00000000000E+00 0.  1.
         11    1    3    3    0    0  0.18374077203E+02 -0.14648051537E+02  0.20371112026E+02  0.31099105004E+02  0.00000000000E+00 0. -1.
         21    1    1    2  502  501 -0.26426344352E+02 -0.86945590986E+01 -0.50969348987E+02  0.58067388179E+02  0.00000000000E+00 0.  1.
<scales pt_clust_5="13000.00000" pt_clust_6="13000.00000" pt_clust_7="13000.00000" pt_clust_8="13000.00000" pt_clust_9="27.81990"></scales>
<clustering>
<clus scale="   27.820">  2  9  1 -1</clus>
<clus scale="   79.468">  5  6 -1 -1</clus>
<clus scale="   91.018">  7  8 -1 -1</clus>
<clus scale="   98.994">  2  5  1 -1</clus>
<clus scale="   27.820">  2  5  1 -1</clus>
</clustering>
</event>
<event>
 9    1  0.2674825E-005  0.1149482E+03  0.7546771E-02  0.1255120E+00
          1   -1    0    0  502    0  0.00000000000E+00  0.00000000000E+00  0.74293011170E+03  0.74293011170E+03  0.00000000000E+00 0. -1.
         -2   -1    0    0    0  501 -0.00000000000E+00 -0.00000000000E+00 -0.22630337460E+02  0.22630337460E+02  0.00000000000E+00 0.  1.
        -24    2    1    2    0    0  0.30331993292E+02  0.65767005609E+02  0.19795971987E+03  0.22590620767E+03  0.81241831149E+02 0.  0.
         23    2    1    2    0    0 -0.83105032512E+01 -0.66986830551E+02  0.44741186869E+03  0.46154747478E+03  0.91062568056E+02 0.  0.
         11    1    3    3    0    0  0.72781553704E+01  0.44857074179E+02  0.18771816402E+03  0.19314046120E+03  0.00000000000E+00 0. -1.
        -12    1    3    3    0    0  0.23053837922E+02  0.20909931430E+02  0.10241555848E+02  0.32765746466E+02  0.00000000000E+00 0.  1.
        -11    1    4    4    0    0 -0.46803275411E+02 -0.26684262096E+02  0.16134376650E+03  0.17010116819E+03  0.00000000000E+00 0.  1.
         11    1    4    4    0    0  0.38492772159E+02 -0.40302568455E+02  0.28606810219E+03  0.29144630658E+03  0.00000000000E+00 0. -1.
         21    1    1    2  502  501 -0.22021490041E+02  0.12198249418E+01  0.74928185684E+02  0.78106766713E+02  0.00000000000E+00 0.  1.
<scales pt_clust_5="13000.00000" pt_clust_6="13000.00000" pt_clust_7="13000.00000" pt_clust_8="13000.00000" pt_clust_9="22.05525"></scales>
<clustering>
<clus scale="   22.055">  1  9  2 -1</clus>
<clus scale="   81.242">  5  6 -1 -1</clus>
<clus scale="   91.063">  7  8 -1 -1</clus>
<clus scale="  107.336">  2  5  1 -1</clus>
<clus scale="   22.055">  1  5  2 -1</clus>
</clustering>
</event>
<event>
 9    1  0.2674825E-005  0.1284373E+03  0.7546771E-02  0.1233674E+00
         -2   -1    0    0    0  501 -0.00000000000E+00  0.00000000000E+00  0.96730731021E+02  0.96730731021E+02  0.00000000000E+00 0.  1.
          1   -1    0    0  502    0  0.00000000000E+00 -0.00000000000E+00 -0.36310299455E+03  0.36310299455E+03  0.00000000000E+00 0. -1.
        -24    2    1    2    0    0  0.90387669132E+02  0.40029240185E+02  0.10282104406E+02  0.12722647709E+03  0.79426595042E+02 0.  0.
         23    2    1    2    0    0 -0.48678027776E+02 -0.45958386752E+02 -0.10456685313E+03  0.15543794608E+03  0.93514729365E+02 0.  0.
         13    1    3    3    0    0  0.70464935263E+02  0.10320081716E+02 -0.26435778018E+02  0.75964870484E+02  0.00000000000E+00 0. -1.
        -14    1    3    3    0    0  0.19922733870E+02  0.29709158469E+02  0.36717882424E+02  0.51261606603E+02  0.00000000000E+00 0.  1.
        -13    1    4    4    0    0 -0.19624231233E+02  0.39192416117E+01  0.13415239976E+02  0.24092313503E+02  0.00000000000E+00 0.  1.
         13    1    4    4    0    0 -0.29053796543E+02 -0.49877628364E+02 -0.11798209310E+03  0.13134563258E+03  0.00000000000E+00 0. -1.
         21    1    1    2  502  501 -0.41709641356E+02  0.59291465672E+01 -0.17208751481E+03  0.17716930240E+03  0.00000000000E+00 0. -1.
<scales pt_clust_5="13000.00000" pt_clust_6="13000.00000" pt_clust_7="13000.00000" pt_clust_8="13000.00000" pt_clust_9="42.12896"></scales>
<clustering>
<clus scale="   42.129">  2  9  1 -1</clus>
<clus scale="   79.427">  5  6 -1 -1</clus>
<clus scale="   93.515">  7  8 -1 -1</clus>
<clus scale="  118.574">  1  5  2 -1</clus>
<clus scale="   42.129">  2  5  1 -1</clus>
</clustering>
</event>
<event>
 9    1  0.2674825E-005  0.8884735E+02  0.7546771E-02  0.1309194E+00
         -2   -1    0    0    0  501 -0.00000000000E+00  0.00000000000E+00  0.35265317285E+02  0.35265317285E+02  0.00000000000E+00 0.  1.
          1   -1    0    0  502    0  0.00000000000E+00 -0.00000000000E+00 -0.49993935345E+03  0.49993935345E+03  0.00000000000E+00 0. -1.
        -24    2    1    2    0    0 -0.89286027881E+01 -0.12464593743E+02 -0.37898944440E+02  0.90714052263E+02  0.80979153140E+02 0.  0.
         23    2    1    2    0    0  0.18879527718E+02  0.38245540110E+02 -0.33484856752E+03  0.34850018168E+03  0.86658268837E+02 0.  0.
         11    1    3    3    0    0 -0.31171979800E+02  0.93342067964E+01 -0.47985050602E+02  0.57977450983E+02  0.00000000000E+00 0. -1.
        -12    1    3    3    0    0  0.22243377012E+02 -0.21798800539E+02  0.10086106162E+02  0.32736601280E+02  0.00000000000E+00 0.  1.
        -13    1    4    4    0    0  0.71098237253E+01 -0.23276247661E+02 -0.38078495992E+02  0.45191870459E+02  0.00000000000E+00 0.  1.
         13    1    4    4    0    0  0.11769703993E+02  0.61521787772E+02 -0.29677007153E+03  0.30330831123E+03  0.00000000000E+00 0. -1.
         21    1    1    2  502  501 -0.99509249302E+01 -0.25780946368E+02 -0.91926524207E+02  0.95990436791E+02  0.00000000000E+00 0.  1.
<scales pt_clust_5="13000.00000" pt_clust_6="13000.00000" pt_clust_7="13000.00000" pt_clust_8="13000.00000" pt_clust_9="27.63473"></scales>
<clustering>
<clus scale="   27.635">  2  9  1 -1</clus>
<clus scale="   80.979">  5  6 -1 -1</clus>
<clus scale="   83.318">  1  5  2 -1</clus>
<clus scale="   86.658">  7  8 -1 -1</clus>
<clus scale="   27.635">  2  5  1 -1</clus>
</clustering>
</event>
<event>
 9    1  0.2674825E-005  0.9808924E+02  0.7546771E-02  0.1292163E+00
          1   -1    0    0  502    0  0.00000000000E+00  0.00000000000E+00  0.24854740968E+02  0.24854740968E+02  0.00000000000E+00 0. -1.
         -2   -1    0    0    0  501 -0.00000000000E+00 -0.00000000000E+00 -0.88365017783E+03  0.88365017783E+03  0.00000000000E+00 0.  1.
        -24    2    1    2    0    0 -0.11643944389E+01  0.33152248965E+02 -0.63126497084E+03  0.63677172196E+03  0.76696382276E+02 0.  0.
         23    2    1    2    0    0  0.36492410348E+02 -0.49024772231E+02 -0.16932937498E+03  0.20182345001E+03  0.91242223984E+02 0.  0.
         11    1    3    3    0    0 -0.26084927262E+02  0.95212714584E+01 -0.84843128034E+02  0.89271688766E+02  0.00000000000E+00 0. -1.
        -12    1    3    3    0    0  0.24920532823E+02  0.23630977507E+02 -0.54642184280E+03  0.54750003319E+03  0.00000000000E+00 0.  1.
        -11    1    4    4    0    0  0.26844358036E+02  0.22550141616E+02 -0.36378770543E+02  0.50522701744E+02  0.00000000000E+00 0.  1.
         11    1    4    4    0    0  0.96480523120E+01 -0.71574913848E+02 -0.13295060444E+03  0.15130074827E+03  0.00000000000E+00 0. -1.
         21    1    1    2  502  501 -0.35328015909E+02  0.15872523266E+02 -0.58201091038E+02  0.69909746823E+02  0.00000000000E+00 0. -1.
<scales pt_clust_5="13000.00000" pt_clust_6="13000.00000" pt_clust_7="13000.00000" pt_clust_8="13000.00000" pt_clust_9="38.72991"></scales>
<clustering>
<clus scale="   38.730">  1  9  2 -1</clus>
<clus scale="   76.696">  5  6 -1 -1</clus>
<clus scale="   84.727">  2  5  1 -1</clus>
<clus scale="   91.242">  7  8 -1 -1</clus>
<clus scale="   38.730">  1  5  2 -1</clus>
</clustering>
</event>
<event>
 9    1  0.2674825E-005  0.2309365E+03  0.7546771E-02  0.1126994E+00
          1   -1    0    0  502    0  0.00000000000E+00  0.00000000000E+00  0.40566922036E+03  0.40566922036E+03  0.00000000000E+00 0. -1.
         -2   -1    0    0    0  501 -0.00000000000E+00 -0.00000000000E+00 -0.20119693369E+03  0.20119693369E+03  0.00000000000E+00 0.  1.
         23    2    1    2    0    0 -0.80491080803E+00 -0.21719700355E+03 -0.60724113460E+02  0.24500663677E+03  0.95737390170E+02 0.  0.
        -24    2    1    2    0    0  0.27299153065E+02  0.18936305475E+03  0.22441259156E+03  0.30582388022E+03  0.81016197136E+02 0.  0.
         13    1    4    4    0    0  0.51263367947E+02  0.13188608065E+03  0.18176040372E+03  0.23034477533E+03  0.00000000000E+00 0. -1.
        -14    1    4    4    0    0 -0.23964214883E+02  0.57476974101E+02  0.42652187837E+02  0.75479104884E+02  0.00000000000E+00 0.  1.
        -13    1    3    3    0    0 -0.33392768016E+02 -0.14715899532E+03 -0.71549558878E+02  0.16700355157E+03  0.00000000000E+00 0. -1.
         13    1    3    3    0    0  0.32587857208E+02 -0.70038008222E+02  0.10825445418E+02  0.78003085206E+02  0.00000000000E+00 0.  1.
         21    1    1    2  502  501 -0.26494242257E+02  0.27833948792E+02  0.40783808583E+02  0.56035637059E+02  0.00000000000E+00 0. -1.
<scales pt_clust_5="13000.00000" pt_clust_6="13000.00000" pt_clust_7="13000.00000" pt_clust_8="13000.00000" pt_clust_9="38.42751"></scales>
<clustering>
<clus scale="   38.428">  1  9  2 -1</clus>
<clus scale="   81.016">  5  6 -1 -1</clus>
<clus scale="   95.737">  7  8 -1 -1</clus>
<clus scale="  225.232">  1  5  2 -1</clus>
<clus scale="   38.428">  1  5  2 -1</clus>
</clustering>
</event>
<event>
 9    1  0.2674825E-005  0.1181622E+03  0.7546771E-02  0.1249216E+00
         -2   -1    0    0    0  501 -0.00000000000E+00  0.00000000000E+00  0.43240884612E+02  0.43240884612E+02  0.00000000000E+00 0.  1.
          1   -1    0    0  502    0  0.00000000000E+00 -0.00000000000E+00 -0.81680840344E+03  0.81680840344E+03  0.00000000000E+00 0. -1.
        -24    2    1    2    0    0  0.54471613681E+02  0.27403661981E+02 -0.13813033089E+03  0.17131785892E+03  0.80942591281E+02 0.  0.
         23    2    1    2    0    0 -0.76003116221E+02  0.61121408568E+02 -0.54263364674E+03  0.55868224238E+03  0.90345299371E+02 0.  0.
         13    1    3    3    0    0 -0.96357406936E+01  0.29226352450E+02 -0.19413968979E+02  0.36385840210E+02  0.00000000000E+00 0. -1.
        -14    1    3    3    0    0  0.64107354375E+02 -0.18226904693E+01 -0.11871636192E+03  0.13493201871E+03  0.00000000000E+00 0.  1.
        -13    1    4    4    0    0 -0.67069887071E+02 -0.39595781195E+01 -0.26544361909E+03  0.27381446808E+03  0.00000000000E+00 0. -1.
         13    1    4    4    0    0 -0.89332291497E+01  0.65080986687E+02 -0.27719002765E+03  0.28486777431E+03  0.00000000000E+00 0.  1.
         21    1    1    2  502  501  0.21531502540E+02 -0.88525070548E+02 -0.92803541192E+02  0.13004918675E+03  0.00000000000E+00 0.  1.
<scales pt_clust_5="13000.00000" pt_clust_6="13000.00000" pt_clust_7="13000.00000" pt_clust_8="13000.00000" pt_clust_9="91.10595"></scales>
<clustering>
<clus scale="   80.943">  5  6 -1 -1</clus>
<clus scale="   90.345">  7  8 -1 -1</clus>
<clus scale="   91.106">  1  9  2 -1</clus>
<clus scale="  111.138">  1  5  2 -1</clus>
<clus scale="  118.162">  2  5  1 -1</clus>
</clustering>
</event>
<event>
 9    1  0.2674825E-005  0.1006360E+03  0.7546771E-02  0.1288438E+00
         -4   -1    0    0    0  501 -0.00000000000E+00  0.00000000000E+00  0.48827541944E+02  0.48827541944E+02  0.00000000000E+00 0.  1.
          3   -1    0    0  502    0  0.00000000000E+00 -0.00000000000E+00 -0.51196167462E+03  0.51196167462E+03  0.00000000000E+00 0. -1.
        -24    2    1    2    0    0 -0.36213190894E+02 -0.20479628252E+02 -0.16267917433E+02  0.83575883744E+02  0.70636200619E+02 0.  0.
         23    2    1    2    0    0  0.39051708575E+02  0.61953614326E+02 -0.24324138521E+03  0.26938835811E+03  0.89668443392E+02 0.  0.
         13    1    3    3    0    0 -0.21755786293E+02 -0.44812837348E+02 -0.22393374677E+02  0.54616552966E+02  0.00000000000E+00 0. -1.
        -14    1    3    3    0    0 -0.14457404600E+02  0.24333209095E+02  0.61254572439E+01  0.28959330778E+02  0.00000000000E+00 0.  1.
        -13    1    4    4    0    0  0.49147258942E+02  0.15564168110E+02 -0.19501879928E+03  0.20171769497E+03  0.00000000000E+00 0. -1.
         13    1    4    4    0    0 -0.10095550367E+02  0.46389446216E+02 -0.48222585927E+02  0.67670663149E+02  0.00000000000E+00 0.  1.
         21    1    1    2  502  501 -0.28385176815E+01 -0.41473986073E+02 -0.20362483004E+03  0.20782497470E+03  0.00000000000E+00 0. -1.
<scales pt_clust_5="13000.00000" pt_clust_6="13000.00000" pt_clust_7="13000.00000" pt_clust_8="13000.00000" pt_clust_9="41.57101"></scales>
<clustering>
<clus scale="   41.571">  2  9  1 -1</clus>
<clus scale="   70.636">  5  6 -1 -1</clus>
<clus scale="   84.123">  1  5  2 -1</clus>
<clus scale="   89.668">  7  8 -1 -1</clus>
<clus scale="   41.571">  2  5  1 -1</clus>
</clustering>
</event>
<event>
 9    1  0.2674825E-005  0.1201729E+03  0.7546771E-02  0.1244927E+00
         -2   -1    0    0    0  501 -0.00000000000E+00  0.00000000000E+00  0.15026100328E+03  0.15026100328E+03  0.00000000000E+00 0.  1.
          1   -1    0    0  502    0  0.00000000000E+00 -0.00000000000E+00 -0.86029484882E+03  0.86029484882E+03  0.00000000000E+00 0. -1.
         23    2    1    2    0    0 -0.87773427312E+01  0.77992979507E+02  0.11372051600E+03  0.16787091706E+03  0.95332798332E+02 0.  0.
        -24    2    1    2    0    0 -0.25948955920E+02 -0.12327914083E+02 -0.31604165304E+03  0.32956700416E+03  0.88919952714E+02 0.  0.
         13    1    4    4    0    0  0.23857135091E+02 -0.19634113624E+02 -0.49785493853E+02  0.58593998931E+02  0.00000000000E+00 0. -1.
        -14    1    4    4    0    0 -0.49806091011E+02  0.73061995415E+01 -0.26625615919E+03  0.27097300522E+03  0.00000000000E+00 0.  1.
        -13    1    3    3    0    0 -0.24660803694E+02  0.46829054827E+02  0.12106660778E+03  0.13212963004E+03  0.00000000000E+00 0.  1.
         13    1    3    3    0    0  0.15883460962E+02  0.31163924680E+02 -0.73460917798E+01  0.35741287023E+02  0.00000000000E+00 0. -1.
         21    1    1    2  502  501  0.34726298651E+02 -0.65665065425E+02 -0.50771270849E+03  0.51311793089E+03  0.00000000000E+00 0. -1.
<scales pt_clust_5="13000.00000" pt_clust_6="13000.00000" pt_clust_7="13000.00000" pt_clust_8="13000.00000" pt_clust_9="74.28201"></scales>
<clustering>
<clus scale="   74.282">  2  9  1 -1</clus>
<clus scale="   88.920">  5  6 -1 -1</clus>
<clus scale="   95.333">  7  8 -1 -1</clus>
<clus scale="  115.152">  2  5  1 -1</clus>
<clus scale="   74.282">  2  5  1 -1</clus>
</clustering>
</event>
<event>
 9    1  0.2674825E-005  0.2508829E+03  0.7546771E-02  0.1113444E+00
         -2   -1    0    0    0  501 -0.00000000000E+00  0.00000000000E+00  0.45095514901E+03  0.45095514901E+03  0.00000000000E+00 0.  1.
          1   -1    0    0  502    0  0.00000000000E+00 -0.00000000000E+00 -0.26097910307E+03  0.26097910307E+03  0.00000000000E+00 0. -1.
        -24    2    1    2    0    0 -0.21299471199E+03  0.83854186968E+02  0.29975829878E+03  0.38559279803E+03  0.80177903414E+02 0.  0.
         23    2    1    2    0    0  0.24395463571E+03 -0.64459554939E+02 -0.84119332058E+02  0.28169557931E+03  0.92776283973E+02 0.  0.
         11    1    3    3    0    0 -0.48122974634E+02  0.12403961730E+02  0.21025195498E+02  0.53960520753E+02  0.00000000000E+00 0. -1.
        -12    1    3    3    0    0 -0.16487173736E+03  0.71450225239E+02  0.27873310328E+03  0.33163227728E+03  0.00000000000E+00 0.  1.
        -13    1    4    4    0    0  0.12440619744E+03 -0.31567444762E+02 -0.91281152240E+02  0.15749810882E+03  0.00000000000E+00 0. -1.
         13    1    4    4    0    0  0.11954843828E+03 -0.32892110176E+02  0.71618201820E+01  0.12419747048E+03  0.00000000000E+00 0.  1.
         21    1    1    2  502  501 -0.30959923721E+02 -0.19394632030E+02 -0.25662920776E+02  0.44645874738E+02  0.00000000000E+00 0.  1.
<scales pt_clust_5="13000.00000" pt_clust_6="13000.00000" pt_clust_7="13000.00000" pt_clust_8="13000.00000" pt_clust_9="36.53312"></scales>
<clustering>
<clus scale="   36.533">  2  9  1 -1</clus>
<clus scale="   80.178">  5  6 -1 -1</clus>
<clus scale="   92.776">  7  8 -1 -1</clus>
<clus scale="  246.502">  1  5  2 -1</clus>
<clus scale="   36.533">  2  5  1 -1</clus>
</clustering>
</event>
<event>
 9    1  0.2674825E-005  0.9900974E+02  0.7546771E-02  0.1287015E+00
          1   -1    0    0  502    0  0.00000000000E+00  0.00000000000E+00  0.45562049691E+03  0.45562049691E+03  0.00000000000E+00 0. -1.
         -2   -1    0    0    0  501 -0.00000000000E+00 -0.00000000000E+00 -0.68704911866E+02  0.68704911866E+02  0.00000000000E+00 0.  1.
        -24    2    1    2    0    0 -0.56219719011E+02 -0.19961410047E+02  0.70665896784E+01  0.10102676409E+03  0.81224107730E+02 0.  0.
         23    2    1    2    0    0 -0.22587659114E+01 -0.29453025344E+02  0.12411269630E+03  0.15634813563E+03  0.90378069281E+02 0.  0.
         13    1    3    3    0    0 -0.24142228078E+02  0.94902219743E+01  0.39130905783E+02  0.46948261704E+02  0.00000000000E+00 0. -1.
        -14    1    3    3    0    0 -0.32077490934E+02 -0.29451632021E+02 -0.32064316104E+02  0.54078502388E+02  0.00000000000E+00 0.  1.
        -13    1    4    4    0    0 -0.63086181601E+01 -0.61922053385E+02  0.77570598841E+02  0.99455201790E+02  0.00000000000E+00 0.  1.
         13    1    4    4    0    0  0.40498522487E+01  0.32469028041E+02  0.46542097461E+02  0.56892933842E+02  0.00000000000E+00 0. -1.
         21    1    1    2  502  501  0.58478484923E+02  0.49414435390E+02  0.25573629906E+03  0.26695050905E+03  0.00000000000E+00 0. -1.
<scales pt_clust_5="13000.00000" pt_clust_6="13000.00000" pt_clust_7="13000.00000" pt_clust_8="13000.00000" pt_clust_9="76.56056"></scales>
<clustering>
<clus scale="   76.561">  1  9  2 -1</clus>
<clus scale="   81.224">  5  6 -1 -1</clus>
<clus scale="   90.378">  7  8 -1 -1</clus>
<clus scale="   90.731">  2  5  1 -1</clus>
<clus scale="   76.561">  1  5  2 -1</clus>
</clustering>
</event>
<event>
 9    1  0.2674825E-005  0.1329797E+03  0.7546771E-02  0.1226120E+00
         -2   -1    0    0    0  501 -0.00000000000E+00  0.00000000000E+00  0.23248583070E+03  0.23248583070E+03  0.00000000000E+00 0.  1.
          1   -1    0    0  502    0  0.00000000000E+00 -0.00000000000E+00 -0.21562070848E+03  0.21562070848E+03  0.00000000000E+00 0. -1.
         23    2    1    2    0    0  0.36325097599E+02 -0.90672945232E+02  0.17668270558E+03  0.22215668058E+03  0.92713087333E+02 0.  0.
        -24    2    1    2    0    0 -0.55593177905E+02  0.60998007288E+02 -0.14996140057E+03  0.18922105247E+03  0.80652505927E+02 0.  0.
         13    1    4    4    0    0 -0.60278517297E+02  0.35056666356E+02 -0.49902851927E+02  0.85748260239E+02  0.00000000000E+00 0. -1.
        -14    1    4    4    0    0  0.46853393917E+01  0.25941340931E+02 -0.10005854864E+03  0.10347279223E+03  0.00000000000E+00 0.  1.
        -13    1    3    3    0    0  0.26582763627E+02 -0.43572083687E+01  0.10831679327E+03  0.11161611125E+03  0.00000000000E+00 0.  1.
         13    1    3    3    0    0  0.97423339718E+01 -0.86315736863E+02  0.68365912313E+02  0.11054056933E+03  0.00000000000E+00 0. -1.
         21    1    1    2  502  501  0.19268080306E+02  0.29674937944E+02 -0.98561827976E+01  0.36728806134E+02  0.00000000000E+00 0. -1.
<scales pt_clust_5="13000.00000" pt_clust_6="13000.00000" pt_clust_7="13000.00000" pt_clust_8="13000.00000" pt_clust_9="35.38165"></scales>
<clustering>
<clus scale="   35.382">  2  9  1 -1</clus>
<clus scale="   80.653">  5  6 -1 -1</clus>
<clus scale="   92.713">  7  8 -1 -1</clus>
<clus scale="  124.871">  2  5  1 -1</clus>
<clus scale="   35.382">  2  5  1 -1</clus>
</clustering>
</event>
<event>
 9    1  0.2674825E-005  0.1629411E+03  0.7546771E-02  0.1186944E+00
         -2   -1    0    0    0  501 -0.00000000000E+00  0.00000000000E+00  0.36246228076E+03  0.36246228076E+03  0.00000000000E+00 0.  1.
          1   -1    0    0  502    0  0.00000000000E+00 -0.00000000000E+00 -0.19845247577E+03  0.19845247577E+03  0.00000000000E+00 0. -1.
         23    2    1    2    0    0 -0.13265336568E+03 -0.47350427472E+01  0.21989394199E+03  0.27276852540E+03  0.91814958857E+02 0.  0.
        -24    2    1    2    0    0  0.13731966732E+03  0.25427443639E+02  0.58300024802E+02  0.17200849982E+03  0.81760535689E+02 0.  0.
         11    1    4    4    0    0  0.10262317908E+03  0.54759207900E+02  0.39562212003E+02  0.12286275413E+03  0.00000000000E+00 0. -1.
        -12    1    4    4    0    0  0.34696488234E+02 -0.29331764261E+02  0.18737812798E+02  0.49145745685E+02  0.00000000000E+00 0.  1.
        -11    1    3    3    0    0 -0.66045779631E+02 -0.17046170624E+02  0.18373075862E+03  0.19598369474E+03  0.00000000000E+00 0.  1.
         11    1    3    3    0    0 -0.66607586047E+02  0.12311127877E+02  0.36163183373E+02  0.76784830665E+02  0.00000000000E+00 0. -1.
         21    1    1    2  502  501 -0.46663016390E+01 -0.20692400892E+02 -0.11418416181E+03  0.11613773131E+03  0.00000000000E+00 0. -1.
<scales pt_clust_5="13000.00000" pt_clust_6="13000.00000" pt_clust_7="13000.00000" pt_clust_8="13000.00000" pt_clust_9="21.21202"></scales>
<clustering>
<clus scale="   21.212">  2  9  1 -1</clus>
<clus scale="   81.761">  5  6 -1 -1</clus>
<clus scale="   91.815">  7  8 -1 -1</clus>
<clus scale="  157.495">  2  5  1 -1</clus>
<clus scale="   21.212">  2  5  1 -1</clus>
</clustering>
</event>
<event>
 9    1  0.2674825E-005  0.1340959E+03  0.7546771E-02  0.1234792E+00
         -2   -1    0    0    0  501 -0.00000000000E+00  0.00000000000E+00  0.40858951965E+02  0.40858951965E+02  0.00000000000E+00 0.  1.
          1   -1    0    0  502    0  0.00000000000E+00 -0.00000000000E+00 -0.68026542530E+03  0.68026542530E+03  0.00000000000E+00 0. -1.
        -24    2    1    2    0    0  0.45351598987E+02  0.88499095017E+01 -0.11988753426E+03  0.15108912968E+03  0.79497269185E+02 0.  0.
         23    2    1    2    0    0 -0.10744682103E+03  0.20138419648E+02 -0.30492158937E+03  0.34476171979E+03  0.11803852113E+03 0.  0.
         13    1    3    3    0    0  0.42751819400E+02  0.10637563796E+02 -0.13169444411E+03  0.13886793163E+03  0.00000000000E+00 0. -1.
        -14    1    3    3    0    0  0.25997795874E+01 -0.17876542947E+01  0.11806909846E+02  0.12221198055E+02  0.00000000000E+00 0.  1.
        -13    1    4    4    0    0 -0.54306947594E+02 -0.47937284739E+01 -0.27241177321E+02  0.60945107527E+02  0.00000000000E+00 0.  1.
         13    1    4    4    0    0 -0.53139873432E+02  0.24932148122E+02 -0.27768041205E+03  0.28381661226E+03  0.00000000000E+00 0. -1.
         21    1    1    2  502  501  0.62095222039E+02 -0.28988329150E+02 -0.21459734970E+03  0.22527352779E+03  0.00000000000E+00 0. -1.
<scales pt_clust_5="13000.00000" pt_clust_6="13000.00000" pt_clust_7="13000.00000" pt_clust_8="13000.00000" pt_clust_9="68.52839"></scales>
<clustering>
<clus scale="   68.528">  2  9  1 -1</clus>
<clus scale="   79.497">  5  6 -1 -1</clus>
<clus scale="  101.826">  1  5  2 -1</clus>
<clus scale="  118.039">  7  8 -1 -1</clus>
<clus scale="   68.528">  2  5  1 -1</clus>
</clustering>
</event>
<event>
 9    1  0.2674825E-005  0.1855733E+03  0.7546771E-02  0.1163948E+00
          1   -1    0    0  502    0  0.00000000000E+00  0.00000000000E+00  0.21787041913E+03  0.21787041913E+03  0.00000000000E+00 0. -1.
         -2   -1    0    0    0  501 -0.00000000000E+00 -0.00000000000E+00 -0.17684915826E+03  0.17684915826E+03  0.00000000000E+00 0.  1.
         23    2    1    2    0    0  0.33291957342E+02  0.16915131752E+03 -0.77980761266E+00  0.19622331301E+03  0.93714768447E+02 0.  0.
        -24    2    1    2    0    0 -0.34176869508E+02 -0.14326513413E+03  0.35274119335E+02  0.17178524372E+03  0.81073728157E+02 0.  0.
         11    1    4    4    0    0  0.40031542860E+01 -0.47004648036E+02  0.48178323161E+02  0.67428577056E+02  0.00000000000E+00 0. -1.
        -12    1    4    4    0    0 -0.38180023794E+02 -0.96260486098E+02 -0.12904203826E+02  0.10435666666E+03  0.00000000000E+00 0.  1.
        -11    1    3    3    0    0 -0.44102248064E+01  0.21027438516E+02 -0.33610164148E+02  0.39890429773E+02  0.00000000000E+00 0.  1.
         11    1    3    3    0    0  0.37702182149E+02  0.14812387900E+03  0.32830356536E+02  0.15633288323E+03  0.00000000000E+00 0. -1.
         21    1    1    2  502  501  0.88491216618E+00 -0.25886183387E+02  0.65269491447E+01  0.26711020666E+02  0.00000000000E+00 0.  1.
<scales pt_clust_5="13000.00000" pt_clust_6="13000.00000" pt_clust_7="13000.00000" pt_clust_8="13000.00000" pt_clust_9="25.90130"></scales>
<clustering>
<clus scale="   25.901">  1  9  2 -1</clus>
<clus scale="   81.074">  5  6 -1 -1</clus>
<clus scale="   93.715">  7  8 -1 -1</clus>
<clus scale="  179.521">  1  5  2 -1</clus>
<clus scale="   25.901">  1  5  2 -1</clus>
</clustering>
</event>
<event>
 9    1  0.2674825E-005  0.4841939E+03  0.7546771E-02  0.1018180E+00
         -4   -1    0    0    0  501 -0.00000000000E+00  0.00000000000E+00  0.37377103533E+03  0.37377103533E+03  0.00000000000E+00 0.  1.
          3   -1    0    0  502    0  0.00000000000E+00 -0.00000000000E+00 -0.93161090553E+03  0.93161090553E+03  0.00000000000E+00 0. -1.
        -24    2    1    2    0    0 -0.44726611680E+03  0.18586890511E+03  0.22228201880E+02  0.49123277015E+03  0.78875296414E+02 0.  0.
         23    2    1    2    0    0  0.40348730791E+03 -0.24696489454E+03 -0.55398903482E+03  0.73459151729E+03  0.94483754151E+02 0.  0.
         11    1    3    3    0    0 -0.23097390192E+03  0.11077923725E+03 -0.25245495775E+02  0.25740691100E+03  0.00000000000E+00 0. -1.
        -12    1    3    3    0    0 -0.21629221489E+03  0.75089667862E+02  0.47473697656E+02  0.23382585915E+03  0.00000000000E+00 0.  1.
        -13    1    4    4    0    0  0.33603804559E+03 -0.24314848735E+03 -0.47186984559E+03  0.62825465073E+03  0.00000000000E+00 0. -1.
         13    1    4    4    0    0  0.67449262320E+02 -0.38164071946E+01 -0.82119189231E+02  0.10633686657E+03  0.00000000000E+00 0.  1.
         21    1    1    2  502  501  0.43778808896E+02  0.61095989429E+02 -0.26079037257E+02  0.79557653416E+02  0.00000000000E+00 0. -1.
<scales pt_clust_5="13000.00000" pt_clust_6="13000.00000" pt_clust_7="13000.00000" pt_clust_8="13000.00000" pt_clust_9="75.16185"></scales>
<clustering>
<clus scale="   75.162">  1  9  2 -1</clus>
<clus scale="   78.875">  5  6 -1 -1</clus>
<clus scale="   94.484">  7  8 -1 -1</clus>
<clus scale="  481.392">  1  5  2 -1</clus>
<clus scale="  484.194">  2  5  1 -1</clus>
</clustering>
</event>
<event>
 9    1  0.2674825E-005  0.1159463E+03  0.7546771E-02  0.1254128E+00
         -2   -1    0    0    0  501 -0.00000000000E+00  0.00000000000E+00  0.35594683911E+03  0.35594683911E+03  0.00000000000E+00 0.  1.
          1   -1    0    0  502    0  0.00000000000E+00 -0.00000000000E+00 -0.14495954604E+03  0.14495954604E+03  0.00000000000E+00 0. -1.
        -24    2    1    2    0    0  0.65013730884E+02  0.22555980801E+02  0.25875955883E+03  0.27902695374E+03  0.78510981095E+02 0.  0.
         23    2    1    2    0    0 -0.91839086794E+02 -0.37786926749E+01  0.34209985249E+02  0.13359989953E+03  0.90718871699E+02 0.  0.
         13    1    3    3    0    0  0.55052845762E+02 -0.21204477337E+02  0.16063927287E+03  0.17112983864E+03  0.00000000000E+00 0. -1.
        -14    1    3    3    0    0  0.99608851223E+01  0.43760458138E+02  0.98120285966E+02  0.10789711510E+03  0.00000000000E+00 0.  1.
        -13    1    4    4    0    0 -0.88083803927E+02  0.24338639560E+02  0.46675907479E+02  0.10261464919E+03  0.00000000000E+00 0.  1.
         13    1    4    4    0    0 -0.37552828671E+01 -0.28117332235E+02 -0.12465922230E+02  0.30985250338E+02  0.00000000000E+00 0. -1.
         21    1    1    2  502  501  0.26825355910E+02 -0.18777288126E+02 -0.81982251012E+02  0.88279531886E+02  0.00000000000E+00 0. -1.
<scales pt_clust_5="13000.00000" pt_clust_6="13000.00000" pt_clust_7="13000.00000" pt_clust_8="13000.00000" pt_clust_9="32.74426"></scales>
<clustering>
<clus scale="   32.744">  2  9  1 -1</clus>
<clus scale="   78.511">  5  6 -1 -1</clus>
<clus scale="   90.719">  7  8 -1 -1</clus>
<clus scale="  106.666">  1  5  2 -1</clus>
<clus scale="   32.744">  2  5  1 -1</clus>
</clustering>
</event>
<event>
 9    1  0.2674825E-005  0.1784696E+03  0.7546771E-02  0.1202401E+00
         -2   -1    0    0    0  501 -0.00000000000E+00  0.00000000000E+00  0.22667040474E+03  0.22667040474E+03  0.00000000000E+00 0.  1.
          1   -1    0    0  502    0  0.00000000000E+00 -0.00000000000E+00 -0.68848168440E+03  0.68848168440E+03  0.00000000000E+00 0. -1.
         23    2    1    2    0    0 -0.11704473813E+02  0.12288038462E+03  0.16562426838E+03  0.24239859280E+03  0.12684279989E+03 0.  0.
        -24    2    1    2    0    0  0.81436093759E+00  0.28602013856E+02 -0.16158039247E+03  0.18276723368E+03  0.80479190453E+02 0.  0.
         11    1    4    4    0    0  0.37085890392E+02  0.29976882210E+02 -0.10788892655E+03  0.11795760766E+03  0.00000000000E+00 0. -1.
        -12    1    4    4    0    0 -0.36271529455E+02 -0.13748683536E+01 -0.53691465918E+02  0.64809626016E+02  0.00000000000E+00 0.  1.
        -13    1    3    3    0    0 -0.59009345004E+02  0.95163742107E+02  0.14637075270E+03  0.18428954896E+03  0.00000000000E+00 0.  1.
         13    1    3    3    0    0  0.47304871190E+02  0.27716642514E+02  0.19253515688E+02  0.58109043848E+02  0.00000000000E+00 0. -1.
         21    1    1    2  502  501  0.10890112876E+02 -0.15148239848E+03 -0.46585515558E+03  0.48998626265E+03  0.00000000000E+00 0. -1.
<scales pt_clust_5="13000.00000" pt_clust_6="13000.00000" pt_clust_7="13000.00000" pt_clust_8="13000.00000" pt_clust_9="125.54805"></scales>
<clustering>
<clus scale="   80.479">  5  6 -1 -1</clus>
<clus scale="   85.415">  2  5  1 -1</clus>
<clus scale="  125.548">  2  9  1 -1</clus>
<clus scale="  126.843">  7  8 -1 -1</clus>
<clus scale="   85.415">  2  5  1 -1</clus>
</clustering>
</event>
<event>
 9    1  0.2674825E-005  0.1183543E+03  0.7546771E-02  0.1249255E+00
         -2   -1    0    0    0  501 -0.00000000000E+00  0.00000000000E+00  0.32575020295E+03  0.32575020295E+03  0.00000000000E+00 0.  1.
          1   -1    0    0  502    0  0.00000000000E+00 -0.00000000000E+00 -0.13391284222E+03  0.13391284222E+03  0.00000000000E+00 0. -1.
        -24    2    1    2    0    0  0.23757143848E+02  0.90963665033E+02  0.16702508534E+03  0.20754355560E+03  0.79612549885E+02 0.  0.
         23    2    1    2    0    0 -0.77672721069E+02 -0.16980361067E+02  0.80759277447E+02  0.14483255759E+03  0.90183283284E+02 0.  0.
         13    1    3    3    0    0  0.43824309016E+02  0.18440474377E+02  0.56647992583E+02  0.73956853770E+02  0.00000000000E+00 0. -1.
        -14    1    3    3    0    0 -0.20067165168E+02  0.72523190656E+02  0.11037709276E+03  0.13358670183E+03  0.00000000000E+00 0.  1.
        -11    1    4    4    0    0 -0.84315473078E+02  0.16639200867E+02  0.56687886015E+02  0.10295376840E+03  0.00000000000E+00 0.  1.
         11    1    4    4    0    0  0.66427520088E+01 -0.33619561934E+02  0.24071391432E+02  0.41878789194E+02  0.00000000000E+00 0. -1.
         21    1    1    2  502  501  0.53915577222E+02 -0.73983303965E+02 -0.55947002057E+02  0.10728693197E+03  0.00000000000E+00 0. -1.
<scales pt_clust_5="13000.00000" pt_clust_6="13000.00000" pt_clust_7="13000.00000" pt_clust_8="13000.00000" pt_clust_9="91.54463"></scales>
<clustering>
<clus scale="   79.613">  5  6 -1 -1</clus>
<clus scale="   90.183">  7  8 -1 -1</clus>
<clus scale="   91.545">  2  9  1 -1</clus>
<clus scale="  110.512">  1  5  2 -1</clus>
<clus scale="   91.545">  2  5  1 -1</clus>
</clustering>
</event>
<event>
 9    1  0.2674825E-005  0.9948378E+02  0.7546771E-02  0.1284740E+00
          1   -1    0    0  502    0  0.00000000000E+00  0.00000000000E+00  0.10671715897E+04  0.10671715897E+04  0.00000000000E+00 0. -1.
         -2   -1    0    0    0  501 -0.00000000000E+00 -0.00000000000E+00 -0.76751050608E+02  0.76751050608E+02  0.00000000000E+00 0.  1.
         23    2    1    2    0    0  0.40500532564E+02 -0.14171533785E+02 -0.30388588017E+02  0.10314946129E+03  0.88742433906E+02 0.  0.
        -24    2    1    2    0    0 -0.90113266269E+02 -0.36515466686E+02  0.53934329430E+03  0.55411113660E+03  0.81817984177E+02 0.  0.
         11    1    4    4    0    0 -0.44980821273E+02  0.24444430611E+02  0.22346218180E+03  0.22925128389E+03  0.00000000000E+00 0. -1.
        -12    1    4    4    0    0 -0.45132444996E+02 -0.60959897297E+02  0.31588111249E+03  0.32485985270E+03  0.00000000000E+00 0.  1.
        -11    1    3    3    0    0  0.57639700113E+02  0.15655035648E+02 -0.33718782954E+02  0.68588420992E+02  0.00000000000E+00 0.  1.
         11    1    3    3    0    0 -0.17139167548E+02 -0.29826569434E+02  0.33301949370E+01  0.34561040302E+02  0.00000000000E+00 0. -1.
         21    1    1    2  502  501  0.49612733704E+02  0.50687000471E+02  0.48146583279E+03  0.48666204239E+03  0.00000000000E+00 0. -1.
<scales pt_clust_5="13000.00000" pt_clust_6="13000.00000" pt_clust_7="13000.00000" pt_clust_8="13000.00000" pt_clust_9="70.92669"></scales>
<clustering>
<clus scale="   70.927">  1  9  2 -1</clus>
<clus scale="   81.818">  5  6 -1 -1</clus>
<clus scale="   88.742">  7  8 -1 -1</clus>
<clus scale="   93.359">  1  5  2 -1</clus>
<clus scale="   70.927">  1  5  2 -1</clus>
</clustering>
</event>
<event>
 9    1  0.2674825E-005  0.1882103E+03  0.7546771E-02  0.1186649E+00
         -2   -1    0    0    0  501 -0.00000000000E+00  0.00000000000E+00  0.25447719193E+03  0.25447719193E+03  0.00000000000E+00 0.  1.
          1   -1    0    0  502    0  0.00000000000E+00 -0.00000000000E+00 -0.26610621472E+03  0.26610621472E+03  0.00000000000E+00 0. -1.
        -24    2    1    2    0    0 -0.10600890361E+03 -0.14475310173E+03  0.49125496482E+02  0.20353672366E+03  0.82598640221E+02 0.  0.
         23    2    1    2    0    0  0.40926876007E+02 -0.44074164647E+01 -0.10643009221E+03  0.14801772551E+03  0.94273262586E+02 0.  0.
         13    1    3    3    0    0 -0.11809323394E+03 -0.14272135898E+03  0.45352748263E+02  0.19071515405E+03  0.00000000000E+00 0. -1.
        -14    1    3    3    0    0  0.12084330324E+02 -0.20317427531E+01  0.37727482190E+01  0.12821569604E+02  0.00000000000E+00 0.  1.
        -13    1    4    4    0    0  0.12048549697E+02 -0.30229709741E+02 -0.10425648881E+03  0.10921729881E+03  0.00000000000E+00 0. -1.
         13    1    4    4    0    0  0.28878326310E+02  0.25822293277E+02 -0.21736034015E+01  0.38800426702E+02  0.00000000000E+00 0.  1.
         21    1    1    2  502  501  0.65082027607E+02  0.14916051820E+03  0.45675572937E+02  0.16902895749E+03  0.00000000000E+00 0.  1.
<scales pt_clust_5="13000.00000" pt_clust_6="13000.00000" pt_clust_7="13000.00000" pt_clust_8="13000.00000" pt_clust_9="169.11705"></scales>
<clustering>
<clus scale="   82.599">  5  6 -1 -1</clus>
<clus scale="   94.273">  7  8 -1 -1</clus>
<clus scale="  102.868">  2  7  1 -1</clus>
<clus scale="  169.117">  1  9  2 -1</clus>
<clus scale="  102.868">  2  5  1 -1</clus>
</clustering>
</event>
<event>
 9    1  0.2674825E-005  0.9613387E+02  0.7546771E-02  0.1293694E+00
          1   -1    0    0  502    0  0.00000000000E+00  0.00000000000E+00  0.15744164622E+03  0.15744164622E+03  0.00000000000E+00 0. -1.
         -2   -1    0    0    0  501 -0.00000000000E+00 -0.00000000000E+00 -0.13560283228E+03  0.13560283228E+03  0.00000000000E+00 0.  1.
         23    2    1    2    0    0 -0.28224840764E+02 -0.18336537924E+02 -0.78633349165E+02  0.12375618599E+03  0.89440034163E+02 0.  0.
        -24    2    1    2    0    0  0.10039673720E+02  0.53279918087E+02  0.67508917233E+02  0.11792375517E+03  0.80056313984E+02 0.  0.
         11    1    4    4    0    0 -0.22524320386E+02  0.47958362762E+02  0.66346880585E+02  0.84907350277E+02  0.00000000000E+00 0. -1.
        -12    1    4    4    0    0  0.32563994106E+02  0.53215553254E+01  0.11620366484E+01  0.33016404898E+02  0.00000000000E+00 0.  1.
        -13    1    3    3    0    0  0.21444761526E+02 -0.23279763337E+02 -0.12566541448E+01  0.31676558487E+02  0.00000000000E+00 0. -1.
         13    1    3    3    0    0 -0.49669602290E+02  0.49432254134E+01 -0.77376695020E+02  0.92079627505E+02  0.00000000000E+00 0.  1.
         21    1    1    2  502  501  0.18185167045E+02 -0.34943380163E+02  0.32963245863E+02  0.51364537334E+02  0.00000000000E+00 0.  1.
<scales pt_clust_5="13000.00000" pt_clust_6="13000.00000" pt_clust_7="13000.00000" pt_clust_8="13000.00000" pt_clust_9="39.39213"></scales>
<clustering>
<clus scale="   39.392">  1  9  2 -1</clus>
<clus scale="   80.056">  5  6 -1 -1</clus>
<clus scale="   87.471">  1  5  2 -1</clus>
<clus scale="   89.440">  7  8 -1 -1</clus>
<clus scale="   39.392">  1  5  2 -1</clus>
</clustering>
</event>
<event>
 9    1  0.2674825E-005  0.1409072E+03  0.7546771E-02  0.1223482E+00
         -2   -1    0    0    0  501 -0.00000000000E+00  0.00000000000E+00  0.61307848732E+02  0.61307848732E+02  0.00000000000E+00 0.  1.
          1   -1    0    0  502    0  0.00000000000E+00 -0.00000000000E+00 -0.76236754934E+03  0.76236754934E+03  0.00000000000E+00 0. -1.
         23    2    1    2    0    0  0.52893380103E+02 -0.66627926618E+02 -0.98153486028E+02  0.15942380187E+03  0.92438366048E+02 0.  0.
        -24    2    1    2    0    0  0.33914806718E+01 -0.75439371347E+02 -0.36521378669E+03  0.38167630893E+03  0.81197868930E+02 0.  0.
         13    1    4    4    0    0 -0.31436439627E+02 -0.44838069034E+02 -0.27329662327E+03  0.27872880450E+03  0.00000000000E+00 0. -1.
        -14    1    4    4    0    0  0.34827920298E+02 -0.30601302313E+02 -0.91917163422E+02  0.10294750442E+03  0.00000000000E+00 0.  1.
        -11    1    3    3    0    0 -0.11067531500E+02 -0.57696840024E+02 -0.61992353589E+02  0.85407654843E+02  0.00000000000E+00 0. -1.
         11    1    3    3    0    0  0.63960911603E+02 -0.89310865938E+01 -0.36161132439E+02  0.74016147023E+02  0.00000000000E+00 0.  1.
         21    1    1    2  502  501 -0.56284860775E+02  0.14206729796E+03 -0.23769242789E+03  0.28257528728E+03  0.00000000000E+00 0.  1.
<scales pt_clust_5="13000.00000" pt_clust_6="13000.00000" pt_clust_7="13000.00000" pt_clust_8="13000.00000" pt_clust_9="106.34849"></scales>
<clustering>
<clus scale="   81.198">  5  6 -1 -1</clus>
<clus scale="   92.438">  7  8 -1 -1</clus>
<clus scale="  110.886">  2  5  1 -1</clus>
<clus scale="  106.348">  2  9  1 -1</clus>
<clus scale="  110.886">  2  5  1 -1</clus>
</clustering>
</event>
<event>
 9    1  0.2674825E-005  0.1388741E+03  0.7546771E-02  0.1219208E+00
         -2   -1    0    0    0  501 -0.00000000000E+00  0.00000000000E+00  0.19830996386E+03  0.19830996386E+03  0.00000000000E+00 0.  1.
          1   -1    0    0  502    0  0.00000000000E+00 -0.00000000000E+00 -0.28887225409E+03  0.28887225409E+03  0.00000000000E+00 0. -1.
         23    2    1    2    0    0 -0.98124293753E+02  0.16935108364E+02  0.15303323895E+03  0.20744386058E+03  0.98481511715E+02 0.  0.
        -24    2    1    2    0    0  0.84849743731E+02 -0.15242935351E+01 -0.21377440460E+03  0.24364117793E+03  0.80372414668E+02 0.  0.
         13    1    4    4    0    0  0.94007143175E+02 -0.12356704291E+02 -0.14381237138E+03  0.17225570896E+03  0.00000000000E+00 0. -1.
        -14    1    4    4    0    0 -0.91573994436E+01  0.10832410756E+02 -0.69962033220E+02  0.71385468967E+02  0.00000000000E+00 0.  1.
        -13    1    3    3    0    0 -0.10495201440E+03  0.37195082196E+02  0.97736881813E+02  0.14815835290E+03  0.00000000000E+00 0. -1.
         13    1    3    3    0    0  0.68277206487E+01 -0.20259973831E+02  0.55296357135E+02  0.59285507684E+02  0.00000000000E+00 0.  1.
         21    1    1    2  502  501  0.13274550022E+02 -0.15410814829E+02 -0.29821124584E+02  0.36097179439E+02  0.00000000000E+00 0.  1.
<scales pt_clust_5="13000.00000" pt_clust_6="13000.00000" pt_clust_7="13000.00000" pt_clust_8="13000.00000" pt_clust_9="20.33979"></scales>
<clustering>
<clus scale="   20.340">  2  9  1 -1</clus>
<clus scale="   80.372">  5  6 -1 -1</clus>
<clus scale="   98.482">  7  8 -1 -1</clus>
<clus scale="  126.677">  2  5  1 -1</clus>
<clus scale="   20.340">  2  5  1 -1</clus>
</clustering>
</event>
<event>
 9    1  0.2674825E-005  0.1021099E+03  0.7546771E-02  0.1282032E+00
          1   -1    0    0  502    0  0.00000000000E+00  0.00000000000E+00  0.19360744062E+03  0.19360744062E+03  0.00000000000E+00 0. -1.
         -2   -1    0    0    0  501 -0.00000000000E+00 -0.00000000000E+00 -0.23248677519E+03  0.23248677519E+03  0.00000000000E+00 0.  1.
        -24    2    1    2    0    0  0.20646424152E+02  0.38057039836E+02 -0.19981340623E+03  0.21952718223E+03  0.79951068269E+02 0.  0.
         23    2    1    2    0    0 -0.37898007144E+02 -0.26974722508E+02  0.10716527375E+03  0.14902123877E+03  0.92515075013E+02 0.  0.
         13    1    3    3    0    0  0.23567604560E+02 -0.16893918845E+02 -0.33295641735E+02  0.44152420513E+02  0.00000000000E+00 0. -1.
        -14    1    3    3    0    0 -0.29211804078E+01  0.54950958681E+02 -0.16651776449E+03  0.17537476171E+03  0.00000000000E+00 0.  1.
        -11    1    4    4    0    0 -0.20717429881E+02 -0.50076084739E+02  0.20907297619E+02  0.58085637273E+02  0.00000000000E+00 0.  1.
         11    1    4    4    0    0 -0.17180577263E+02  0.23101362230E+02  0.86257976135E+02  0.90935601493E+02  0.00000000000E+00 0. -1.
         21    1    1    2  502  501  0.17251582992E+02 -0.11082317328E+02  0.53768797905E+02  0.57545794818E+02  0.00000000000E+00 0.  1.
<scales pt_clust_5="13000.00000" pt_clust_6="13000.00000" pt_clust_7="13000.00000" pt_clust_8="13000.00000" pt_clust_9="20.50451"></scales>
<clustering>
<clus scale="   20.505">  1  9  2 -1</clus>
<clus scale="   79.951">  5  6 -1 -1</clus>
<clus scale="   90.882">  2  5  1 -1</clus>
<clus scale="   92.515">  7  8 -1 -1</clus>
<clus scale="   20.505">  1  5  2 -1</clus>
</clustering>
</event>
<event>
 9    1  0.2674825E-005  0.9400261E+02  0.7546771E-02  0.1301614E+00
         -2   -1    0    0    0  501 -0.00000000000E+00  0.00000000000E+00  0.63052669335E+02  0.63052669335E+02  0.00000000000E+00 0.  1.
          1   -1    0    0  502    0  0.00000000000E+00 -0.00000000000E+00 -0.29799325758E+03  0.29799325758E+03  0.00000000000E+00 0. -1.
         23    2    1    2    0    0 -0.13293619628E+01  0.16625865055E+02  0.15872873550E+01  0.95121831299E+02  0.93634698250E+02 0.  0.
        -24    2    1    2    0    0 -0.96740610614E+00  0.21495024767E+02 -0.15613738145E+03  0.17692348363E+03  0.80374530850E+02 0.  0.
         13    1    4    4    0    0  0.42037716933E+01  0.34336324106E+02 -0.19746546366E+02  0.39831908603E+02  0.00000000000E+00 0. -1.
        -14    1    4    4    0    0 -0.51711777995E+01 -0.12841299339E+02 -0.13639083508E+03  0.13709157502E+03  0.00000000000E+00 0.  1.
        -13    1    3    3    0    0  0.85768148522E+01 -0.36062051800E+02  0.14788933503E+02  0.39909220578E+02  0.00000000000E+00 0.  1.
         13    1    3    3    0    0 -0.99061768149E+01  0.52687916854E+02 -0.13201646148E+02  0.55212610720E+02  0.00000000000E+00 0. -1.
         21    1    1    2  502  501  0.22967680689E+01 -0.38120889822E+02 -0.80390494154E+02  0.89000611991E+02  0.00000000000E+00 0.  1.
<scales pt_clust_5="13000.00000" pt_clust_6="13000.00000" pt_clust_7="13000.00000" pt_clust_8="13000.00000" pt_clust_9="38.19002"></scales>
<clustering>
<clus scale="   38.190">  2  9  1 -1</clus>
<clus scale="   80.375">  5  6 -1 -1</clus>
<clus scale="   80.803">  2  5  1 -1</clus>
<clus scale="   93.635">  7  8 -1 -1</clus>
<clus scale="   38.190">  2  5  1 -1</clus>
</clustering>
</event>
<event>
 9    1  0.2674825E-005  0.1208911E+03  0.7546771E-02  0.1244838E+00
          1   -1    0    0  502    0  0.00000000000E+00  0.00000000000E+00  0.21064370868E+03  0.21064370868E+03  0.00000000000E+00 0. -1.
         -2   -1    0    0    0  501 -0.00000000000E+00 -0.00000000000E+00 -0.23531378929E+03  0.23531378929E+03  0.00000000000E+00 0.  1.
         23    2    1    2    0    0 -0.75625892205E+02  0.48300563412E+02 -0.17138674526E+03  0.21319947367E+03  0.89601222791E+02 0.  0.
        -24    2    1    2    0    0 -0.10122837199E+01 -0.45762927975E+02  0.12152650212E+03  0.15204622906E+03  0.79082834791E+02 0.  0.
         11    1    4    4    0    0  0.22883752661E+02 -0.44979200113E+02  0.32879702521E+02  0.60231797388E+02  0.00000000000E+00 0. -1.
        -12    1    4    4    0    0 -0.23896036381E+02 -0.78372786125E+00  0.88646799601E+02  0.91814431673E+02  0.00000000000E+00 0.  1.
        -13    1    3    3    0    0 -0.21183594300E+02  0.31564104463E+02 -0.62598785439E+01  0.38525620533E+02  0.00000000000E+00 0. -1.
         13    1    3    3    0    0 -0.54442297905E+02  0.16736458948E+02 -0.16512686671E+03  0.17467385314E+03  0.00000000000E+00 0.  1.
         21    1    1    2  502  501  0.76638175925E+02 -0.25376354370E+01  0.25190162526E+02  0.80711795240E+02  0.00000000000E+00 0. -1.
<scales pt_clust_5="13000.00000" pt_clust_6="13000.00000" pt_clust_7="13000.00000" pt_clust_8="13000.00000" pt_clust_9="76.68018"></scales>
<clustering>
<clus scale="   76.680">  1  9  2 -1</clus>
<clus scale="   79.083">  5  6 -1 -1</clus>
<clus scale="   89.601">  7  8 -1 -1</clus>
<clus scale="  113.315">  1  5  2 -1</clus>
<clus scale="   76.680">  1  5  2 -1</clus>
</clustering>
</event>
<event>
 9    1  0.2674825E-005  0.1415544E+03  0.7546771E-02  0.1213586E+00
         -2   -1    0    0    0  501 -0.00000000000E+00  0.00000000000E+00  0.56487366861E+02  0.56487366861E+02  0.00000000000E+00 0.  1.
          1   -1    0    0  502    0  0.00000000000E+00 -0.00000000000E+00 -0.77121020973E+03  0.77121020973E+03  0.00000000000E+00 0. -1.
        -24    2    1    2    0    0  0.67728866751E+02  0.10231354271E+03 -0.96699019471E+02  0.17562319465E+03  0.80234317599E+02 0.  0.
         23    2    1    2    0    0 -0.88189787765E+02 -0.59941448137E+02 -0.56024236177E+03  0.57755766573E+03  0.91273969143E+02 0.  0.
         11    1    3    3    0    0  0.28765391062E+02  0.34200192981E+02 -0.85342987150E+02  0.96335488677E+02  0.00000000000E+00 0. -1.
        -12    1    3    3    0    0  0.38963475689E+02  0.68113349729E+02 -0.11356032321E+02  0.79287705978E+02  0.00000000000E+00 0.  1.
        -11    1    4    4    0    0 -0.21690854626E+00 -0.52029827548E+02 -0.20959928525E+03  0.21596066860E+03  0.00000000000E+00 0.  1.
         11    1    4    4    0    0 -0.87972879219E+02 -0.79116205885E+01 -0.35064307652E+03  0.36159699713E+03  0.00000000000E+00 0. -1.
         21    1    1    2  502  501  0.20460921014E+02 -0.42372094574E+02 -0.57781461623E+02  0.74516716210E+02  0.00000000000E+00 0. -1.
<scales pt_clust_5="13000.00000" pt_clust_6="13000.00000" pt_clust_7="13000.00000" pt_clust_8="13000.00000" pt_clust_9="47.05363"></scales>
<clustering>
<clus scale="   47.054">  1  9  2 -1</clus>
<clus scale="   80.234">  5  6 -1 -1</clus>
<clus scale="   91.274">  7  8 -1 -1</clus>
<clus scale="  134.701">  1  5  2 -1</clus>
<clus scale="  141.554">  2  5  1 -1</clus>
</clustering>
</event>
<event>
 9    1  0.2674825E-005  0.1470441E+03  0.7546771E-02  0.1226666E+00
          1   -1    0    0  502    0  0.00000000000E+00  0.00000000000E+00  0.32600034442E+03  0.32600034442E+03  0.00000000000E+00 0. -1.
         -2   -1    0    0    0  501 -0.00000000000E+00 -0.00000000000E+00 -0.14033864560E+03  0.14033864560E+03  0.00000000000E+00 0.  1.
        -24    2    1    2    0    0  0.85994651246E+02 -0.87941278840E+02 -0.38851139782E+02  0.15126346930E+03  0.79009350812E+02 0.  0.
         23    2    1    2    0    0 -0.13037013977E+01 -0.71015546059E+01  0.71149914189E+02  0.11576198942E+03  0.91029644566E+02 0.  0.
         13    1    3    3    0    0 -0.63875872429E+01 -0.24809771545E+02  0.12080251043E+02  0.28324168128E+02  0.00000000000E+00 0. -1.
        -14    1    3    3    0    0  0.92382238488E+02 -0.63131507295E+02 -0.50931390825E+02  0.12293930117E+03  0.00000000000E+00 0.  1.
        -11    1    4    4    0    0 -0.45376867893E+02  0.29979853243E+01  0.28919526685E+02  0.53892365689E+02  0.00000000000E+00 0.  1.
         11    1    4    4    0    0  0.44073166496E+02 -0.10099539930E+02  0.42230387504E+02  0.61869623730E+02  0.00000000000E+00 0. -1.
         21    1    1    2  502  501 -0.84690949848E+02  0.95042833445E+02  0.15336292441E+03  0.19931353130E+03  0.00000000000E+00 0. -1.
<scales pt_clust_5="13000.00000" pt_clust_6="13000.00000" pt_clust_7="13000.00000" pt_clust_8="13000.00000" pt_clust_9="124.01408"></scales>
<clustering>
<clus scale="   79.009">  5  6 -1 -1</clus>
<clus scale="   91.030">  7  8 -1 -1</clus>
<clus scale="   91.316">  1  7  2 -1</clus>
<clus scale="  124.014">  1  9  2 -1</clus>
<clus scale="   91.316">  1  5  2 -1</clus>
</clustering>
</event>
<event>
 9    1  0.2674825E-005  0.1003831E+03  0.7546771E-02  0.1283050E+00
          1   -1    0    0  502    0  0.00000000000E+00  0.00000000000E+00  0.27406915364E+03  0.27406915364E+03  0.00000000000E+00 0. -1.
         -2   -1    0    0    0  501 -0.00000000000E+00 -0.00000000000E+00 -0.22261539310E+03  0.22261539310E+03  0.00000000000E+00 0.  1.
         23    2    1    2    0    0  0.23463260317E+02  0.25667757035E+02 -0.19504488391E+03  0.21958633259E+03  0.94690508403E+02 0.  0.
        -24    2    1    2    0    0 -0.22933786462E+02  0.89277865238E+01  0.19250072709E+03  0.21296626380E+03  0.87706531420E+02 0.  0.
         11    1    4    4    0    0 -0.34160457106E+02  0.28671791916E+02  0.18298383049E+03  0.18834035867E+03  0.00000000000E+00 0. -1.
        -12    1    4    4    0    0  0.11226670644E+02 -0.19744005392E+02  0.95168965912E+01  0.24625905128E+02  0.00000000000E+00 0.  1.
        -11    1    3    3    0    0  0.57904843953E+02  0.30516332461E+02 -0.13874504496E+03  0.15340927287E+03  0.00000000000E+00 0.  1.
         11    1    3    3    0    0 -0.34441583636E+02 -0.48485754263E+01 -0.56299838952E+02  0.66177059719E+02  0.00000000000E+00 0. -1.
         21    1    1    2  502  501 -0.52947385527E+00 -0.34595543559E+02  0.53997917372E+02  0.64131950362E+02  0.00000000000E+00 0. -1.
<scales pt_clust_5="13000.00000" pt_clust_6="13000.00000" pt_clust_7="13000.00000" pt_clust_8="13000.00000" pt_clust_9="34.59960"></scales>
<clustering>
<clus scale="   34.600">  1  9  2 -1</clus>
<clus scale="   87.707">  5  6 -1 -1</clus>
<clus scale="   93.824">  1  5  2 -1</clus>
<clus scale="   94.691">  7  8 -1 -1</clus>
<clus scale="   34.600">  1  5  2 -1</clus>
</clustering>
</event>
<event>
 9    1  0.2674825E-005  0.1867620E+03  0.7546771E-02  0.1162387E+00
         -2   -1    0    0    0  501 -0.00000000000E+00  0.00000000000E+00  0.49621941993E+03  0.49621941993E+03  0.00000000000E+00 0.  1.
          1   -1    0    0  502    0  0.00000000000E+00 -0.00000000000E+00 -0.22644720232E+03  0.22644720232E+03  0.00000000000E+00 0. -1.
         23    2    1    2    0    0  0.53474976820E+02  0.15583321209E+03  0.42823925005E+03  0.46758681279E+03  0.90027823864E+02 0.  0.
        -24    2    1    2    0    0 -0.66451535690E+02 -0.13998847364E+03 -0.12188418707E+03  0.21315426364E+03  0.81033361675E+02 0.  0.
         11    1    4    4    0    0 -0.45749030902E+02 -0.14323753212E+03 -0.90764409810E+02  0.17563639294E+03  0.00000000000E+00 0. -1.
        -12    1    4    4    0    0 -0.20702504788E+02  0.32490584824E+01 -0.31119777256E+02  0.37517870702E+02  0.00000000000E+00 0.  1.
        -11    1    3    3    0    0  0.13102622855E+02  0.14065631087E+03  0.36152599753E+03  0.38814549257E+03  0.00000000000E+00 0.  1.
         11    1    3    3    0    0  0.40372353966E+02  0.15176901219E+02  0.66713252527E+02  0.79441320218E+02  0.00000000000E+00 0. -1.
         21    1    1    2  502  501  0.12976558869E+02 -0.15844738452E+02 -0.36582845378E+02  0.41925545824E+02  0.00000000000E+00 0. -1.
<scales pt_clust_5="13000.00000" pt_clust_6="13000.00000" pt_clust_7="13000.00000" pt_clust_8="13000.00000" pt_clust_9="20.48040"></scales>
<clustering>
<clus scale="   20.480">  2  9  1 -1</clus>
<clus scale="   81.033">  5  6 -1 -1</clus>
<clus scale="   90.028">  7  8 -1 -1</clus>
<clus scale="  182.596">  2  5  1 -1</clus>
<clus scale="   20.480">  2  5  1 -1</clus>
</clustering>
</event>
<event>
 9    1  0.2674825E-005  0.9359834E+02  0.7546771E-02  0.1300920E+00
         -2   -1    0    0    0  501 -0.00000000000E+00  0.00000000000E+00  0.10036455577E+03  0.10036455577E+03  0.00000000000E+00 0.  1.
          1   -1    0    0  502    0  0.00000000000E+00 -0.00000000000E+00 -0.20419445544E+03  0.20419445544E+03  0.00000000000E+00 0. -1.
        -24    2    1    2    0    0  0.10819045384E+02  0.12365945052E+02  0.51776197690E+02  0.97085445104E+02  0.80466394623E+02 0.  0.
         23    2    1    2    0    0 -0.30795782517E+02 -0.32870310183E+02 -0.14434891816E+03  0.17671282652E+03  0.91443837247E+02 0.  0.
         11    1    3    3    0    0 -0.37573128121E+01  0.22882022980E+02 -0.15208714276E+02  0.27731018105E+02  0.00000000000E+00 0. -1.
        -12    1    3    3    0    0  0.14576358196E+02 -0.10516077928E+02  0.66984911966E+02  0.69354426999E+02  0.00000000000E+00 0.  1.
        -13    1    4    4    0    0 -0.50930120287E+02 -0.41436604687E+02 -0.57907713489E+02  0.87545260534E+02  0.00000000000E+00 0. -1.
         13    1    4    4    0    0  0.20134337770E+02  0.85662945038E+01 -0.86441204671E+02  0.89167565986E+02  0.00000000000E+00 0.  1.
         21    1    1    2  502  501  0.19976737133E+02  0.20504365131E+02 -0.11257179205E+02  0.30760739581E+02  0.00000000000E+00 0. -1.
<scales pt_clust_5="13000.00000" pt_clust_6="13000.00000" pt_clust_7="13000.00000" pt_clust_8="13000.00000" pt_clust_9="28.62689"></scales>
<clustering>
<clus scale="   28.627">  2  9  1 -1</clus>
<clus scale="   80.466">  5  6 -1 -1</clus>
<clus scale="   82.907">  1  5  2 -1</clus>
<clus scale="   91.444">  7  8 -1 -1</clus>
<clus scale="   28.627">  2  5  1 -1</clus>
</clustering>
</event>
<event>
 9    1  0.2674825E-005  0.1167015E+03  0.7546771E-02  0.1254227E+00
          1   -1    0    0  502    0  0.00000000000E+00  0.00000000000E+00  0.26821271552E+03  0.26821271552E+03  0.00000000000E+00 0. -1.
         -2   -1    0    0    0  501 -0.00000000000E+00 -0.00000000000E+00 -0.13188869497E+03  0.13188869497E+03  0.00000000000E+00 0.  1.
         23    2    1    2    0    0  0.57069861041E+02 -0.37155107290E+02 -0.53053841545E+02  0.12684882861E+03  0.92943230951E+02 0.  0.
        -24    2    1    2    0    0 -0.73663045506E+02  0.23171983061E+02  0.30909190400E+02  0.11330514852E+03  0.76938245089E+02 0.  0.
         11    1    4    4    0    0 -0.81800586018E+01  0.40417487724E+02  0.13447119587E+02  0.43374090168E+02  0.00000000000E+00 0. -1.
        -12    1    4    4    0    0 -0.65482986904E+02 -0.17245504663E+02  0.17462070813E+02  0.69931058351E+02  0.00000000000E+00 0.  1.
        -13    1    3    3    0    0  0.69094650952E+02 -0.72991704696E+01 -0.58622612651E+01  0.69725997926E+02  0.00000000000E+00 0. -1.
         13    1    3    3    0    0 -0.12024789911E+02 -0.29855936821E+02 -0.47191580280E+02  0.57122830682E+02  0.00000000000E+00 0.  1.
         21    1    1    2  502  501  0.16593184465E+02  0.13983124229E+02  0.15846867169E+03  0.15994743336E+03  0.00000000000E+00 0. -1.
<scales pt_clust_5="13000.00000" pt_clust_6="13000.00000" pt_clust_7="13000.00000" pt_clust_8="13000.00000" pt_clust_9="21.69934"></scales>
<clustering>
<clus scale="   21.699">  1  9  2 -1</clus>
<clus scale="   76.938">  5  6 -1 -1</clus>
<clus scale="   92.943">  7  8 -1 -1</clus>
<clus scale="  104.404">  1  5  2 -1</clus>
<clus scale="   21.699">  1  5  2 -1</clus>
</clustering>
</event>
<event>
 9    1  0.2674825E-005  0.1200563E+03  0.7546771E-02  0.1244201E+00
         -2   -1    0    0    0  501 -0.00000000000E+00  0.00000000000E+00  0.47338241316E+03  0.47338241316E+03  0.00000000000E+00 0.  1.
          1   -1    0    0  502    0  0.00000000000E+00 -0.00000000000E+00 -0.89177517213E+02  0.89177517213E+02  0.00000000000E+00 0. -1.
         23    2    1    2    0    0  0.23507630147E+02  0.81745611461E+02  0.38221573686E+03  0.40065971503E+03  0.84878643238E+02 0.  0.
        -24    2    1    2    0    0  0.52687183459E+00 -0.87095282622E+02  0.32057578878E+02  0.12303652875E+03  0.80773963590E+02 0.  0.
         11    1    4    4    0    0  0.11300738031E+02 -0.91527487747E+02  0.36068460761E+01  0.92292995574E+02  0.00000000000E+00 0. -1.
        -12    1    4    4    0    0 -0.10773866197E+02  0.44322051252E+01  0.28450732802E+02  0.30743533175E+02  0.00000000000E+00 0.  1.
        -11    1    3    3    0    0 -0.10696351164E+02  0.52142187820E+02  0.31609879555E+03  0.32054901065E+03  0.00000000000E+00 0.  1.
         11    1    3    3    0    0  0.34203981311E+02  0.29603423641E+02  0.66116941308E+02  0.80110704383E+02  0.00000000000E+00 0. -1.
         21    1    1    2  502  501 -0.24034501982E+02  0.53496711617E+01 -0.30068419789E+02  0.38863686594E+02  0.00000000000E+00 0.  1.
<scales pt_clust_5="13000.00000" pt_clust_6="13000.00000" pt_clust_7="13000.00000" pt_clust_8="13000.00000" pt_clust_9="24.62268"></scales>
<clustering>
<clus scale="   24.623">  2  9  1 -1</clus>
<clus scale="   80.774">  5  6 -1 -1</clus>
<clus scale="   84.879">  7  8 -1 -1</clus>
<clus scale="  117.190">  2  5  1 -1</clus>
<clus scale="   24.623">  2  5  1 -1</clus>
</clustering>
</event>
<event>
 9    1  0.2674825E-005  0.1893350E+03  0.7546771E-02  0.1160408E+00
         -4   -1    0    0    0  501 -0.00000000000E+00  0.00000000000E+00  0.11179344767E+03  0.11179344767E+03  0.00000000000E+00 0.  1.
          3   -1    0    0  502    0  0.00000000000E+00 -0.00000000000E+00 -0.35223309688E+03  0.35223309688E+03  0.00000000000E+00 0. -1.
        -24    2    1    2    0    0 -0.14819118236E+03 -0.71634215318E+02 -0.10066678974E+03  0.20871352817E+03  0.79595520930E+02 0.  0.
         23    2    1    2    0    0  0.13996800703E+03  0.90329230276E+02 -0.13724342349E+03  0.23473336032E+03  0.92269064818E+02 0.  0.
         13    1    3    3    0    0 -0.41702494546E+02 -0.63350968747E+02 -0.46338333704E+02  0.88880169121E+02  0.00000000000E+00 0. -1.
        -14    1    3    3    0    0 -0.10648868782E+03 -0.82832465708E+01 -0.54328456032E+02  0.11983335905E+03  0.00000000000E+00 0.  1.
        -11    1    4    4    0    0  0.39613231176E+02  0.51958775662E+02 -0.67255668508E+01  0.65682232772E+02  0.00000000000E+00 0.  1.
         11    1    4    4    0    0  0.10035477585E+03  0.38370454614E+02 -0.13051785664E+03  0.16905112755E+03  0.00000000000E+00 0. -1.
         21    1    1    2  502  501  0.82231753322E+01 -0.18695014958E+02 -0.25294359887E+01  0.20579656052E+02  0.00000000000E+00 0. -1.
<scales pt_clust_5="13000.00000" pt_clust_6="13000.00000" pt_clust_7="13000.00000" pt_clust_8="13000.00000" pt_clust_9="20.42362"></scales>
<clustering>
<clus scale="   20.424">  1  9  2 -1</clus>
<clus scale="   79.596">  5  6 -1 -1</clus>
<clus scale="   92.269">  7  8 -1 -1</clus>
<clus scale="  183.493">  1  5  2 -1</clus>
<clus scale="  189.335">  2  5  1 -1</clus>
</clustering>
</event>
<event>
 9    1  0.2674825E-005  0.1408437E+03  0.7546771E-02  0.1214562E+00
          1   -1    0    0  502    0  0.00000000000E+00  0.00000000000E+00  0.85563807356E+02  0.85563807356E+02  0.00000000000E+00 0. -1.
         -2   -1    0    0    0  501 -0.00000000000E+00 -0.00000000000E+00 -0.36065199066E+03  0.36065199066E+03  0.00000000000E+00 0.  1.
         23    2    1    2    0    0 -0.92493429222E+02 -0.64834316741E+02 -0.25677145187E+03  0.29520695318E+03  0.91962185897E+02 0.  0.
        -24    2    1    2    0    0  0.69661294460E+02  0.52485856477E+02  0.34378372872E+00  0.11904002135E+03  0.81012020224E+02 0.  0.
         11    1    4    4    0    0  0.69206862505E+02  0.68421892898E+02 -0.13084899608E+02  0.98195518448E+02  0.00000000000E+00 0. -1.
        -12    1    4    4    0    0  0.45443195542E+00 -0.15936036422E+02  0.13428683337E+02  0.20844502906E+02  0.00000000000E+00 0.  1.
        -13    1    3    3    0    0 -0.54805790628E+02 -0.27247441519E+02 -0.42727264618E+02  0.74643934097E+02  0.00000000000E+00 0. -1.
         13    1    3    3    0    0 -0.37687638594E+02 -0.37586875223E+02 -0.21404418725E+03  0.22056301908E+03  0.00000000000E+00 0.  1.
         21    1    1    2  502  501  0.22832134761E+02  0.12348460265E+02 -0.18660515170E+02  0.31968823486E+02  0.00000000000E+00 0.  1.
<scales pt_clust_5="13000.00000" pt_clust_6="13000.00000" pt_clust_7="13000.00000" pt_clust_8="13000.00000" pt_clust_9="25.95748"></scales>
<clustering>
<clus scale="   25.957">  1  9  2 -1</clus>
<clus scale="   81.012">  5  6 -1 -1</clus>
<clus scale="   91.962">  7  8 -1 -1</clus>
<clus scale="  133.951">  1  5  2 -1</clus>
<clus scale="   25.957">  1  5  2 -1</clus>
</clustering>
</event>
<event>
 9    1  0.2674825E-005  0.9902647E+02  0.7546771E-02  0.1287341E+00
         -2   -1    0    0    0  501 -0.00000000000E+00  0.00000000000E+00  0.35949478019E+03  0.35949478019E+03  0.00000000000E+00 0.  1.
          1   -1    0    0  502    0  0.00000000000E+00 -0.00000000000E+00 -0.19837327387E+03  0.19837327387E+03  0.00000000000E+00 0. -1.
        -24    2    1    2    0    0  0.38734423962E+02 -0.19323508540E+01  0.32652722260E+03  0.33875836810E+03  0.81443939489E+02 0.  0.
         23    2    1    2    0    0 -0.36427736093E+02 -0.18434273555E+02 -0.71168329087E+02  0.12266900291E+03  0.91191835230E+02 0.  0.
         11    1    3    3    0    0  0.25787226645E+02 -0.33779155210E+02  0.87528435997E+02  0.97299740456E+02  0.00000000000E+00 0. -1.
        -12    1    3    3    0    0  0.12947197317E+02  0.31846804356E+02  0.23899878661E+03  0.24145862765E+03  0.00000000000E+00 0.  1.
        -11    1    4    4    0    0 -0.24392726137E+01  0.20268566000E+02  0.12847214770E+02  0.24120857073E+02  0.00000000000E+00 0.  1.
         11    1    4    4    0    0 -0.33988463479E+02 -0.38702839555E+02 -0.84015543857E+02  0.98548145842E+02  0.00000000000E+00 0. -1.
         21    1    1    2  502  501 -0.23066878692E+01  0.20366624409E+02 -0.94237387203E+02  0.96440683042E+02  0.00000000000E+00 0. -1.
<scales pt_clust_5="13000.00000" pt_clust_6="13000.00000" pt_clust_7="13000.00000" pt_clust_8="13000.00000" pt_clust_9="20.49683"></scales>
<clustering>
<clus scale="   20.497">  2  9  1 -1</clus>
<clus scale="   81.444">  5  6 -1 -1</clus>
<clus scale="   90.130">  1  5  2 -1</clus>
<clus scale="   91.192">  7  8 -1 -1</clus>
<clus scale="   20.497">  2  5  1 -1</clus>
</clustering>
</event>
<event>
 9    1  0.2674825E-005  0.9718448E+02  0.7546771E-02  0.1293073E+00
          3   -1    0    0  502    0  0.00000000000E+00  0.00000000000E+00  0.26170716166E+02  0.26170716166E+02  0.00000000000E+00 0. -1.
         -4   -1    0    0    0  501 -0.00000000000E+00 -0.00000000000E+00 -0.50925901641E+03  0.50925901641E+03  0.00000000000E+00 0.  1.
         23    2    1    2    0    0  0.28314795549E+02  0.13914274690E+02 -0.31503455256E+03  0.32956168597E+03  0.91481150329E+02 0.  0.
        -24    2    1    2    0    0 -0.17036016615E+02 -0.36091795157E+02 -0.15293564608E+03  0.17675429961E+03  0.79119700750E+02 0.  0.
         13    1    4    4    0    0 -0.18027420073E+01 -0.34985959437E+02 -0.15222449668E+02  0.38196730362E+02  0.00000000000E+00 0. -1.
        -14    1    4    4    0    0 -0.15233274608E+02 -0.11058357202E+01 -0.13771319642E+03  0.13855756924E+03  0.00000000000E+00 0.  1.
        -13    1    3    3    0    0 -0.12084395130E+02  0.34072991647E+02 -0.56235415096E+02  0.66853745418E+02  0.00000000000E+00 0.  1.
         13    1    3    3    0    0  0.40399190678E+02 -0.20158716957E+02 -0.25879913747E+03  0.26270794055E+03  0.00000000000E+00 0. -1.
         21    1    1    2  502  501 -0.11278778933E+02  0.22177520468E+02 -0.15118101600E+02  0.29113746999E+02  0.00000000000E+00 0. -1.
<scales pt_clust_5="13000.00000" pt_clust_6="13000.00000" pt_clust_7="13000.00000" pt_clust_8="13000.00000" pt_clust_9="24.88078"></scales>
<clustering>
<clus scale="   24.881">  1  9  2 -1</clus>
<clus scale="   79.120">  5  6 -1 -1</clus>
<clus scale="   85.650">  1  5  2 -1</clus>
<clus scale="   91.481">  7  8 -1 -1</clus>
<clus scale="   24.881">  1  5  2 -1</clus>
</clustering>
</event>
<event>
 9    1  0.2674825E-005  0.2369025E+03  0.7546771E-02  0.1122593E+00
          3   -1    0    0  502    0  0.00000000000E+00  0.00000000000E+00  0.17566795056E+03  0.17566795056E+03  0.00000000000E+00 0. -1.
         -4   -1    0    0    0  501 -0.00000000000E+00 -0.00000000000E+00 -0.64253875108E+03  0.64253875108E+03  0.00000000000E+00 0.  1.
         23    2    1    2    0    0 -0.19949844003E+03  0.74856412001E+02 -0.40883062707E+03  0.46996470830E+03  0.91220805889E+02 0.  0.
        -24    2    1    2    0    0  0.22920715807E+03 -0.49516294153E+02 -0.11984920331E+03  0.27513190052E+03  0.79661448982E+02 0.  0.
         11    1    4    4    0    0  0.14344048347E+03 -0.33472527024E+02 -0.11652741224E+03  0.18781432365E+03  0.00000000000E+00 0. -1.
        -12    1    4    4    0    0  0.85766674593E+02 -0.16043767129E+02 -0.33217910691E+01  0.87317576870E+02  0.00000000000E+00 0.  1.
        -11    1    3    3    0    0 -0.16073642299E+03  0.89932255789E+02 -0.36882270639E+03  0.41225501459E+03  0.00000000000E+00 0.  1.
         11    1    3    3    0    0 -0.38762017046E+02 -0.15075843788E+02 -0.40007920681E+02  0.57709693714E+02  0.00000000000E+00 0. -1.
         21    1    1    2  502  501 -0.29708718032E+02 -0.25340117849E+02  0.61809029860E+02  0.73110092819E+02  0.00000000000E+00 0. -1.
<scales pt_clust_5="13000.00000" pt_clust_6="13000.00000" pt_clust_7="13000.00000" pt_clust_8="13000.00000" pt_clust_9="39.04778"></scales>
<clustering>
<clus scale="   39.048">  1  9  2 -1</clus>
<clus scale="   79.661">  5  6 -1 -1</clus>
<clus scale="   91.221">  7  8 -1 -1</clus>
<clus scale="  232.696">  1  5  2 -1</clus>
<clus scale="   39.048">  1  5  2 -1</clus>
</clustering>
</event>
<event>
 9    1  0.2674825E-005  0.9946853E+02  0.7546771E-02  0.1292114E+00
          3   -1    0    0  502    0  0.00000000000E+00  0.00000000000E+00  0.57784644436E+02  0.57784644436E+02  0.00000000000E+00 0. -1.
         -4   -1    0    0    0  501 -0.00000000000E+00 -0.00000000000E+00 -0.23861111919E+03  0.23861111919E+03  0.00000000000E+00 0.  1.
        -24    2    1    2    0    0  0.17708594043E+02 -0.92330405700E-01 -0.14200447402E+03  0.16395614223E+03  0.80017142570E+02 0.  0.
         23    2    1    2    0    0 -0.20003685017E+01 -0.18298697252E+02 -0.40950741601E+02  0.10815979879E+03  0.98400889436E+02 0.  0.
         11    1    3    3    0    0  0.72933459113E+01 -0.27877105013E+02 -0.13051592894E+02  0.31633367756E+02  0.00000000000E+00 0. -1.
        -12    1    3    3    0    0  0.10415248132E+02  0.27784774607E+02 -0.12895288113E+03  0.13232277448E+03  0.00000000000E+00 0.  1.
        -11    1    4    4    0    0  0.71306956518E+01  0.39529504395E+02 -0.79230691218E+01  0.40941465075E+02  0.00000000000E+00 0.  1.
         11    1    4    4    0    0 -0.91310641535E+01 -0.57828201647E+02 -0.33027672479E+02  0.67218333717E+02  0.00000000000E+00 0. -1.
         21    1    1    2  502  501 -0.15708225542E+02  0.18391027658E+02  0.21287408685E+01  0.24279822604E+02  0.00000000000E+00 0.  1.
<scales pt_clust_5="13000.00000" pt_clust_6="13000.00000" pt_clust_7="13000.00000" pt_clust_8="13000.00000" pt_clust_9="24.18632"></scales>
<clustering>
<clus scale="   24.186">  1  9  2 -1</clus>
<clus scale="   80.017">  5  6 -1 -1</clus>
<clus scale="   81.326">  2  5  1 -1</clus>
<clus scale="   98.401">  7  8 -1 -1</clus>
<clus scale="   24.186">  1  5  2 -1</clus>
</clustering>
</event>
<event>
 9    1  0.2674825E-005  0.1238503E+03  0.7546771E-02  0.1240055E+00
         -2   -1    0    0    0  501 -0.00000000000E+00  0.00000000000E+00  0.26484938354E+02  0.26484938354E+02  0.00000000000E+00 0.  1.
          1   -1    0    0  502    0  0.00000000000E+00 -0.00000000000E+00 -0.12305612069E+04  0.12305612069E+04  0.00000000000E+00 0. -1.
        -24    2    1    2    0    0  0.70701468279E+02 -0.25752336051E+02 -0.19417347447E+03  0.22325544183E+03  0.80484617724E+02 0.  0.
         23    2    1    2    0    0 -0.74925988039E+02  0.90724214883E+02 -0.57199977536E+03  0.59107381261E+03  0.91322078921E+02 0.  0.
         11    1    3    3    0    0  0.50381208286E+02 -0.53422998939E+02 -0.15252743371E+03  0.16928349299E+03  0.00000000000E+00 0. -1.
        -12    1    3    3    0    0  0.20320259993E+02  0.27670662888E+02 -0.41646040761E+02  0.53971948844E+02  0.00000000000E+00 0.  1.
        -11    1    4    4    0    0 -0.32158329694E+02  0.13733859638E+02 -0.46159937517E+02  0.57909557940E+02  0.00000000000E+00 0. -1.
         11    1    4    4    0    0 -0.42767658346E+02  0.76990355245E+02 -0.52583983784E+03  0.53316425467E+03  0.00000000000E+00 0.  1.
         21    1    1    2  502  501  0.42245197603E+01 -0.64971878833E+02 -0.43790301877E+03  0.44271689086E+03  0.00000000000E+00 0. -1.
<scales pt_clust_5="13000.00000" pt_clust_6="13000.00000" pt_clust_7="13000.00000" pt_clust_8="13000.00000" pt_clust_9="65.10907"></scales>
<clustering>
<clus scale="   65.109">  2  9  1 -1</clus>
<clus scale="   80.485">  5  6 -1 -1</clus>
<clus scale="   91.322">  7  8 -1 -1</clus>
<clus scale="  116.090">  1  5  2 -1</clus>
<clus scale="   65.109">  2  5  1 -1</clus>
</clustering>
</event>
<event>
 9    1  0.2674825E-005  0.2066118E+03  0.7546771E-02  0.1159277E+00
         -2   -1    0    0    0  501 -0.00000000000E+00  0.00000000000E+00  0.60279117510E+03  0.60279117510E+03  0.00000000000E+00 0.  1.
          1   -1    0    0  502    0  0.00000000000E+00 -0.00000000000E+00 -0.11220534338E+04  0.11220534338E+04  0.00000000000E+00 0. -1.
         23    2    1    2    0    0 -0.21526781447E+02 -0.17925269142E+03  0.53078740049E+03  0.56821161854E+03  0.92381000342E+02 0.  0.
        -24    2    1    2    0    0 -0.13493915168E+02 -0.12057626713E+03 -0.58121218163E+03  0.59901983239E+03  0.79350094998E+02 0.  0.
         11    1    4    4    0    0 -0.23007206273E+02 -0.99743122056E+02 -0.30212614130E+03  0.31899565388E+03  0.00000000000E+00 0. -1.
        -12    1    4    4    0    0  0.95132911047E+01 -0.20833145079E+02 -0.27908604033E+03  0.28002417851E+03  0.00000000000E+00 0.  1.
        -13    1    3    3    0    0 -0.11333287053E+02 -0.16137197981E+03  0.52077772193E+03  0.54532448590E+03  0.00000000000E+00 0.  1.
         13    1    3    3    0    0 -0.10193494394E+02 -0.17880711610E+02  0.10009678561E+02  0.22887132641E+02  0.00000000000E+00 0. -1.
         21    1    1    2  502  501  0.35020696615E+02  0.29982895856E+03 -0.46883747756E+03  0.55761315798E+03  0.00000000000E+00 0. -1.
<scales pt_clust_5="13000.00000" pt_clust_6="13000.00000" pt_clust_7="13000.00000" pt_clust_8="13000.00000" pt_clust_9="184.80855"></scales>
<clustering>
<clus scale="   79.350">  5  6 -1 -1</clus>
<clus scale="   92.381">  7  8 -1 -1</clus>
<clus scale="  144.973">  2  5  1 -1</clus>
<clus scale="  184.809">  2  9  1 -1</clus>
<clus scale="  144.973">  2  5  1 -1</clus>
</clustering>
</event>
<event>
 9    1  0.3759359E-005  0.1024789E+03  0.7546771E-02  0.1280574E+00
          1   -1    0    0  502    0  0.00000000000E+00  0.00000000000E+00  0.22487987928E+03  0.22487987928E+03  0.00000000000E+00 0. -1.
         -2   -1    0    0    0  501 -0.00000000000E+00 -0.00000000000E+00 -0.37650609755E+03  0.37650609755E+03  0.00000000000E+00 0.  1.
        -24    2    1    2    0    0 -0.31762452059E+02 -0.24540469210E+02 -0.35166887082E+03  0.36367096974E+03  0.83513421300E+02 0.  0.
         23    2    1    2    0    0  0.10937614389E+02  0.20768267851E+02  0.19159751538E+03  0.21492852625E+03  0.94518311128E+02 0.  0.
         13    1    3    3    0    0 -0.46717706481E+02 -0.19384181877E+02 -0.10553843840E+03  0.11703269879E+03  0.00000000000E+00 0. -1.
        -14    1    3    3    0    0  0.14955254422E+02 -0.51562873329E+01 -0.24613043243E+03  0.24663827096E+03  0.00000000000E+00 0.  1.
        -13    1    4    4    0    0  0.48137164005E+02  0.32322213279E+02  0.12460252634E+03  0.13743253472E+03  0.00000000000E+00 0. -1.
         13    1    4    4    0    0 -0.37199549616E+02 -0.11553945428E+02  0.66994989035E+02  0.77495991525E+02  0.00000000000E+00 0.  1.
         21    1    1    2  502  501  0.20824837670E+02  0.37722013595E+01  0.84451371790E+01  0.22786480840E+02  0.00000000000E+00 0. -1.
<scales pt_clust_5="13000.00000" pt_clust_6="13000.00000" pt_clust_7="13000.00000" pt_clust_8="13000.00000" pt_clust_9="21.16373"></scales>
<clustering>
<clus scale="   21.164">  1  9  2 -1</clus>
<clus scale="   83.513">  5  6 -1 -1</clus>
<clus scale="   92.427">  2  5  1 -1</clus>
<clus scale="   94.518">  7  8 -1 -1</clus>
<clus scale="   21.164">  1  5  2 -1</clus>
</clustering>
</event>
<event>
 9    1  0.2674825E-005  0.1446865E+03  0.7546771E-02  0.1223956E+00
         -2   -1    0    0    0  501 -0.00000000000E+00  0.00000000000E+00  0.18116332287E+03  0.18116332287E+03  0.00000000000E+00 0.  1.
          1   -1    0    0  502    0  0.00000000000E+00 -0.00000000000E+00 -0.11221145607E+04  0.11221145607E+04  0.00000000000E+00 0. -1.
         23    2    1    2    0    0  0.46701860519E+02  0.10295889382E+02  0.13579981012E+03  0.16948827501E+03  0.89429401337E+02 0.  0.
        -24    2    1    2    0    0  0.48446357936E+02 -0.90151554873E+02 -0.14979211453E+03  0.19854473419E+03  0.80672061174E+02 0.  0.
         11    1    4    4    0    0  0.49998372559E+02 -0.10221043623E+03 -0.14730736595E+03  0.18613508695E+03  0.00000000000E+00 0. -1.
        -12    1    4    4    0    0 -0.15520146227E+01  0.12058881355E+02 -0.24847485829E+01  0.12409647233E+02  0.00000000000E+00 0.  1.
        -11    1    3    3    0    0  0.70392414669E+02 -0.67241043540E+01  0.81916124815E+02  0.10821532760E+03  0.00000000000E+00 0. -1.
         11    1    3    3    0    0 -0.23690554150E+02  0.17019993736E+02  0.53883685310E+02  0.61272947418E+02  0.00000000000E+00 0.  1.
         21    1    1    2  502  501 -0.95148218455E+02  0.79855665492E+02 -0.92695893345E+03  0.93524487440E+03  0.00000000000E+00 0.  1.
<scales pt_clust_5="13000.00000" pt_clust_6="13000.00000" pt_clust_7="13000.00000" pt_clust_8="13000.00000" pt_clust_9="120.10918"></scales>
<clustering>
<clus scale="   80.672">  5  6 -1 -1</clus>
<clus scale="   89.429">  7  8 -1 -1</clus>
<clus scale="  101.413">  1  7  2 -1</clus>
<clus scale="  120.109">  2  9  1 -1</clus>
<clus scale="  120.109">  2  5  1 -1</clus>
</clustering>
</event>
<event>
 9    1  0.2674825E-005  0.1035578E+03  0.7546771E-02  0.1280988E+00
          1   -1    0    0  502    0  0.00000000000E+00  0.00000000000E+00  0.45201584714E+02  0.45201584714E+02  0.00000000000E+00 0. -1.
         -2   -1    0    0    0  501 -0.00000000000E+00 -0.00000000000E+00 -0.32887710519E+03  0.32887710519E+03  0.00000000000E+00 0.  1.
        -24    2    1    2    0    0 -0.98773996430E+01  0.26688692907E+02 -0.16672687132E+03  0.18472757097E+03  0.74273659569E+02 0.  0.
         23    2    1    2    0    0  0.12034553035E+02 -0.58477364334E+02 -0.61131398302E+02  0.12508029791E+03  0.91343310976E+02 0.  0.
         11    1    3    3    0    0  0.17276902342E+02 -0.15759654707E+02 -0.24642610985E+02  0.33972287929E+02  0.00000000000E+00 0. -1.
        -12    1    3    3    0    0 -0.27154301985E+02  0.42448347614E+02 -0.14208426033E+03  0.15075528304E+03  0.00000000000E+00 0.  1.
        -11    1    4    4    0    0  0.13065513845E+02 -0.82202806655E+02 -0.36565048930E+02  0.90912110729E+02  0.00000000000E+00 0. -1.
         11    1    4    4    0    0 -0.10309608101E+01  0.23725442321E+02 -0.24566349372E+02  0.34168187178E+02  0.00000000000E+00 0.  1.
         21    1    1    2  502  501 -0.21571533922E+01  0.31788671427E+02 -0.55817250853E+02  0.64270821020E+02  0.00000000000E+00 0.  1.
<scales pt_clust_5="13000.00000" pt_clust_6="13000.00000" pt_clust_7="13000.00000" pt_clust_8="13000.00000" pt_clust_9="31.86178"></scales>
<clustering>
<clus scale="   31.862">  2  9  1 -1</clus>
<clus scale="   74.274">  5  6 -1 -1</clus>
<clus scale="   88.866">  2  5  1 -1</clus>
<clus scale="   91.343">  7  8 -1 -1</clus>
<clus scale="  103.558">  1  5  2 -1</clus>
</clustering>
</event>
<event>
 9    1  0.2674825E-005  0.9132701E+02  0.7546771E-02  0.1306782E+00
         -2   -1    0    0    0  501 -0.00000000000E+00  0.00000000000E+00  0.49562375964E+02  0.49562375964E+02  0.00000000000E+00 0.  1.
          1   -1    0    0  502    0  0.00000000000E+00 -0.00000000000E+00 -0.42557571361E+03  0.42557571361E+03  0.00000000000E+00 0. -1.
         23    2    1    2    0    0  0.55305325889E+01  0.40058110072E+01 -0.68576815734E+01  0.91462315607E+02  0.90948854127E+02 0.  0.
        -24    2    1    2    0    0 -0.23131449304E+02  0.63200396609E+01 -0.31456884797E+03  0.32539940586E+03  0.79725819982E+02 0.  0.
         13    1    4    4    0    0 -0.23160800634E+02 -0.16467722952E+02 -0.35835521127E+02  0.45736125324E+02  0.00000000000E+00 0. -1.
        -14    1    4    4    0    0  0.29351329387E-01  0.22787762613E+02 -0.27873332684E+03  0.27966328054E+03  0.00000000000E+00 0.  1.
        -13    1    3    3    0    0  0.11560180459E+02 -0.24098395934E+02 -0.39674273483E+02  0.47837416686E+02  0.00000000000E+00 0. -1.
         13    1    3    3    0    0 -0.60296478700E+01  0.28104206941E+02  0.32816591910E+02  0.43624898920E+02  0.00000000000E+00 0.  1.
         21    1    1    2  502  501  0.17600916715E+02 -0.10325850668E+02 -0.54586808104E+02  0.58276368111E+02  0.00000000000E+00 0.  1.
<scales pt_clust_5="13000.00000" pt_clust_6="13000.00000" pt_clust_7="13000.00000" pt_clust_8="13000.00000" pt_clust_9="20.40626"></scales>
<clustering>
<clus scale="   20.406">  2  9  1 -1</clus>
<clus scale="   79.726">  5  6 -1 -1</clus>
<clus scale="   80.157">  2  5  1 -1</clus>
<clus scale="   90.949">  7  8 -1 -1</clus>
<clus scale="   20.406">  2  5  1 -1</clus>
</clustering>
</event>
<event>
 9    1  0.2674825E-005  0.9765846E+02  0.7546771E-02  0.1292416E+00
         -2   -1    0    0    0  501 -0.00000000000E+00  0.00000000000E+00  0.43764653926E+02  0.43764653926E+02  0.00000000000E+00 0.  1.
          1   -1    0    0  502    0  0.00000000000E+00 -0.00000000000E+00 -0.33845414231E+03  0.33845414231E+03  0.00000000000E+00 0. -1.
        -24    2    1    2    0    0 -0.71004992615E+01  0.21180017194E+02 -0.30283293384E+02  0.89620286948E+02  0.81337001152E+02 0.  0.
         23    2    1    2    0    0 -0.27390857831E+00 -0.41826340752E+02 -0.20818962990E+03  0.23225818480E+03  0.94082009983E+02 0.  0.
         13    1    3    3    0    0  0.13571535002E+02  0.25818607428E+02 -0.51785020676E+02  0.59434631472E+02  0.00000000000E+00 0. -1.
        -14    1    3    3    0    0 -0.20672034264E+02 -0.46385902340E+01  0.21501727292E+02  0.30185655476E+02  0.00000000000E+00 0.  1.
        -11    1    4    4    0    0  0.43780944228E+02 -0.37915319821E+02 -0.13228719379E+03  0.14440998649E+03  0.00000000000E+00 0.  1.
         11    1    4    4    0    0 -0.44054852806E+02 -0.39110209310E+01 -0.75902436101E+02  0.87848198311E+02  0.00000000000E+00 0. -1.
         21    1    1    2  502  501  0.73744078398E+01  0.20646323559E+02 -0.56216565101E+02  0.60340324487E+02  0.00000000000E+00 0.  1.
<scales pt_clust_5="13000.00000" pt_clust_6="13000.00000" pt_clust_7="13000.00000" pt_clust_8="13000.00000" pt_clust_9="21.92379"></scales>
<clustering>
<clus scale="   21.924">  2  9  1 -1</clus>
<clus scale="   81.337">  5  6 -1 -1</clus>
<clus scale="   85.449">  1  5  2 -1</clus>
<clus scale="   94.082">  7  8 -1 -1</clus>
<clus scale="   21.924">  2  5  1 -1</clus>
</clustering>
</event>
<event>
 9    1  0.2674825E-005  0.9350922E+02  0.7546771E-02  0.1300522E+00
         -2   -1    0    0    0  501 -0.00000000000E+00  0.00000000000E+00  0.99586208172E+02  0.99586208172E+02  0.00000000000E+00 0.  1.
          1   -1    0    0  502    0  0.00000000000E+00 -0.00000000000E+00 -0.17903485822E+03  0.17903485822E+03  0.00000000000E+00 0. -1.
        -24    2    1    2    0    0  0.20487387177E+01 -0.20755671263E+02  0.52490926396E+02  0.98417496455E+02  0.80595974060E+02 0.  0.
         23    2    1    2    0    0  0.14317902028E+02  0.35015677326E+02 -0.12106338814E+03  0.15592382170E+03  0.90690651393E+02 0.  0.
         11    1    3    3    0    0  0.17462465353E+02 -0.48307840103E+02  0.36604277400E+02  0.63075020694E+02  0.00000000000E+00 0. -1.
        -12    1    3    3    0    0 -0.15413726635E+02  0.27552168840E+02  0.15886648996E+02  0.35342475761E+02  0.00000000000E+00 0.  1.
        -13    1    4    4    0    0  0.30885176474E+02  0.47018052756E+02 -0.12311972449E+03  0.13536269047E+03  0.00000000000E+00 0.  1.
         13    1    4    4    0    0 -0.16567274445E+02 -0.12002375430E+02  0.20563363574E+01  0.20561131236E+02  0.00000000000E+00 0. -1.
         21    1    1    2  502  501 -0.16366640746E+02 -0.14260006063E+02 -0.10876188307E+02  0.24279748234E+02  0.00000000000E+00 0. -1.
<scales pt_clust_5="13000.00000" pt_clust_6="13000.00000" pt_clust_7="13000.00000" pt_clust_8="13000.00000" pt_clust_9="21.70748"></scales>
<clustering>
<clus scale="   21.707">  2  9  1 -1</clus>
<clus scale="   80.596">  5  6 -1 -1</clus>
<clus scale="   83.755">  1  5  2 -1</clus>
<clus scale="   90.691">  7  8 -1 -1</clus>
<clus scale="   21.707">  2  5  1 -1</clus>
</clustering>
</event>
<event>
 9    1  0.2674825E-005  0.1125414E+03  0.7546771E-02  0.1258083E+00
          1   -1    0    0  502    0  0.00000000000E+00  0.00000000000E+00  0.14555940875E+03  0.14555940875E+03  0.00000000000E+00 0. -1.
         -2   -1    0    0    0  501 -0.00000000000E+00 -0.00000000000E+00 -0.16101433566E+03  0.16101433566E+03  0.00000000000E+00 0.  1.
        -24    2    1    2    0    0 -0.23228069143E+02  0.85523574738E+02 -0.76469442770E+02  0.14485728195E+03  0.85335991376E+02 0.  0.
         23    2    1    2    0    0  0.10600978054E+02 -0.59066102315E+02  0.71609107709E+02  0.13054457363E+03  0.91174756476E+02 0.  0.
         11    1    3    3    0    0 -0.44407739086E+02  0.73374810242E+02 -0.27380295278E+02  0.90031053744E+02  0.00000000000E+00 0. -1.
        -12    1    3    3    0    0  0.21179669944E+02  0.12148764496E+02 -0.49089147493E+02  0.54826228206E+02  0.00000000000E+00 0.  1.
        -11    1    4    4    0    0 -0.21926850733E+02 -0.68645034298E+02  0.62610258055E+02  0.95461887320E+02  0.00000000000E+00 0.  1.
         11    1    4    4    0    0  0.32527828787E+02  0.95789319836E+01  0.89988496533E+01  0.35082686308E+02  0.00000000000E+00 0. -1.
         21    1    1    2  502  501  0.12627091089E+02 -0.26457472424E+02 -0.10594591849E+02  0.31171888824E+02  0.00000000000E+00 0. -1.
<scales pt_clust_5="13000.00000" pt_clust_6="13000.00000" pt_clust_7="13000.00000" pt_clust_8="13000.00000" pt_clust_9="29.31623"></scales>
<clustering>
<clus scale="   29.316">  2  9  1 -1</clus>
<clus scale="   85.336">  5  6 -1 -1</clus>
<clus scale="   91.175">  7  8 -1 -1</clus>
<clus scale="  107.866">  2  5  1 -1</clus>
<clus scale="  112.541">  1  5  2 -1</clus>
</clustering>
</event>
<event>
 9    1  0.2674825E-005  0.9721766E+02  0.7546771E-02  0.1291781E+00
         -2   -1    0    0    0  501 -0.00000000000E+00  0.00000000000E+00  0.11699054869E+03  0.11699054869E+03  0.00000000000E+00 0.  1.
          1   -1    0    0  502    0  0.00000000000E+00 -0.00000000000E+00 -0.26105644230E+03  0.26105644230E+03  0.00000000000E+00 0. -1.
        -24    2    1    2    0    0 -0.94716916388E+01  0.27613854575E+02  0.71147903189E+02  0.11165240311E+03  0.80944407367E+02 0.  0.
         23    2    1    2    0    0  0.30688352731E+02 -0.62600886129E+02 -0.14291077491E+03  0.18331651580E+03  0.91218470956E+02 0.  0.
         11    1    3    3    0    0  0.22920748167E+02 -0.18189129963E+02  0.17877177050E+02  0.34289919868E+02  0.00000000000E+00 0. -1.
        -12    1    3    3    0    0 -0.32392439806E+02  0.45802984538E+02  0.53270726140E+02  0.77362483237E+02  0.00000000000E+00 0.  1.
        -13    1    4    4    0    0  0.53570781800E+02 -0.69625478870E+02 -0.92823099343E+02  0.12780322274E+03  0.00000000000E+00 0.  1.
         13    1    4    4    0    0 -0.22882429070E+02  0.70245927406E+01 -0.50087675568E+02  0.55513293066E+02  0.00000000000E+00 0. -1.
         21    1    1    2  502  501 -0.21216661092E+02  0.34987031554E+02 -0.72303021891E+02  0.83078072073E+02  0.00000000000E+00 0. -1.
<scales pt_clust_5="13000.00000" pt_clust_6="13000.00000" pt_clust_7="13000.00000" pt_clust_8="13000.00000" pt_clust_9="40.91747"></scales>
<clustering>
<clus scale="   40.917">  2  9  1 -1</clus>
<clus scale="   80.944">  5  6 -1 -1</clus>
<clus scale="   87.650">  1  5  2 -1</clus>
<clus scale="   91.218">  7  8 -1 -1</clus>
<clus scale="   40.917">  2  5  1 -1</clus>
</clustering>
</event>
<event>
 9    1  0.2674825E-005  0.9452232E+02  0.7546771E-02  0.1294526E+00
          3   -1    0    0  502    0  0.00000000000E+00  0.00000000000E+00  0.91877709230E+02  0.91877709230E+02  0.00000000000E+00 0. -1.
         -4   -1    0    0    0  501 -0.00000000000E+00 -0.00000000000E+00 -0.15132777946E+03  0.15132777946E+03  0.00000000000E+00 0.  1.
         23    2    1    2    0    0  0.22726741745E+02 -0.38368333021E+02 -0.86922549011E+02  0.12989590581E+03  0.85608311811E+02 0.  0.
        -24    2    1    2    0    0 -0.11472896663E+01  0.31602556168E+02  0.19735829022E+02  0.89407611455E+02  0.81266107382E+02 0.  0.
         11    1    4    4    0    0 -0.14234652061E+02 -0.18844232701E+02 -0.13877013504E+02  0.27391639768E+02  0.00000000000E+00 0. -1.
        -12    1    4    4    0    0  0.13087362394E+02  0.50446788869E+02  0.33612842527E+02  0.62015971688E+02  0.00000000000E+00 0.  1.
        -11    1    3    3    0    0  0.11741402086E+02 -0.63167890667E+02 -0.78611625302E+02  0.10152748676E+03  0.00000000000E+00 0.  1.
         11    1    3    3    0    0  0.10985339659E+02  0.24799557647E+02 -0.83109237095E+01  0.28368419057E+02  0.00000000000E+00 0. -1.
         21    1    1    2  502  501 -0.21579452079E+02  0.67657768525E+01  0.77366497573E+01  0.23901971423E+02  0.00000000000E+00 0.  1.
<scales pt_clust_5="13000.00000" pt_clust_6="13000.00000" pt_clust_7="13000.00000" pt_clust_8="13000.00000" pt_clust_9="22.61523"></scales>
<clustering>
<clus scale="   22.615">  1  9  2 -1</clus>
<clus scale="   81.266">  5  6 -1 -1</clus>
<clus scale="   85.608">  7  8 -1 -1</clus>
<clus scale="   90.608">  1  5  2 -1</clus>
<clus scale="   22.615">  1  5  2 -1</clus>
</clustering>
</event>
<event>
 9    1  0.2674825E-005  0.1129384E+03  0.7546771E-02  0.1260157E+00
          1   -1    0    0  502    0  0.00000000000E+00  0.00000000000E+00  0.25791945093E+03  0.25791945093E+03  0.00000000000E+00 0. -1.
         -2   -1    0    0    0  501 -0.00000000000E+00 -0.00000000000E+00 -0.19616846589E+03  0.19616846589E+03  0.00000000000E+00 0.  1.
        -24    2    1    2    0    0 -0.46426524885E+02 -0.50004334273E+02 -0.16387959002E+03  0.19391894418E+03  0.78052426143E+02 0.  0.
         23    2    1    2    0    0  0.32054665956E+02  0.32649317281E+02  0.15190374310E+03  0.18307557023E+03  0.91369785589E+02 0.  0.
         13    1    3    3    0    0 -0.24555353937E+02  0.15608718316E+02 -0.23405608808E+02  0.37341933776E+02  0.00000000000E+00 0. -1.
        -14    1    3    3    0    0 -0.21871170948E+02 -0.65613052589E+02 -0.14047398121E+03  0.15657701040E+03  0.00000000000E+00 0.  1.
        -11    1    4    4    0    0  0.16344893916E+02 -0.31389308681E+02  0.42138912382E+02  0.55028467118E+02  0.00000000000E+00 0.  1.
         11    1    4    4    0    0  0.15709772040E+02  0.64038625962E+02  0.10976483072E+03  0.12804710311E+03  0.00000000000E+00 0. -1.
         21    1    1    2  502  501  0.14371858929E+02  0.17355016992E+02  0.73726831959E+02  0.77093402406E+02  0.00000000000E+00 0. -1.
<scales pt_clust_5="13000.00000" pt_clust_6="13000.00000" pt_clust_7="13000.00000" pt_clust_8="13000.00000" pt_clust_9="22.53324"></scales>
<clustering>
<clus scale="   22.533">  1  9  2 -1</clus>
<clus scale="   78.052">  5  6 -1 -1</clus>
<clus scale="   91.370">  7  8 -1 -1</clus>
<clus scale="  102.464">  2  5  1 -1</clus>
<clus scale="   22.533">  1  5  2 -1</clus>
</clustering>
</event>
<event>
 9    1  0.2674825E-005  0.9502720E+02  0.7546771E-02  0.1296746E+00
         -4   -1    0    0    0  501 -0.00000000000E+00  0.00000000000E+00  0.29809990892E+03  0.29809990892E+03  0.00000000000E+00 0.  1.
          3   -1    0    0  502    0  0.00000000000E+00 -0.00000000000E+00 -0.87143727421E+02  0.87143727421E+02  0.00000000000E+00 0. -1.
        -24    2    1    2    0    0 -0.90363180291E+01  0.36012263896E+02  0.23559140232E+03  0.25131550793E+03  0.79231543497E+02 0.  0.
         23    2    1    2    0    0 -0.74506754597E+01 -0.80674680600E+01  0.47427912494E+01  0.90158273925E+02  0.89361197858E+02 0.  0.
         13    1    3    3    0    0 -0.44285118729E+02  0.20040391418E+02  0.12283086424E+03  0.13209924390E+03  0.00000000000E+00 0. -1.
        -14    1    3    3    0    0  0.35248800700E+02  0.15971872478E+02  0.11276053809E+03  0.11921626404E+03  0.00000000000E+00 0.  1.
        -13    1    4    4    0    0 -0.32205743084E+02  0.19448454776E+02 -0.22827035227E+02  0.44005974800E+02  0.00000000000E+00 0. -1.
         13    1    4    4    0    0  0.24755067625E+02 -0.27515922836E+02  0.27569826477E+02  0.46152299126E+02  0.00000000000E+00 0.  1.
         21    1    1    2  502  501  0.16486993489E+02 -0.27944795837E+02 -0.29378012070E+02  0.43769854487E+02  0.00000000000E+00 0.  1.
<scales pt_clust_5="13000.00000" pt_clust_6="13000.00000" pt_clust_7="13000.00000" pt_clust_8="13000.00000" pt_clust_9="32.44584"></scales>
<clustering>
<clus scale="   32.446">  2  9  1 -1</clus>
<clus scale="   79.232">  5  6 -1 -1</clus>
<clus scale="   85.571">  1  5  2 -1</clus>
<clus scale="   89.361">  7  8 -1 -1</clus>
<clus scale="   32.446">  2  5  1 -1</clus>
</clustering>
</event>
<event>
 9    1  0.2674825E-005  0.9717175E+02  0.7546771E-02  0.1294104E+00
         -2   -1    0    0    0  501 -0.00000000000E+00  0.00000000000E+00  0.41943801189E+02  0.41943801189E+02  0.00000000000E+00 0.  1.
          1   -1    0    0  502    0  0.00000000000E+00 -0.00000000000E+00 -0.68389263386E+03  0.68389263386E+03  0.00000000000E+00 0. -1.
        -24    2    1    2    0    0 -0.24730915711E+02 -0.25977372087E+02 -0.29328467630E+02  0.91323208202E+02  0.78697695584E+02 0.  0.
         23    2    1    2    0    0 -0.33981040169E+02  0.21757415528E+02 -0.30417918670E+03  0.32050548444E+03  0.92578030398E+02 0.  0.
         11    1    3    3    0    0  0.28279783835E+02 -0.38382049485E+01 -0.51765511149E+01  0.29004735345E+02  0.00000000000E+00 0. -1.
        -12    1    3    3    0    0 -0.53010699546E+02 -0.22139167138E+02 -0.24151916515E+02  0.62318472857E+02  0.00000000000E+00 0.  1.
        -11    1    4    4    0    0  0.25583587011E+02  0.26887551919E+02 -0.16332047553E+03  0.16748444137E+03  0.00000000000E+00 0. -1.
         11    1    4    4    0    0 -0.59564627180E+02 -0.51301363914E+01 -0.14085871117E+03  0.15302104308E+03  0.00000000000E+00 0.  1.
         21    1    1    2  502  501  0.58711955880E+02  0.42199565590E+01 -0.30844117834E+03  0.31400774241E+03  0.00000000000E+00 0. -1.
<scales pt_clust_5="13000.00000" pt_clust_6="13000.00000" pt_clust_7="13000.00000" pt_clust_8="13000.00000" pt_clust_9="58.86342"></scales>
<clustering>
<clus scale="   58.863">  2  9  1 -1</clus>
<clus scale="   78.698">  5  6 -1 -1</clus>
<clus scale="   84.053">  1  5  2 -1</clus>
<clus scale="   92.578">  7  8 -1 -1</clus>
<clus scale="   58.863">  2  5  1 -1</clus>
</clustering>
</event>
<event>
 9    1  0.2674825E-005  0.1430498E+03  0.7546771E-02  0.1211312E+00
          1   -1    0    0  502    0  0.00000000000E+00  0.00000000000E+00  0.30204826818E+03  0.30204826818E+03  0.00000000000E+00 0. -1.
         -2   -1    0    0    0  501 -0.00000000000E+00 -0.00000000000E+00 -0.15645901715E+03  0.15645901715E+03  0.00000000000E+00 0.  1.
         23    2    1    2    0    0  0.92741442829E+02 -0.64572825570E+02 -0.95040439703E+02  0.17419678359E+03  0.92418662696E+02 0.  0.
        -24    2    1    2    0    0 -0.79154237978E+02  0.39143187458E+02  0.20910038560E+03  0.24158608586E+03  0.82724138607E+02 0.  0.
         13    1    4    4    0    0 -0.21526297031E+02  0.53077237646E+02  0.70477504868E+02  0.90816591614E+02  0.00000000000E+00 0. -1.
        -14    1    4    4    0    0 -0.57627940947E+02 -0.13934050187E+02  0.13862288073E+03  0.15076949424E+03  0.00000000000E+00 0.  1.
        -11    1    3    3    0    0  0.61795486863E+02 -0.80155180589E+02 -0.96053544068E+02  0.13953429148E+03  0.00000000000E+00 0.  1.
         11    1    3    3    0    0  0.30945955966E+02  0.15582355020E+02  0.10131043651E+01  0.34662492107E+02  0.00000000000E+00 0. -1.
         21    1    1    2  502  501 -0.13587204852E+02  0.25429638111E+02  0.31529305135E+02  0.42724415882E+02  0.00000000000E+00 0. -1.
<scales pt_clust_5="13000.00000" pt_clust_6="13000.00000" pt_clust_7="13000.00000" pt_clust_8="13000.00000" pt_clust_9="28.83190"></scales>
<clustering>
<clus scale="   28.832">  1  9  2 -1</clus>
<clus scale="   82.724">  5  6 -1 -1</clus>
<clus scale="   92.419">  7  8 -1 -1</clus>
<clus scale="  136.987">  1  5  2 -1</clus>
<clus scale="   28.832">  1  5  2 -1</clus>
</clustering>
</event>
<event>
 9    1  0.2674825E-005  0.2464592E+03  0.7546771E-02  0.1116896E+00
          1   -1    0    0  502    0  0.00000000000E+00  0.00000000000E+00  0.10088983590E+04  0.10088983590E+04  0.00000000000E+00 0. -1.
         -2   -1    0    0    0  501 -0.00000000000E+00 -0.00000000000E+00 -0.19036355652E+03  0.19036355652E+03  0.00000000000E+00 0.  1.
        -24    2    1    2    0    0  0.22245069244E+03 -0.45334408213E+02 -0.86182616006E+02  0.25534919896E+03  0.78969937122E+02 0.  0.
         23    2    1    2    0    0 -0.20445108901E+03  0.13822203435E+02  0.82989635629E+03  0.86075505833E+03  0.10089602151E+03 0.  0.
         13    1    3    3    0    0  0.64699306348E+02 -0.33349066172E+02  0.46234196747E+01  0.72935152471E+02  0.00000000000E+00 0. -1.
        -14    1    3    3    0    0  0.15775138610E+03 -0.11985342041E+02 -0.90806035681E+02  0.18241404649E+03  0.00000000000E+00 0.  1.
        -13    1    4    4    0    0 -0.15961946301E+03  0.52900609139E+02  0.64298520460E+03  0.66461027735E+03  0.00000000000E+00 0.  1.
         13    1    4    4    0    0 -0.44831626000E+02 -0.39078405704E+02  0.18691115168E+03  0.19614478098E+03  0.00000000000E+00 0. -1.
         21    1    1    2  502  501 -0.17999603431E+02  0.31512204778E+02  0.74821062240E+02  0.83157658267E+02  0.00000000000E+00 0.  1.
<scales pt_clust_5="13000.00000" pt_clust_6="13000.00000" pt_clust_7="13000.00000" pt_clust_8="13000.00000" pt_clust_9="36.29056"></scales>
<clustering>
<clus scale="   36.291">  1  9  2 -1</clus>
<clus scale="   78.970">  5  6 -1 -1</clus>
<clus scale="  100.896">  7  8 -1 -1</clus>
<clus scale="  238.324">  2  5  1 -1</clus>
<clus scale="   36.291">  1  5  2 -1</clus>
</clustering>
</event>
<event>
 9    1  0.2674825E-005  0.9297227E+02  0.7546771E-02  0.1303143E+00
         -2   -1    0    0    0  501 -0.00000000000E+00  0.00000000000E+00  0.52884381511E+02  0.52884381511E+02  0.00000000000E+00 0.  1.
          1   -1    0    0  502    0  0.00000000000E+00 -0.00000000000E+00 -0.27540184437E+03  0.27540184437E+03  0.00000000000E+00 0. -1.
         23    2    1    2    0    0 -0.45349583470E+00  0.21632001945E+02 -0.13997183687E+02  0.95041713445E+02  0.91481457011E+02 0.  0.
        -24    2    1    2    0    0 -0.44923738604E+01  0.78963655784E+00 -0.17846254752E+03  0.19542046278E+03  0.79495103355E+02 0.  0.
         13    1    4    4    0    0 -0.19383134718E+02 -0.35418145777E+02 -0.85694590262E+02  0.94729687859E+02  0.00000000000E+00 0. -1.
        -14    1    4    4    0    0  0.14890760857E+02  0.36207782335E+02 -0.92767957257E+02  0.10069077492E+03  0.00000000000E+00 0.  1.
        -13    1    3    3    0    0 -0.20200310612E+02  0.34392118425E+02  0.26730944599E+02  0.48014724385E+02  0.00000000000E+00 0.  1.
         13    1    3    3    0    0  0.19746814777E+02 -0.12760116480E+02 -0.40728128286E+02  0.47026989061E+02  0.00000000000E+00 0. -1.
         21    1    1    2  502  501  0.49458696951E+01 -0.22421638503E+02 -0.30057731649E+02  0.37824049652E+02  0.00000000000E+00 0. -1.
<scales pt_clust_5="13000.00000" pt_clust_6="13000.00000" pt_clust_7="13000.00000" pt_clust_8="13000.00000" pt_clust_9="22.96065"></scales>
<clustering>
<clus scale="   22.961">  2  9  1 -1</clus>
<clus scale="   79.495">  5  6 -1 -1</clus>
<clus scale="   81.206">  2  5  1 -1</clus>
<clus scale="   91.481">  7  8 -1 -1</clus>
<clus scale="   22.961">  2  5  1 -1</clus>
</clustering>
</event>
<event>
 9    1  0.3772868E-005  0.2088418E+03  0.7546771E-02  0.1142965E+00
          1   -1    0    0  502    0  0.00000000000E+00  0.00000000000E+00  0.88863091229E+03  0.88863091229E+03  0.00000000000E+00 0. -1.
         -2   -1    0    0    0  501 -0.00000000000E+00 -0.00000000000E+00 -0.17838199813E+03  0.17838199813E+03  0.00000000000E+00 0.  1.
         23    2    1    2    0    0 -0.14657579708E+03  0.86479725979E+02 -0.98624912016E+02  0.21667849106E+03  0.90881724909E+02 0.  0.
        -24    2    1    2    0    0  0.16034985616E+03 -0.10104879429E+03  0.80297597395E+03  0.82943544533E+03  0.85263169259E+02 0.  0.
         13    1    4    4    0    0  0.16617208605E+03 -0.10556483398E+03  0.79276450095E+03  0.81684310019E+03  0.00000000000E+00 0. -1.
        -14    1    4    4    0    0 -0.58222298915E+01  0.45160396890E+01  0.10211472995E+02  0.12592345139E+02  0.00000000000E+00 0.  1.
        -13    1    3    3    0    0 -0.11340416299E+03  0.98448154896E+02 -0.53525951160E+02  0.15942888958E+03  0.00000000000E+00 0.  1.
         13    1    3    3    0    0 -0.33171634094E+02 -0.11968428918E+02 -0.45098960856E+02  0.57249601479E+02  0.00000000000E+00 0. -1.
         21    1    1    2  502  501 -0.13774059081E+02  0.14569068308E+02  0.58978522221E+01  0.20898974036E+02  0.00000000000E+00 0. -1.
<scales pt_clust_5="13000.00000" pt_clust_6="13000.00000" pt_clust_7="13000.00000" pt_clust_8="13000.00000" pt_clust_9="20.04950"></scales>
<clustering>
<clus scale="   20.050">  2  9  1 -1</clus>
<clus scale="   85.263">  5  6 -1 -1</clus>
<clus scale="   90.882">  7  8 -1 -1</clus>
<clus scale="  206.459">  1  5  2 -1</clus>
<clus scale="  206.459">  1  5  2 -1</clus>
</clustering>
</event>
<event>
 9    1  0.2674825E-005  0.2273818E+03  0.7546771E-02  0.1129198E+00
          1   -1    0    0  502    0  0.00000000000E+00  0.00000000000E+00  0.60495657681E+03  0.60495657681E+03  0.00000000000E+00 0. -1.
         -2   -1    0    0    0  501 -0.00000000000E+00 -0.00000000000E+00 -0.24236060521E+03  0.24236060521E+03  0.00000000000E+00 0.  1.
         23    2    1    2    0    0  0.16156251741E+03 -0.13017538391E+03 -0.62400227265E+02  0.23449694060E+03  0.89704789065E+02 0.  0.
        -24    2    1    2    0    0 -0.13363042643E+03  0.16781893555E+03  0.48995757990E+02  0.23390920936E+03  0.79326212093E+02 0.  0.
         11    1    4    4    0    0 -0.58429254411E+01  0.30695811460E+02  0.33534908263E+02  0.45836259567E+02  0.00000000000E+00 0. -1.
        -12    1    4    4    0    0 -0.12778750099E+03  0.13712312409E+03  0.15460849727E+02  0.18807294979E+03  0.00000000000E+00 0.  1.
        -11    1    3    3    0    0  0.13868264946E+02 -0.60327769789E+02 -0.25842324379E+02  0.67079015420E+02  0.00000000000E+00 0. -1.
         11    1    3    3    0    0  0.14769425246E+03 -0.69847614118E+02 -0.36557902886E+02  0.16741792518E+03  0.00000000000E+00 0.  1.
         21    1    1    2  502  501 -0.27932090975E+02 -0.37643551640E+02  0.37600044087E+03  0.37891103207E+03  0.00000000000E+00 0. -1.
<scales pt_clust_5="13000.00000" pt_clust_6="13000.00000" pt_clust_7="13000.00000" pt_clust_8="13000.00000" pt_clust_9="46.87471"></scales>
<clustering>
<clus scale="   46.875">  1  9  2 -1</clus>
<clus scale="   79.326">  5  6 -1 -1</clus>
<clus scale="   89.705">  7  8 -1 -1</clus>
<clus scale="  223.491">  1  5  2 -1</clus>
<clus scale="   46.875">  1  5  2 -1</clus>
</clustering>
</event>
<event>
 9    1  0.2674825E-005  0.9044174E+02  0.7546771E-02  0.1302841E+00
          1   -1    0    0  502    0  0.00000000000E+00  0.00000000000E+00  0.26626446516E+03  0.26626446516E+03  0.00000000000E+00 0. -1.
         -2   -1    0    0    0  501 -0.00000000000E+00 -0.00000000000E+00 -0.14201738302E+03  0.14201738302E+03  0.00000000000E+00 0.  1.
        -24    2    1    2    0    0  0.66838491999E+02  0.44607645007E+02 -0.84630264815E+02  0.14194430271E+03  0.80800231094E+02 0.  0.
         23    2    1    2    0    0 -0.27759893920E+02 -0.17718735210E+02  0.19883187681E+03  0.21784979682E+03  0.82703406527E+02 0.  0.
         13    1    3    3    0    0 -0.10432724999E+02  0.26759583509E+02 -0.42630810267E+01  0.29036027971E+02  0.00000000000E+00 0. -1.
        -14    1    3    3    0    0  0.77271216998E+02  0.17848061498E+02 -0.80367183788E+02  0.11290827474E+03  0.00000000000E+00 0.  1.
        -11    1    4    4    0    0 -0.64749186578E+01  0.33053354859E+02  0.84070361639E+02  0.90566409585E+02  0.00000000000E+00 0.  1.
         11    1    4    4    0    0 -0.21284975262E+02 -0.50772090069E+02  0.11476151517E+03  0.12728338723E+03  0.00000000000E+00 0. -1.
         21    1    1    2  502  501 -0.39078598079E+02 -0.26888909797E+02  0.10045470152E+02  0.48487748643E+02  0.00000000000E+00 0. -1.
<scales pt_clust_5="13000.00000" pt_clust_6="13000.00000" pt_clust_7="13000.00000" pt_clust_8="13000.00000" pt_clust_9="47.43575"></scales>
<clustering>
<clus scale="   47.436">  2  9  1 -1</clus>
<clus scale="   80.800">  5  6 -1 -1</clus>
<clus scale="   82.703">  7  8 -1 -1</clus>
<clus scale="   88.705">  2  5  1 -1</clus>
<clus scale="   90.442">  1  5  2 -1</clus>
</clustering>
</event>
<event>
 9    1  0.2674825E-005  0.1013554E+03  0.7546771E-02  0.1279721E+00
         -2   -1    0    0    0  501 -0.00000000000E+00  0.00000000000E+00  0.22386695206E+03  0.22386695206E+03  0.00000000000E+00 0.  1.
          1   -1    0    0  502    0  0.00000000000E+00 -0.00000000000E+00 -0.15996962024E+03  0.15996962024E+03  0.00000000000E+00 0. -1.
         23    2    1    2    0    0  0.39124878531E+02  0.51051166581E+01  0.18574790976E+03  0.21185983272E+03  0.93944049322E+02 0.  0.
        -24    2    1    2    0    0 -0.23343447038E+02 -0.23200687840E+02 -0.82996750444E+02  0.12630264201E+03  0.89334810457E+02 0.  0.
         13    1    4    4    0    0 -0.36993392699E+02  0.33810281751E+01 -0.88444078936E+02  0.95928606546E+02  0.00000000000E+00 0. -1.
        -14    1    4    4    0    0  0.13649945662E+02 -0.26581716015E+02  0.54473284922E+01  0.30374035468E+02  0.00000000000E+00 0.  1.
        -11    1    3    3    0    0  0.49831141898E+02 -0.34173434426E+02  0.98046797616E+02  0.11517005186E+03  0.00000000000E+00 0. -1.
         11    1    3    3    0    0 -0.10706263367E+02  0.39278551084E+02  0.87701112147E+02  0.96689780858E+02  0.00000000000E+00 0.  1.
         21    1    1    2  502  501 -0.15781431493E+02  0.18095571182E+02 -0.38853827506E+02  0.45674097563E+02  0.00000000000E+00 0. -1.
<scales pt_clust_5="13000.00000" pt_clust_6="13000.00000" pt_clust_7="13000.00000" pt_clust_8="13000.00000" pt_clust_9="24.01048"></scales>
<clustering>
<clus scale="   24.010">  2  9  1 -1</clus>
<clus scale="   89.335">  5  6 -1 -1</clus>
<clus scale="   93.944">  7  8 -1 -1</clus>
<clus scale="   97.099">  2  5  1 -1</clus>
<clus scale="   24.010">  2  5  1 -1</clus>
</clustering>
</event>
<event>
 9    1  0.2674825E-005  0.1791634E+03  0.7546771E-02  0.1169488E+00
         -2   -1    0    0    0  501 -0.00000000000E+00  0.00000000000E+00  0.29627982635E+03  0.29627982635E+03  0.00000000000E+00 0.  1.
          1   -1    0    0  502    0  0.00000000000E+00 -0.00000000000E+00 -0.84820953868E+03  0.84820953868E+03  0.00000000000E+00 0. -1.
         23    2    1    2    0    0  0.13256177373E+03  0.84425268341E+02  0.25703720207E+03  0.31374098886E+03  0.87550185924E+02 0.  0.
        -24    2    1    2    0    0 -0.12404424211E+03 -0.60829268314E+02 -0.62471395759E+03  0.64479550135E+03  0.80040838767E+02 0.  0.
         13    1    4    4    0    0 -0.13155414659E+03 -0.53117047128E+02 -0.50355268054E+03  0.52315697096E+03  0.00000000000E+00 0. -1.
        -14    1    4    4    0    0  0.75099044714E+01 -0.77122211859E+01 -0.12116127705E+03  0.12163853040E+03  0.00000000000E+00 0.  1.
        -13    1    3    3    0    0  0.11158676801E+03  0.57918581709E+02  0.12440521194E+03  0.17686951591E+03  0.00000000000E+00 0. -1.
         13    1    3    3    0    0  0.20975005722E+02  0.26506686632E+02  0.13263199013E+03  0.13687147295E+03  0.00000000000E+00 0.  1.
         21    1    1    2  502  501 -0.85175316191E+01 -0.23596000028E+02 -0.18425295680E+03  0.18595287481E+03  0.00000000000E+00 0. -1.
<scales pt_clust_5="13000.00000" pt_clust_6="13000.00000" pt_clust_7="13000.00000" pt_clust_8="13000.00000" pt_clust_9="25.08624"></scales>
<clustering>
<clus scale="   25.086">  2  9  1 -1</clus>
<clus scale="   80.041">  5  6 -1 -1</clus>
<clus scale="   87.550">  7  8 -1 -1</clus>
<clus scale="  175.616">  2  5  1 -1</clus>
<clus scale="   25.086">  2  5  1 -1</clus>
</clustering>
</event>
<event>
 9    1  0.2674825E-005  0.1321218E+03  0.7546771E-02  0.1226281E+00
          1   -1    0    0  502    0  0.00000000000E+00  0.00000000000E+00  0.25904297531E+03  0.25904297531E+03  0.00000000000E+00 0. -1.
         -2   -1    0    0    0  501 -0.00000000000E+00 -0.00000000000E+00 -0.37874767765E+03  0.37874767765E+03  0.00000000000E+00 0.  1.
        -24    2    1    2    0    0 -0.46263884084E+02  0.91286592079E+02 -0.31257611081E+03  0.33855064319E+03  0.80244152972E+02 0.  0.
         23    2    1    2    0    0  0.35999669627E+02 -0.17450677239E+02  0.20208685335E+03  0.22412662320E+03  0.88278788946E+02 0.  0.
         11    1    3    3    0    0  0.98187574565E+01  0.30546446223E+02 -0.17601007891E+03  0.17891070748E+03  0.00000000000E+00 0. -1.
        -12    1    3    3    0    0 -0.56082641540E+02  0.60740145856E+02 -0.13656603191E+03  0.15963993570E+03  0.00000000000E+00 0.  1.
        -13    1    4    4    0    0  0.59225036543E+02 -0.33468759321E+02  0.15433958812E+03  0.16866674618E+03  0.00000000000E+00 0. -1.
         13    1    4    4    0    0 -0.23225366916E+02  0.16018082082E+02  0.47747265231E+02  0.55459877019E+02  0.00000000000E+00 0.  1.
         21    1    1    2  502  501  0.10264214457E+02 -0.73835914839E+02 -0.92154448778E+01  0.75113386576E+02  0.00000000000E+00 0. -1.
<scales pt_clust_5="13000.00000" pt_clust_6="13000.00000" pt_clust_7="13000.00000" pt_clust_8="13000.00000" pt_clust_9="74.54593"></scales>
<clustering>
<clus scale="   74.546">  1  9  2 -1</clus>
<clus scale="   80.244">  5  6 -1 -1</clus>
<clus scale="   88.279">  7  8 -1 -1</clus>
<clus scale="  126.894">  2  5  1 -1</clus>
<clus scale="   74.546">  1  5  2 -1</clus>
</clustering>
</event>
<event>
 9    1  0.2674825E-005  0.2652809E+03  0.7546771E-02  0.1104503E+00
         -4   -1    0    0    0  501 -0.00000000000E+00  0.00000000000E+00  0.42145901248E+03  0.42145901248E+03  0.00000000000E+00 0.  1.
          3   -1    0    0  502    0  0.00000000000E+00 -0.00000000000E+00 -0.40084404687E+03  0.40084404687E+03  0.00000000000E+00 0. -1.
         23    2    1    2    0    0  0.23884010687E+03  0.64070930299E+02  0.30431210026E+03  0.40252755412E+03  0.90955465490E+02 0.  0.
        -24    2    1    2    0    0 -0.26022019414E+03 -0.37297374989E+02 -0.24813057345E+03  0.37039016662E+03  0.80712145461E+02 0.  0.
         11    1    4    4    0    0 -0.96378741318E+02 -0.52462847478E+02 -0.86307142151E+02  0.13960707335E+03  0.00000000000E+00 0. -1.
        -12    1    4    4    0    0 -0.16384145282E+03  0.15165472489E+02 -0.16182343130E+03  0.23078309326E+03  0.00000000000E+00 0.  1.
        -11    1    3    3    0    0  0.84095167389E+02  0.54996856978E+02  0.73501712165E+02  0.12449559489E+03  0.00000000000E+00 0. -1.
         11    1    3    3    0    0  0.15474493948E+03  0.90740733208E+01  0.23081038809E+03  0.27803195923E+03  0.00000000000E+00 0.  1.
         21    1    1    2  502  501  0.21380087269E+02 -0.26773555310E+02 -0.35566561189E+02  0.49385338618E+02  0.00000000000E+00 0.  1.
<scales pt_clust_5="13000.00000" pt_clust_6="13000.00000" pt_clust_7="13000.00000" pt_clust_8="13000.00000" pt_clust_9="34.26268"></scales>
<clustering>
<clus scale="   34.263">  2  9  1 -1</clus>
<clus scale="   80.712">  5  6 -1 -1</clus>
<clus scale="   90.955">  7  8 -1 -1</clus>
<clus scale="  261.946">  2  5  1 -1</clus>
<clus scale="   34.263">  2  5  1 -1</clus>
</clustering>
</event>
<event>
 9    1  0.2674825E-005  0.9063251E+02  0.7546771E-02  0.1306882E+00
         -2   -1    0    0    0  501 -0.00000000000E+00  0.00000000000E+00  0.82571084640E+02  0.82571084640E+02  0.00000000000E+00 0.  1.
          1   -1    0    0  502    0  0.00000000000E+00 -0.00000000000E+00 -0.31956484262E+03  0.31956484262E+03  0.00000000000E+00 0. -1.
        -24    2    1    2    0    0 -0.52120134833E+01 -0.96719334329E+00  0.45103740337E+02  0.93416311832E+02  0.81634302694E+02 0.  0.
         23    2    1    2    0    0  0.29006674354E+00  0.29465406589E+02 -0.19519166411E+03  0.21712814346E+03  0.90424281144E+02 0.  0.
         13    1    3    3    0    0  0.23177530560E+02 -0.39567685789E+01 -0.14292691082E+02  0.27516085456E+02  0.00000000000E+00 0. -1.
        -14    1    3    3    0    0 -0.28389544043E+02  0.29895752356E+01  0.59396431420E+02  0.65900226376E+02  0.00000000000E+00 0.  1.
        -13    1    4    4    0    0  0.41884346593E+02  0.49311305549E+01 -0.12505086331E+03  0.13197095496E+03  0.00000000000E+00 0. -1.
         13    1    4    4    0    0 -0.41594279850E+02  0.24534276034E+02 -0.70140800804E+02  0.85157188505E+02  0.00000000000E+00 0.  1.
         21    1    1    2  502  501  0.49219467398E+01 -0.28498213246E+02 -0.86905834207E+02  0.91591471968E+02  0.00000000000E+00 0. -1.
<scales pt_clust_5="13000.00000" pt_clust_6="13000.00000" pt_clust_7="13000.00000" pt_clust_8="13000.00000" pt_clust_9="28.92013"></scales>
<clustering>
<clus scale="   28.920">  2  9  1 -1</clus>
<clus scale="   81.634">  5  6 -1 -1</clus>
<clus scale="   81.865">  1  5  2 -1</clus>
<clus scale="   90.424">  7  8 -1 -1</clus>
<clus scale="   28.920">  2  5  1 -1</clus>
</clustering>
</event>
<event>
 9    1  0.2674825E-005  0.1524663E+03  0.7546771E-02  0.1200413E+00
          1   -1    0    0  502    0  0.00000000000E+00  0.00000000000E+00  0.26601139761E+03  0.26601139761E+03  0.00000000000E+00 0. -1.
         -2   -1    0    0    0  501 -0.00000000000E+00 -0.00000000000E+00 -0.14692871131E+03  0.14692871131E+03  0.00000000000E+00 0.  1.
        -24    2    1    2    0    0 -0.59572599508E+02 -0.99434138574E+02 -0.53929534477E+02  0.15064623024E+03  0.79685942743E+02 0.  0.
         23    2    1    2    0    0  0.92297185832E+02  0.95142418104E+02  0.15183541867E+03  0.22307941244E+03  0.95601148816E+02 0.  0.
         11    1    3    3    0    0  0.31154224799E+01 -0.46837415818E+02 -0.50204826490E+02  0.68731171827E+02  0.00000000000E+00 0. -1.
        -12    1    3    3    0    0 -0.62688021988E+02 -0.52596722756E+02 -0.37247079862E+01  0.81915058414E+02  0.00000000000E+00 0.  1.
        -11    1    4    4    0    0  0.63738389617E+02  0.37440007051E+00  0.69805226908E+02  0.94527732386E+02  0.00000000000E+00 0.  1.
         11    1    4    4    0    0  0.28558796215E+02  0.94768018033E+02  0.82030191765E+02  0.12855168005E+03  0.00000000000E+00 0. -1.
         21    1    1    2  502  501 -0.32724586324E+02  0.42917204702E+01  0.21176802103E+02  0.39214466234E+02  0.00000000000E+00 0.  1.
<scales pt_clust_5="13000.00000" pt_clust_6="13000.00000" pt_clust_7="13000.00000" pt_clust_8="13000.00000" pt_clust_9="33.00481"></scales>
<clustering>
<clus scale="   33.005">  1  9  2 -1</clus>
<clus scale="   79.686">  5  6 -1 -1</clus>
<clus scale="   95.601">  7  8 -1 -1</clus>
<clus scale="  143.025">  2  5  1 -1</clus>
<clus scale="   33.005">  1  5  2 -1</clus>
</clustering>
</event>
<event>
 9    1  0.2674825E-005  0.1550524E+03  0.7546771E-02  0.1199129E+00
          1   -1    0    0  502    0  0.00000000000E+00  0.00000000000E+00  0.24561648695E+03  0.24561648695E+03  0.00000000000E+00 0. -1.
         -2   -1    0    0    0  501 -0.00000000000E+00 -0.00000000000E+00 -0.17321567205E+03  0.17321567205E+03  0.00000000000E+00 0.  1.
        -24    2    1    2    0    0  0.67759287122E+02  0.10007467449E+03 -0.92526781460E+02  0.17159076673E+03  0.79220732602E+02 0.  0.
         23    2    1    2    0    0 -0.46946744777E+02 -0.85021804974E+02  0.90442982683E+02  0.16845237987E+03  0.10374761202E+03 0.  0.
         11    1    3    3    0    0  0.40623087077E+02  0.67426123288E+02 -0.10746855335E+02  0.79448173075E+02  0.00000000000E+00 0. -1.
        -12    1    3    3    0    0  0.27136200045E+02  0.32648551204E+02 -0.81779926125E+02  0.92142593656E+02  0.00000000000E+00 0.  1.
        -11    1    4    4    0    0 -0.91167025708E+01 -0.79821396089E+02  0.10078748592E+03  0.12889021242E+03  0.00000000000E+00 0. -1.
         11    1    4    4    0    0 -0.37830042206E+02 -0.52004088853E+01 -0.10344503237E+02  0.39562167447E+02  0.00000000000E+00 0.  1.
         21    1    1    2  502  501 -0.20812542345E+02 -0.15052869518E+02  0.74484613685E+02  0.78789012403E+02  0.00000000000E+00 0.  1.
<scales pt_clust_5="13000.00000" pt_clust_6="13000.00000" pt_clust_7="13000.00000" pt_clust_8="13000.00000" pt_clust_9="25.68561"></scales>
<clustering>
<clus scale="   25.686">  1  9  2 -1</clus>
<clus scale="   79.221">  5  6 -1 -1</clus>
<clus scale="  103.748">  7  8 -1 -1</clus>
<clus scale="  139.834">  2  5  1 -1</clus>
<clus scale="   25.686">  1  5  2 -1</clus>
</clustering>
</event>
<event>
 9    1  0.2674825E-005  0.9463315E+02  0.7546771E-02  0.1296245E+00
         -2   -1    0    0    0  501 -0.00000000000E+00  0.00000000000E+00  0.66944723051E+03  0.66944723051E+03  0.00000000000E+00 0.  1.
          1   -1    0    0  502    0  0.00000000000E+00 -0.00000000000E+00 -0.67687441861E+02  0.67687441861E+02  0.00000000000E+00 0. -1.
        -24    2    1    2    0    0  0.36466915202E+02 -0.15694061655E+02  0.50850794235E+03  0.51643041435E+03  0.80894412382E+02 0.  0.
         23    2    1    2    0    0 -0.22887859397E+01 -0.65338365523E+02  0.67110631926E+02  0.12895589638E+03  0.88608384165E+02 0.  0.
         11    1    3    3    0    0 -0.20181291543E+02  0.15435370577E+02  0.13474925103E+03  0.13712365167E+03  0.00000000000E+00 0. -1.
        -12    1    3    3    0    0  0.56648206744E+02 -0.31129432232E+02  0.37375869133E+03  0.37930676269E+03  0.00000000000E+00 0.  1.
        -11    1    4    4    0    0 -0.12990922849E+02 -0.21414386111E+02  0.78445981904E+02  0.82347508073E+02  0.00000000000E+00 0.  1.
         11    1    4    4    0    0  0.10702136909E+02 -0.43923979413E+02 -0.11335349978E+02  0.46608388311E+02  0.00000000000E+00 0. -1.
         21    1    1    2  502  501 -0.34178129262E+02  0.81032427179E+02  0.26141214371E+02  0.91748361637E+02  0.00000000000E+00 0.  1.
<scales pt_clust_5="13000.00000" pt_clust_6="13000.00000" pt_clust_7="13000.00000" pt_clust_8="13000.00000" pt_clust_9="87.94543"></scales>
<clustering>
<clus scale="   80.894">  5  6 -1 -1</clus>
<clus scale="   87.945">  2  9  1 -1</clus>
<clus scale="   87.452">  1  5  2 -1</clus>
<clus scale="   88.608">  7  8 -1 -1</clus>
<clus scale="   87.945">  2  5  1 -1</clus>
</clustering>
</event>
<event>
 9    1  0.2674825E-005  0.1104500E+03  0.7546771E-02  0.1265512E+00
         -2   -1    0    0    0  501 -0.00000000000E+00  0.00000000000E+00  0.14060964197E+03  0.14060964197E+03  0.00000000000E+00 0.  1.
          1   -1    0    0  502    0  0.00000000000E+00 -0.00000000000E+00 -0.19401887966E+03  0.19401887966E+03  0.00000000000E+00 0. -1.
         23    2    1    2    0    0 -0.28739608312E+02 -0.37262458252E+02  0.86225144186E+02  0.13653215434E+03  0.94825090548E+02 0.  0.
        -24    2    1    2    0    0  0.94694046743E+01  0.58007255138E+02 -0.13714997879E+03  0.16967349613E+03  0.80774174927E+02 0.  0.
         13    1    4    4    0    0  0.36552401048E+02  0.10152262820E+02 -0.88367111095E+02  0.96165964801E+02  0.00000000000E+00 0. -1.
        -14    1    4    4    0    0 -0.27082996374E+02  0.47854992318E+02 -0.48782867694E+02  0.73507531334E+02  0.00000000000E+00 0.  1.
        -13    1    3    3    0    0  0.13496298923E+02 -0.54640211428E+02  0.28994168321E+02  0.63311646528E+02  0.00000000000E+00 0. -1.
         13    1    3    3    0    0 -0.42235907235E+02  0.17377753176E+02  0.57230975865E+02  0.73220507810E+02  0.00000000000E+00 0.  1.
         21    1    1    2  502  501  0.19270203638E+02 -0.20744796886E+02 -0.24844030815E+01  0.28422871156E+02  0.00000000000E+00 0.  1.
<scales pt_clust_5="13000.00000" pt_clust_6="13000.00000" pt_clust_7="13000.00000" pt_clust_8="13000.00000" pt_clust_9="28.31408"></scales>
<clustering>
<clus scale="   28.314">  1  9  2 -1</clus>
<clus scale="   80.774">  5  6 -1 -1</clus>
<clus scale="   94.825">  7  8 -1 -1</clus>
<clus scale="   98.650">  2  5  1 -1</clus>
<clus scale="   98.650">  2  5  1 -1</clus>
</clustering>
</event>
<event>
 9    1  0.2674825E-005  0.1309114E+03  0.7546771E-02  0.1227729E+00
         -4   -1    0    0    0  501 -0.00000000000E+00  0.00000000000E+00  0.77771430198E+03  0.77771430198E+03  0.00000000000E+00 0.  1.
          3   -1    0    0  502    0  0.00000000000E+00 -0.00000000000E+00 -0.71757733864E+02  0.71757733864E+02  0.00000000000E+00 0. -1.
        -24    2    1    2    0    0  0.27066217298E+02  0.10205032963E+03  0.59303785925E+03  0.60754358780E+03  0.79173598364E+02 0.  0.
         23    2    1    2    0    0 -0.44307895082E+02 -0.87675864409E+02  0.38422544242E+01  0.13056609526E+03  0.85921449865E+02 0.  0.
         11    1    3    3    0    0 -0.26293655554E+02  0.32294100693E+02  0.13961725114E+03  0.14569571743E+03  0.00000000000E+00 0. -1.
        -12    1    3    3    0    0  0.53359872852E+02  0.69756228936E+02  0.45342060810E+03  0.46184787036E+03  0.00000000000E+00 0.  1.
        -13    1    4    4    0    0  0.18863096073E+02 -0.36713256816E+02  0.22887441169E+02  0.47196552658E+02  0.00000000000E+00 0.  1.
         13    1    4    4    0    0 -0.63170991155E+02 -0.50962607593E+02 -0.19045186745E+02  0.83369542606E+02  0.00000000000E+00 0. -1.
         21    1    1    2  502  501  0.17241677783E+02 -0.14374465220E+02  0.10907645444E+03  0.11136235278E+03  0.00000000000E+00 0.  1.
<scales pt_clust_5="13000.00000" pt_clust_6="13000.00000" pt_clust_7="13000.00000" pt_clust_8="13000.00000" pt_clust_9="22.44773"></scales>
<clustering>
<clus scale="   22.448">  1  9  2 -1</clus>
<clus scale="   79.174">  5  6 -1 -1</clus>
<clus scale="   85.921">  7  8 -1 -1</clus>
<clus scale="  126.585">  1  5  2 -1</clus>
<clus scale="  130.911">  2  5  1 -1</clus>
</clustering>
</event>
<event>
 9    1  0.2674825E-005  0.1206610E+03  0.7546771E-02  0.1246003E+00
         -2   -1    0    0    0  501 -0.00000000000E+00  0.00000000000E+00  0.17316818044E+03  0.17316818044E+03  0.00000000000E+00 0.  1.
          1   -1    0    0  502    0  0.00000000000E+00 -0.00000000000E+00 -0.16445576224E+03  0.16445576224E+03  0.00000000000E+00 0. -1.
        -24    2    1    2    0    0 -0.18841438109E+02  0.69139562168E+02  0.79692228320E+02  0.13401985017E+03  0.80468566146E+02 0.  0.
         23    2    1    2    0    0  0.42195440591E+02 -0.80809830129E+02 -0.23999216278E+01  0.13022285723E+03  0.92959932604E+02 0.  0.
         13    1    3    3    0    0 -0.31076891883E+02  0.11211637090E+01  0.37238199794E+01  0.31319276052E+02  0.00000000000E+00 0. -1.
        -14    1    3    3    0    0  0.12235453774E+02  0.68018398459E+02  0.75968408340E+02  0.10270057412E+03  0.00000000000E+00 0.  1.
        -11    1    4    4    0    0  0.43358076137E+01 -0.38113464425E+02  0.42764840013E+02  0.57447949828E+02  0.00000000000E+00 0.  1.
         11    1    4    4    0    0  0.37859632977E+02 -0.42696365705E+02 -0.45164761641E+02  0.72774907404E+02  0.00000000000E+00 0. -1.
         21    1    1    2  502  501 -0.23354002482E+02  0.11670267962E+02 -0.68579888486E+02  0.73381235278E+02  0.00000000000E+00 0.  1.
<scales pt_clust_5="13000.00000" pt_clust_6="13000.00000" pt_clust_7="13000.00000" pt_clust_8="13000.00000" pt_clust_9="26.10756"></scales>
<clustering>
<clus scale="   26.108">  2  9  1 -1</clus>
<clus scale="   80.469">  5  6 -1 -1</clus>
<clus scale="   92.960">  7  8 -1 -1</clus>
<clus scale="  111.323">  1  5  2 -1</clus>
<clus scale="   26.108">  2  5  1 -1</clus>
</clustering>
</event>
<event>
 9    1  0.2674825E-005  0.9485216E+02  0.7546771E-02  0.1297169E+00
         -2   -1    0    0    0  501 -0.00000000000E+00  0.00000000000E+00  0.24822101668E+03  0.24822101668E+03  0.00000000000E+00 0.  1.
          1   -1    0    0  502    0  0.00000000000E+00 -0.00000000000E+00 -0.68014379807E+02  0.68014379807E+02  0.00000000000E+00 0. -1.
        -24    2    1    2    0    0  0.11861024200E+01  0.32906275627E+02  0.16319678681E+03  0.18493651210E+03  0.80523862724E+02 0.  0.
         23    2    1    2    0    0 -0.25688049068E+02 -0.90086309526E+01  0.21060948795E+02  0.96833623455E+02  0.90510528508E+02 0.  0.
         13    1    3    3    0    0 -0.16525475546E+02  0.34737352013E+02  0.25634565166E+02  0.46226679506E+02  0.00000000000E+00 0. -1.
        -14    1    3    3    0    0  0.17711577966E+02 -0.18310763854E+01  0.13756222164E+03  0.13870983259E+03  0.00000000000E+00 0.  1.
        -13    1    4    4    0    0 -0.21235849137E+02  0.20528045737E+02  0.48164586108E+02  0.56499462876E+02  0.00000000000E+00 0.  1.
         13    1    4    4    0    0 -0.44521999311E+01 -0.29536676689E+02 -0.27103637313E+02  0.40334160580E+02  0.00000000000E+00 0. -1.
         21    1    1    2  502  501  0.24501946648E+02 -0.23897644675E+02 -0.40510987258E+01  0.34465260936E+02  0.00000000000E+00 0.  1.
<scales pt_clust_5="13000.00000" pt_clust_6="13000.00000" pt_clust_7="13000.00000" pt_clust_8="13000.00000" pt_clust_9="34.22635"></scales>
<clustering>
<clus scale="   34.226">  2  9  1 -1</clus>
<clus scale="   80.524">  5  6 -1 -1</clus>
<clus scale="   85.375">  1  5  2 -1</clus>
<clus scale="   90.511">  7  8 -1 -1</clus>
<clus scale="   34.226">  2  5  1 -1</clus>
</clustering>
</event>
<event>
 9    1  0.2674825E-005  0.1121069E+03  0.7546771E-02  0.1262873E+00
         -2   -1    0    0    0  501 -0.00000000000E+00  0.00000000000E+00  0.26979283121E+03  0.26979283121E+03  0.00000000000E+00 0.  1.
          1   -1    0    0  502    0  0.00000000000E+00 -0.00000000000E+00 -0.35710347919E+03  0.35710347919E+03  0.00000000000E+00 0. -1.
         23    2    1    2    0    0 -0.17713782134E+02  0.64005467210E+02  0.24466477091E+03  0.26893001954E+03  0.89733089643E+02 0.  0.
        -24    2    1    2    0    0  0.18139011413E+02 -0.84588582539E+02 -0.28379320796E+03  0.30557000372E+03  0.73144994747E+02 0.  0.
         13    1    4    4    0    0  0.33745069675E+02 -0.36560129008E+02 -0.21222144798E+03  0.21797549344E+03  0.00000000000E+00 0. -1.
        -14    1    4    4    0    0 -0.15606058262E+02 -0.48028453532E+02 -0.71571759985E+02  0.87594510276E+02  0.00000000000E+00 0.  1.
        -13    1    3    3    0    0  0.96668923840E+01 -0.20378363477E+02  0.58830441233E+02  0.63005930848E+02  0.00000000000E+00 0. -1.
         13    1    3    3    0    0 -0.27380674517E+02  0.84383830687E+02  0.18583432968E+03  0.20592408870E+03  0.00000000000E+00 0.  1.
         21    1    1    2  502  501 -0.42522927977E+00  0.20583115330E+02 -0.48182210928E+02  0.52396287144E+02  0.00000000000E+00 0. -1.
<scales pt_clust_5="13000.00000" pt_clust_6="13000.00000" pt_clust_7="13000.00000" pt_clust_8="13000.00000" pt_clust_9="20.58751"></scales>
<clustering>
<clus scale="   20.588">  2  9  1 -1</clus>
<clus scale="   73.145">  5  6 -1 -1</clus>
<clus scale="   89.733">  7  8 -1 -1</clus>
<clus scale="   99.328">  2  5  1 -1</clus>
<clus scale="   20.588">  2  5  1 -1</clus>
</clustering>
</event>
<event>
 9    1  0.2674825E-005  0.1284598E+03  0.7546771E-02  0.1241914E+00
          1   -1    0    0  502    0  0.00000000000E+00  0.00000000000E+00  0.25545369776E+03  0.25545369776E+03  0.00000000000E+00 0. -1.
         -2   -1    0    0    0  501 -0.00000000000E+00 -0.00000000000E+00 -0.14787650736E+03  0.14787650736E+03  0.00000000000E+00 0.  1.
         23    2    1    2    0    0 -0.83154772027E+02  0.24693614973E+02 -0.42260341979E+02  0.13337699884E+03  0.92081467098E+02 0.  0.
        -24    2    1    2    0    0  0.19524355331E+02  0.58129134201E+02  0.12919346326E+03  0.16348905599E+03  0.79230825968E+02 0.  0.
         11    1    4    4    0    0  0.34481952348E+02  0.45005013243E+02  0.13174542673E+03  0.14342703273E+03  0.00000000000E+00 0. -1.
        -12    1    4    4    0    0 -0.14957597017E+02  0.13124120958E+02 -0.25519634666E+01  0.20062023253E+02  0.00000000000E+00 0.  1.
        -11    1    3    3    0    0 -0.86070678112E+02 -0.13485753572E+02 -0.37287446835E+02  0.94764871506E+02  0.00000000000E+00 0.  1.
         11    1    3    3    0    0  0.29159060854E+01  0.38179368545E+02 -0.49728951441E+01  0.38612127329E+02  0.00000000000E+00 0. -1.
         21    1    1    2  502  501  0.63630416696E+02 -0.82822749173E+02  0.20644069109E+02  0.10646415030E+03  0.00000000000E+00 0. -1.
<scales pt_clust_5="13000.00000" pt_clust_6="13000.00000" pt_clust_7="13000.00000" pt_clust_8="13000.00000" pt_clust_9="89.57081"></scales>
<clustering>
<clus scale="   79.231">  5  6 -1 -1</clus>
<clus scale="   92.081">  7  8 -1 -1</clus>
<clus scale="  100.188">  1  5  2 -1</clus>
<clus scale="   89.571">  1  9  2 -1</clus>
<clus scale="  100.188">  1  5  2 -1</clus>
</clustering>
</event>
<event>
 9    1  0.2674825E-005  0.2418997E+03  0.7546771E-02  0.1119275E+00
          1   -1    0    0  502    0  0.00000000000E+00  0.00000000000E+00  0.49400150527E+03  0.49400150527E+03  0.00000000000E+00 0. -1.
         -2   -1    0    0    0  501 -0.00000000000E+00 -0.00000000000E+00 -0.23746609644E+03  0.23746609644E+03  0.00000000000E+00 0.  1.
         23    2    1    2    0    0  0.11467643469E+03  0.18764928261E+03 -0.10496691367E+03  0.26090521732E+03  0.93223073978E+02 0.  0.
        -24    2    1    2    0    0 -0.13838558810E+03 -0.19131416291E+03  0.23849092816E+03  0.34523338359E+03  0.80972133524E+02 0.  0.
         11    1    4    4    0    0 -0.74061641938E+02 -0.13006926941E+03  0.97609317071E+02  0.17869169099E+03  0.00000000000E+00 0. -1.
        -12    1    4    4    0    0 -0.64323946159E+02 -0.61244893499E+02  0.14088161109E+03  0.16654169260E+03  0.00000000000E+00 0.  1.
        -11    1    3    3    0    0  0.12445457099E+03  0.13019022251E+03 -0.72186298234E+02  0.19403426484E+03  0.00000000000E+00 0.  1.
         11    1    3    3    0    0 -0.97781363068E+01  0.57459060105E+02 -0.32780615433E+02  0.66870952483E+02  0.00000000000E+00 0. -1.
         21    1    1    2  502  501  0.23709153410E+02  0.36648802935E+01  0.12301139434E+03  0.12532900080E+03  0.00000000000E+00 0. -1.
<scales pt_clust_5="13000.00000" pt_clust_6="13000.00000" pt_clust_7="13000.00000" pt_clust_8="13000.00000" pt_clust_9="23.99073"></scales>
<clustering>
<clus scale="   23.991">  1  9  2 -1</clus>
<clus scale="   80.972">  5  6 -1 -1</clus>
<clus scale="   93.223">  7  8 -1 -1</clus>
<clus scale="  237.448">  1  5  2 -1</clus>
<clus scale="   23.991">  1  5  2 -1</clus>
</clustering>
</event>
<event>
 9    1  0.2674825E-005  0.1676213E+03  0.7546771E-02  0.1181385E+00
          1   -1    0    0  502    0  0.00000000000E+00  0.00000000000E+00  0.22984243254E+03  0.22984243254E+03  0.00000000000E+00 0. -1.
         -2   -1    0    0    0  501 -0.00000000000E+00 -0.00000000000E+00 -0.21469169113E+03  0.21469169113E+03  0.00000000000E+00 0.  1.
        -24    2    1    2    0    0  0.95272633529E+02 -0.45259906896E+00 -0.78680466523E+02  0.14812655825E+03  0.81693218215E+02 0.  0.
         23    2    1    2    0    0 -0.15951354271E+03 -0.49585883677E+02  0.10111666182E+03  0.21465292025E+03  0.89151369633E+02 0.  0.
         13    1    3    3    0    0  0.23953776934E+02 -0.10391414611E+02  0.14888743147E+02  0.30057271991E+02  0.00000000000E+00 0. -1.
        -14    1    3    3    0    0  0.71318856595E+02  0.99388155416E+01 -0.93569209670E+02  0.11806928626E+03  0.00000000000E+00 0.  1.
        -11    1    4    4    0    0 -0.13998508505E+03 -0.25823719677E+02  0.11293248585E+03  0.18170425117E+03  0.00000000000E+00 0. -1.
         11    1    4    4    0    0 -0.19528457661E+02 -0.23762164000E+02 -0.11815824030E+02  0.32948669079E+02  0.00000000000E+00 0.  1.
         21    1    1    2  502  501  0.64240909182E+02  0.50038482746E+02 -0.72854538879E+01  0.81754645167E+02  0.00000000000E+00 0.  1.
<scales pt_clust_5="13000.00000" pt_clust_6="13000.00000" pt_clust_7="13000.00000" pt_clust_8="13000.00000" pt_clust_9="81.42938"></scales>
<clustering>
<clus scale="   81.429">  2  9  1 -1</clus>
<clus scale="   81.693">  5  6 -1 -1</clus>
<clus scale="   89.151">  7  8 -1 -1</clus>
<clus scale="  163.776">  2  5  1 -1</clus>
<clus scale="  167.621">  1  5  2 -1</clus>
</clustering>
</event>
<event>
 9    1  0.2674825E-005  0.1455748E+03  0.7546771E-02  0.1208655E+00
          1   -1    0    0  502    0  0.00000000000E+00  0.00000000000E+00  0.38322045766E+03  0.38322045766E+03  0.00000000000E+00 0. -1.
         -2   -1    0    0    0  501 -0.00000000000E+00 -0.00000000000E+00 -0.19232977101E+03  0.19232977101E+03  0.00000000000E+00 0.  1.
        -24    2    1    2    0    0  0.19115193035E+02  0.10875396666E+03 -0.12599266281E+03  0.18485405702E+03  0.78128454784E+02 0.  0.
         23    2    1    2    0    0 -0.58481122051E+02 -0.12309586877E+03  0.16344170905E+03  0.23163736638E+03  0.91487937462E+02 0.  0.
         11    1    3    3    0    0 -0.17736648969E+02  0.81686088571E+02 -0.10588642556E+03  0.13490419156E+03  0.00000000000E+00 0. -1.
        -12    1    3    3    0    0  0.36851842004E+02  0.27067878091E+02 -0.20106237247E+02  0.49949865462E+02  0.00000000000E+00 0.  1.
        -13    1    4    4    0    0 -0.34820067790E+02 -0.50431088033E+02  0.12634592558E+02  0.62572875035E+02  0.00000000000E+00 0.  1.
         13    1    4    4    0    0 -0.23661054261E+02 -0.72664780734E+02  0.15080711649E+03  0.16906449134E+03  0.00000000000E+00 0. -1.
         21    1    1    2  502  501  0.39365929016E+02  0.14341902106E+02  0.15344164041E+03  0.15905880527E+03  0.00000000000E+00 0.  1.
<scales pt_clust_5="13000.00000" pt_clust_6="13000.00000" pt_clust_7="13000.00000" pt_clust_8="13000.00000" pt_clust_9="41.89709"></scales>
<clustering>
<clus scale="   41.897">  1  9  2 -1</clus>
<clus scale="   78.128">  5  6 -1 -1</clus>
<clus scale="   91.488">  7  8 -1 -1</clus>
<clus scale="  137.572">  2  5  1 -1</clus>
<clus scale="   41.897">  1  5  2 -1</clus>
</clustering>
</event>
<event>
 9    1  0.2674825E-005  0.1309385E+03  0.7546771E-02  0.1230105E+00
         -2   -1    0    0    0  501 -0.00000000000E+00  0.00000000000E+00  0.36470034441E+03  0.36470034441E+03  0.00000000000E+00 0.  1.
          1   -1    0    0  502    0  0.00000000000E+00 -0.00000000000E+00 -0.17534883924E+03  0.17534883924E+03  0.00000000000E+00 0. -1.
         23    2    1    2    0    0  0.72646050569E+02  0.59927767129E+02  0.32274022767E+03  0.34894168641E+03  0.93435860474E+02 0.  0.
        -24    2    1    2    0    0 -0.42197043389E+02 -0.57655012914E+02 -0.96339098888E+02  0.14309726854E+03  0.78044316274E+02 0.  0.
         11    1    4    4    0    0 -0.32239077763E+02 -0.63962894623E+02 -0.10594824548E+03  0.12788917368E+03  0.00000000000E+00 0. -1.
        -12    1    4    4    0    0 -0.99579656261E+01  0.63078817085E+01  0.96091465902E+01  0.15208094859E+02  0.00000000000E+00 0.  1.
        -11    1    3    3    0    0  0.40211511507E+02  0.75479287403E+02  0.28156935055E+03  0.29427094259E+03  0.00000000000E+00 0.  1.
         11    1    3    3    0    0  0.32434539062E+02 -0.15551520274E+02  0.41170877120E+02  0.54670743820E+02  0.00000000000E+00 0. -1.
         21    1    1    2  502  501 -0.30449007180E+02 -0.22727542151E+01 -0.37049623614E+02  0.48010228701E+02  0.00000000000E+00 0.  1.
<scales pt_clust_5="13000.00000" pt_clust_6="13000.00000" pt_clust_7="13000.00000" pt_clust_8="13000.00000" pt_clust_9="30.53371"></scales>
<clustering>
<clus scale="   30.534">  2  9  1 -1</clus>
<clus scale="   78.044">  5  6 -1 -1</clus>
<clus scale="   93.436">  7  8 -1 -1</clus>
<clus scale="  120.439">  2  5  1 -1</clus>
<clus scale="   30.534">  2  5  1 -1</clus>
</clustering>
</event>
<event>
 9    1  0.2674825E-005  0.9580723E+02  0.7546771E-02  0.1292352E+00
          1   -1    0    0  502    0  0.00000000000E+00  0.00000000000E+00  0.11787888321E+03  0.11787888321E+03  0.00000000000E+00 0. -1.
         -2   -1    0    0    0  501 -0.00000000000E+00 -0.00000000000E+00 -0.14445234829E+03  0.14445234829E+03  0.00000000000E+00 0.  1.
        -24    2    1    2    0    0 -0.50874658792E+02  0.13909722264E+02 -0.81424010452E+02  0.12419023407E+03  0.77534724353E+02 0.  0.
         23    2    1    2    0    0  0.26945414300E+02 -0.21299606078E+02  0.15739409071E+02  0.91698558788E+02  0.83553384821E+02 0.  0.
         13    1    3    3    0    0 -0.66037985783E+02  0.40395115561E+01 -0.36057607586E+02  0.75349082839E+02  0.00000000000E+00 0. -1.
        -14    1    3    3    0    0  0.15163326991E+02  0.98702107084E+01 -0.45366402866E+02  0.48841151234E+02  0.00000000000E+00 0.  1.
        -13    1    4    4    0    0  0.50695657284E+02  0.92220045382E+01  0.11481896003E+02  0.52791372126E+02  0.00000000000E+00 0.  1.
         13    1    4    4    0    0 -0.23750242984E+02 -0.30521610616E+02  0.42575130686E+01  0.38907186662E+02  0.00000000000E+00 0. -1.
         21    1    1    2  502  501  0.23929244492E+02  0.73898838136E+01  0.39111136296E+02  0.46442438643E+02  0.00000000000E+00 0.  1.
<scales pt_clust_5="13000.00000" pt_clust_6="13000.00000" pt_clust_7="13000.00000" pt_clust_8="13000.00000" pt_clust_9="25.04434"></scales>
<clustering>
<clus scale="   25.044">  1  9  2 -1</clus>
<clus scale="   77.535">  5  6 -1 -1</clus>
<clus scale="   83.553">  7  8 -1 -1</clus>
<clus scale="   90.606">  2  5  1 -1</clus>
<clus scale="   25.044">  1  5  2 -1</clus>
</clustering>
</event>
<event>
 9    1  0.2674825E-005  0.1046917E+03  0.7546771E-02  0.1278106E+00
          3   -1    0    0  502    0  0.00000000000E+00  0.00000000000E+00  0.92499553082E+02  0.92499553082E+02  0.00000000000E+00 0. -1.
         -4   -1    0    0    0  501 -0.00000000000E+00 -0.00000000000E+00 -0.40128823577E+03  0.40128823577E+03  0.00000000000E+00 0.  1.
         23    2    1    2    0    0 -0.35025733437E+02  0.26291838533E+02 -0.35035792157E+03  0.36583268426E+03  0.95733050154E+02 0.  0.
        -24    2    1    2    0    0  0.36471486096E+02  0.13954845445E+01  0.46531227236E+02  0.99789533615E+02  0.80378350542E+02 0.  0.
         13    1    4    4    0    0  0.37292598602E+02 -0.33528042285E+02  0.40233777746E+02  0.64293268712E+02  0.00000000000E+00 0. -1.
        -14    1    4    4    0    0 -0.82111250573E+00  0.34923526830E+02  0.62974494897E+01  0.35496264903E+02  0.00000000000E+00 0.  1.
        -13    1    3    3    0    0  0.10099100793E+02 -0.30841392392E+02 -0.10490105165E+03  0.10980625646E+03  0.00000000000E+00 0. -1.
         13    1    3    3    0    0 -0.45124834231E+02  0.57133230924E+02 -0.24545686992E+03  0.25602642780E+03  0.00000000000E+00 0.  1.
         21    1    1    2  502  501 -0.14457526589E+01 -0.27687323077E+02 -0.49619883547E+01  0.28165570976E+02  0.00000000000E+00 0. -1.
<scales pt_clust_5="13000.00000" pt_clust_6="13000.00000" pt_clust_7="13000.00000" pt_clust_8="13000.00000" pt_clust_9="27.72504"></scales>
<clustering>
<clus scale="   27.725">  1  9  2 -1</clus>
<clus scale="   80.378">  5  6 -1 -1</clus>
<clus scale="   90.864">  1  5  2 -1</clus>
<clus scale="   95.733">  7  8 -1 -1</clus>
<clus scale="   27.725">  1  5  2 -1</clus>
</clustering>
</event>
<event>
 9    1  0.2674825E-005  0.1015442E+03  0.7546771E-02  0.1281843E+00
         -2   -1    0    0    0  501 -0.00000000000E+00  0.00000000000E+00  0.21815391545E+02  0.21815391545E+02  0.00000000000E+00 0.  1.
          1   -1    0    0  502    0  0.00000000000E+00 -0.00000000000E+00 -0.91432019149E+03  0.91432019149E+03  0.00000000000E+00 0. -1.
         23    2    1    2    0    0 -0.52721375366E+01  0.47942475571E+02 -0.19676181171E+03  0.22186450215E+03  0.90456455657E+02 0.  0.
        -24    2    1    2    0    0  0.50124987105E+02 -0.27800796586E+02 -0.30873077493E+03  0.32414812770E+03  0.80448236052E+02 0.  0.
         13    1    4    4    0    0 -0.13613431007E+01 -0.38744240783E+02 -0.73472447614E+02  0.83073280947E+02  0.00000000000E+00 0. -1.
        -14    1    4    4    0    0  0.51486330206E+02  0.10943444197E+02 -0.23525832731E+03  0.24107484676E+03  0.00000000000E+00 0.  1.
        -13    1    3    3    0    0  0.22199361073E+02 -0.89024814118E+01 -0.12295765105E+02  0.26893338336E+02  0.00000000000E+00 0.  1.
         13    1    3    3    0    0 -0.27471498609E+02  0.56844956982E+02 -0.18446604660E+03  0.19497116381E+03  0.00000000000E+00 0. -1.
         21    1    1    2  502  501 -0.44852849568E+02 -0.20141678985E+02 -0.38701221331E+03  0.39012295318E+03  0.00000000000E+00 0.  1.
<scales pt_clust_5="13000.00000" pt_clust_6="13000.00000" pt_clust_7="13000.00000" pt_clust_8="13000.00000" pt_clust_9="49.16773"></scales>
<clustering>
<clus scale="   49.168">  2  9  1 -1</clus>
<clus scale="   80.448">  5  6 -1 -1</clus>
<clus scale="   90.456">  7  8 -1 -1</clus>
<clus scale="   92.740">  2  5  1 -1</clus>
<clus scale="   49.168">  2  5  1 -1</clus>
</clustering>
</event>
<event>
 9    1  0.2674825E-005  0.1697677E+03  0.7546771E-02  0.1180878E+00
          1   -1    0    0  502    0  0.00000000000E+00  0.00000000000E+00  0.27977995789E+03  0.27977995789E+03  0.00000000000E+00 0. -1.
         -2   -1    0    0    0  501 -0.00000000000E+00 -0.00000000000E+00 -0.39132858714E+03  0.39132858714E+03  0.00000000000E+00 0.  1.
         23    2    1    2    0    0  0.11481317967E+03 -0.86272947466E+02 -0.25039608724E+03  0.30548538130E+03  0.99990149486E+02 0.  0.
        -24    2    1    2    0    0 -0.61677173446E+02  0.11798213289E+03 -0.52467954137E+02  0.16454980767E+03  0.81239741439E+02 0.  0.
         11    1    4    4    0    0 -0.48958088470E+02  0.14264837169E+02 -0.11250497969E+02  0.52220242345E+02  0.00000000000E+00 0. -1.
        -12    1    4    4    0    0 -0.12719084976E+02  0.10371729572E+03 -0.41217456168E+02  0.11232956533E+03  0.00000000000E+00 0.  1.
        -13    1    3    3    0    0  0.64973732702E+02 -0.10283428834E+03 -0.18810467733E+03  0.22400858562E+03  0.00000000000E+00 0. -1.
         13    1    3    3    0    0  0.49839446968E+02  0.16561340874E+02 -0.62291409909E+02  0.81476795679E+02  0.00000000000E+00 0.  1.
         21    1    1    2  502  501 -0.53136006224E+02 -0.31709185421E+02  0.19131541213E+03  0.20107335605E+03  0.00000000000E+00 0. -1.
<scales pt_clust_5="13000.00000" pt_clust_6="13000.00000" pt_clust_7="13000.00000" pt_clust_8="13000.00000" pt_clust_9="61.87817"></scales>
<clustering>
<clus scale="   61.878">  1  9  2 -1</clus>
<clus scale="   81.240">  5  6 -1 -1</clus>
<clus scale="   99.990">  7  8 -1 -1</clus>
<clus scale="  159.446">  1  5  2 -1</clus>
<clus scale="   61.878">  1  5  2 -1</clus>
</clustering>
</event>
<event>
 9    1  0.2674825E-005  0.9341674E+02  0.7546771E-02  0.1302475E+00
         -2   -1    0    0    0  501 -0.00000000000E+00  0.00000000000E+00  0.16256046225E+03  0.16256046225E+03  0.00000000000E+00 0.  1.
          1   -1    0    0  502    0  0.00000000000E+00 -0.00000000000E+00 -0.20530080141E+03  0.20530080141E+03  0.00000000000E+00 0. -1.
         23    2    1    2    0    0  0.73192684962E+01  0.75514184715E+01  0.12064358942E+03  0.15224623780E+03  0.92268335006E+02 0.  0.
        -24    2    1    2    0    0 -0.11456213563E+02 -0.35880459438E+02 -0.55919660816E+02  0.10440253679E+03  0.79713418092E+02 0.  0.
         13    1    4    4    0    0  0.24421865108E+02  0.11177638210E+02 -0.73461555483E+01  0.27844803692E+02  0.00000000000E+00 0. -1.
        -14    1    4    4    0    0 -0.35878078670E+02 -0.47058097648E+02 -0.48573505268E+02  0.76557733100E+02  0.00000000000E+00 0.  1.
        -13    1    3    3    0    0  0.47104862715E+02  0.97971351802E+01  0.89719202104E+02  0.10180563430E+03  0.00000000000E+00 0.  1.
         13    1    3    3    0    0 -0.39785594219E+02 -0.22457167087E+01  0.30924387318E+02  0.50440603504E+02  0.00000000000E+00 0. -1.
         21    1    1    2  502  501  0.41369450666E+01  0.28329040967E+02 -0.10746426777E+03  0.11121248907E+03  0.00000000000E+00 0. -1.
<scales pt_clust_5="13000.00000" pt_clust_6="13000.00000" pt_clust_7="13000.00000" pt_clust_8="13000.00000" pt_clust_9="28.62951"></scales>
<clustering>
<clus scale="   28.630">  2  9  1 -1</clus>
<clus scale="   79.713">  5  6 -1 -1</clus>
<clus scale="   81.040">  2  5  1 -1</clus>
<clus scale="   92.268">  7  8 -1 -1</clus>
<clus scale="   28.630">  2  5  1 -1</clus>
</clustering>
</event>
<event>
 9    1  0.2674825E-005  0.1016179E+03  0.7546771E-02  0.1289709E+00
          1   -1    0    0  502    0  0.00000000000E+00  0.00000000000E+00  0.45497876445E+03  0.45497876445E+03  0.00000000000E+00 0. -1.
         -2   -1    0    0    0  501 -0.00000000000E+00 -0.00000000000E+00 -0.29158171696E+02  0.29158171696E+02  0.00000000000E+00 0.  1.
        -24    2    1    2    0    0 -0.14790931131E+02  0.28489979241E+01  0.75883801641E+02  0.10964616740E+03  0.77698405658E+02 0.  0.
         23    2    1    2    0    0  0.20209230005E+00 -0.24573771368E+02  0.31079429165E+03  0.32740642672E+03  0.99989826756E+02 0.  0.
         11    1    3    3    0    0 -0.10848851691E+01  0.39424438705E+02  0.45115400600E+02  0.59923807575E+02  0.00000000000E+00 0. -1.
        -12    1    3    3    0    0 -0.13706045962E+02 -0.36575440781E+02  0.30768401041E+02  0.49722359827E+02  0.00000000000E+00 0.  1.
        -11    1    4    4    0    0 -0.34825766512E+02  0.22946303554E+02  0.16317325239E+03  0.16841875536E+03  0.00000000000E+00 0.  1.
         11    1    4    4    0    0  0.35027858812E+02 -0.47520074922E+02  0.14762103925E+03  0.15898767136E+03  0.00000000000E+00 0. -1.
         21    1    1    2  502  501  0.14588838831E+02  0.21724773444E+02  0.39142499463E+02  0.47084342024E+02  0.00000000000E+00 0. -1.
<scales pt_clust_5="13000.00000" pt_clust_6="13000.00000" pt_clust_7="13000.00000" pt_clust_8="13000.00000" pt_clust_9="26.16868"></scales>
<clustering>
<clus scale="   26.169">  2  9  1 -1</clus>
<clus scale="   77.698">  5  6 -1 -1</clus>
<clus scale="   79.783">  2  5  1 -1</clus>
<clus scale="   99.990">  7  8 -1 -1</clus>
<clus scale="  101.618">  1  5  2 -1</clus>
</clustering>
</event>
<event>
 9    1  0.2674825E-005  0.9328686E+02  0.7546771E-02  0.1302145E+00
          1   -1    0    0  502    0  0.00000000000E+00  0.00000000000E+00  0.29368061606E+02  0.29368061606E+02  0.00000000000E+00 0. -1.
         -2   -1    0    0    0  501 -0.00000000000E+00 -0.00000000000E+00 -0.64626815280E+03  0.64626815280E+03  0.00000000000E+00 0.  1.
        -24    2    1    2    0    0  0.18859196538E+02  0.85034104204E+01 -0.49414723961E+03  0.50098909110E+03  0.79878643614E+02 0.  0.
         23    2    1    2    0    0  0.67982927304E+01 -0.12671278104E+02 -0.71013525571E+02  0.11674517400E+03  0.91540902149E+02 0.  0.
         11    1    3    3    0    0  0.47773788964E+02 -0.91299639247E+01 -0.28776452683E+03  0.29184604512E+03  0.00000000000E+00 0. -1.
        -12    1    3    3    0    0 -0.28914592426E+02  0.17633374345E+02 -0.20638271278E+03  0.20914304597E+03  0.00000000000E+00 0.  1.
        -11    1    4    4    0    0  0.26804435148E+02 -0.42213231114E+02 -0.18623222400E+02  0.53359713617E+02  0.00000000000E+00 0. -1.
         11    1    4    4    0    0 -0.20006142417E+02  0.29541953010E+02 -0.52390303171E+02  0.63385460387E+02  0.00000000000E+00 0.  1.
         21    1    1    2  502  501 -0.25657489268E+02  0.41678676840E+01 -0.51739326019E+02  0.57901949306E+02  0.00000000000E+00 0. -1.
<scales pt_clust_5="13000.00000" pt_clust_6="13000.00000" pt_clust_7="13000.00000" pt_clust_8="13000.00000" pt_clust_9="25.99380"></scales>
<clustering>
<clus scale="   25.994">  1  9  2 -1</clus>
<clus scale="   79.879">  5  6 -1 -1</clus>
<clus scale="   81.874">  2  5  1 -1</clus>
<clus scale="   91.541">  7  8 -1 -1</clus>
<clus scale="   25.994">  1  5  2 -1</clus>
</clustering>
</event>
<event>
 9    1  0.2674825E-005  0.1021277E+03  0.7546771E-02  0.1280839E+00
         -2   -1    0    0    0  501 -0.00000000000E+00  0.00000000000E+00  0.76182971030E+02  0.76182971030E+02  0.00000000000E+00 0.  1.
          1   -1    0    0  502    0  0.00000000000E+00 -0.00000000000E+00 -0.27225832189E+03  0.27225832189E+03  0.00000000000E+00 0. -1.
         23    2    1    2    0    0  0.49972048474E+02  0.10279941475E+02 -0.15619224161E+02  0.10634720455E+03  0.91993939622E+02 0.  0.
        -24    2    1    2    0    0 -0.20994252792E+02 -0.41691400840E+02 -0.17544876037E+03  0.19906542188E+03  0.81644614765E+02 0.  0.
         13    1    4    4    0    0 -0.48056147267E+02 -0.72591580474E+01 -0.11067472914E+03  0.12087590470E+03  0.00000000000E+00 0. -1.
        -14    1    4    4    0    0  0.27061894475E+02 -0.34432242793E+02 -0.64774031226E+02  0.78189517185E+02  0.00000000000E+00 0.  1.
        -11    1    3    3    0    0  0.29081900790E+01  0.38503104945E+02 -0.30818399606E+02  0.49403647782E+02  0.00000000000E+00 0.  1.
         11    1    3    3    0    0  0.47063858395E+02 -0.28223163470E+02  0.15199175445E+02  0.56943556769E+02  0.00000000000E+00 0. -1.
         21    1    1    2  502  501 -0.28977795683E+02  0.31411459366E+02 -0.50073663327E+01  0.43028666487E+02  0.00000000000E+00 0.  1.
<scales pt_clust_5="13000.00000" pt_clust_6="13000.00000" pt_clust_7="13000.00000" pt_clust_8="13000.00000" pt_clust_9="42.73631"></scales>
<clustering>
<clus scale="   42.736">  1  9  2 -1</clus>
<clus scale="   81.645">  5  6 -1 -1</clus>
<clus scale="   91.994">  7  8 -1 -1</clus>
<clus scale="   92.914">  2  5  1 -1</clus>
<clus scale="   92.914">  2  5  1 -1</clus>
</clustering>
</event>
<event>
 9    1  0.2674825E-005  0.1083897E+03  0.7546771E-02  0.1268374E+00
          1   -1    0    0  502    0  0.00000000000E+00  0.00000000000E+00  0.17030064859E+03  0.17030064859E+03  0.00000000000E+00 0. -1.
         -2   -1    0    0    0  501 -0.00000000000E+00 -0.00000000000E+00 -0.17582918755E+03  0.17582918755E+03  0.00000000000E+00 0.  1.
         23    2    1    2    0    0 -0.60735634312E+02 -0.25327952402E+01 -0.13228191350E+03  0.17174043033E+03  0.91110034810E+02 0.  0.
        -24    2    1    2    0    0  0.44514449518E+02  0.22586852960E+02  0.10350046709E+03  0.13966204236E+03  0.79381592603E+02 0.  0.
         11    1    4    4    0    0  0.49574227344E+02 -0.10798194640E+02  0.30418381883E+02  0.59156428058E+02  0.00000000000E+00 0. -1.
        -12    1    4    4    0    0 -0.50597778256E+01  0.33385047600E+02  0.73082085211E+02  0.80505614299E+02  0.00000000000E+00 0.  1.
        -13    1    3    3    0    0 -0.94830691937E+01  0.37995469658E+02 -0.76026088691E+02  0.85519298860E+02  0.00000000000E+00 0.  1.
         13    1    3    3    0    0 -0.51252565118E+02 -0.40528264898E+02 -0.56255824811E+02  0.86221131470E+02  0.00000000000E+00 0. -1.
         21    1    1    2  502  501  0.16221184794E+02 -0.20054057719E+02  0.23252907448E+02  0.34727363446E+02  0.00000000000E+00 0. -1.
<scales pt_clust_5="13000.00000" pt_clust_6="13000.00000" pt_clust_7="13000.00000" pt_clust_8="13000.00000" pt_clust_9="25.79326"></scales>
<clustering>
<clus scale="   25.793">  1  9  2 -1</clus>
<clus scale="   79.382">  5  6 -1 -1</clus>
<clus scale="   91.110">  7  8 -1 -1</clus>
<clus scale="   98.736">  1  5  2 -1</clus>
<clus scale="   25.793">  1  5  2 -1</clus>
</clustering>
</event>
<event>
 9    1  0.2674825E-005  0.9775966E+02  0.7546771E-02  0.1288728E+00
          3   -1    0    0  502    0  0.00000000000E+00  0.00000000000E+00  0.32903175995E+03  0.32903175995E+03  0.00000000000E+00 0. -1.
         -4   -1    0    0    0  501 -0.00000000000E+00 -0.00000000000E+00 -0.82467373019E+02  0.82467373019E+02  0.00000000000E+00 0.  1.
        -24    2    1    2    0    0  0.22159853754E+02  0.35518223936E+02 -0.33459364414E+02  0.95653029487E+02  0.79229853168E+02 0.  0.
         23    2    1    2    0    0 -0.51040566030E+02 -0.51601611355E+02  0.21934404794E+03  0.24674619540E+03  0.86625676906E+02 0.  0.
         11    1    3    3    0    0  0.38305291501E+02  0.17711367129E+01  0.86667614257E+01  0.39313420557E+02  0.00000000000E+00 0. -1.
        -12    1    3    3    0    0 -0.16145437747E+02  0.33747087223E+02 -0.42126125840E+02  0.56339608930E+02  0.00000000000E+00 0.  1.
        -13    1    4    4    0    0  0.24556464419E+02 -0.16820945897E+02  0.60458801407E+02  0.67388655078E+02  0.00000000000E+00 0.  1.
         13    1    4    4    0    0 -0.75597030449E+02 -0.34780665458E+02  0.15888524654E+03  0.17935754032E+03  0.00000000000E+00 0. -1.
         21    1    1    2  502  501  0.28880712276E+02  0.16083387419E+02  0.60679703400E+02  0.69099908083E+02  0.00000000000E+00 0.  1.
<scales pt_clust_5="13000.00000" pt_clust_6="13000.00000" pt_clust_7="13000.00000" pt_clust_8="13000.00000" pt_clust_9="33.05709"></scales>
<clustering>
<clus scale="   33.057">  1  9  2 -1</clus>
<clus scale="   79.230">  5  6 -1 -1</clus>
<clus scale="   86.626">  7  8 -1 -1</clus>
<clus scale="   91.271">  2  5  1 -1</clus>
<clus scale="   33.057">  1  5  2 -1</clus>
</clustering>
</event>
<event>
 9    1  0.2674825E-005  0.1118026E+03  0.7546771E-02  0.1262670E+00
         -2   -1    0    0    0  501 -0.00000000000E+00  0.00000000000E+00  0.44606961820E+02  0.44606961820E+02  0.00000000000E+00 0.  1.
          1   -1    0    0  502    0  0.00000000000E+00 -0.00000000000E+00 -0.55642205588E+03  0.55642205588E+03  0.00000000000E+00 0. -1.
        -24    2    1    2    0    0 -0.44604019160E+02 -0.34762700544E+02 -0.44257620432E+02  0.10794974352E+03  0.80600535269E+02 0.  0.
         23    2    1    2    0    0  0.48937381239E+02  0.57322659824E+02 -0.29108986394E+03  0.31512268661E+03  0.94277484678E+02 0.  0.
         11    1    3    3    0    0 -0.11232284294E+02 -0.35664834159E+02 -0.60268020908E+02  0.70925164436E+02  0.00000000000E+00 0. -1.
        -12    1    3    3    0    0 -0.33371734866E+02  0.90213361557E+00  0.16010400476E+02  0.37024579085E+02  0.00000000000E+00 0.  1.
        -13    1    4    4    0    0 -0.16931136912E+02  0.49533147223E+02 -0.10040422892E+03  0.11323076108E+03  0.00000000000E+00 0.  1.
         13    1    4    4    0    0  0.65868518151E+02  0.77895126009E+01 -0.19068563502E+03  0.20189192553E+03  0.00000000000E+00 0. -1.
         21    1    1    2  502  501 -0.43333620794E+01 -0.22559959281E+02 -0.17646760969E+03  0.17795658757E+03  0.00000000000E+00 0. -1.
<scales pt_clust_5="13000.00000" pt_clust_6="13000.00000" pt_clust_7="13000.00000" pt_clust_8="13000.00000" pt_clust_9="22.97237"></scales>
<clustering>
<clus scale="   22.972">  2  9  1 -1</clus>
<clus scale="   80.601">  5  6 -1 -1</clus>
<clus scale="   94.277">  7  8 -1 -1</clus>
<clus scale="  100.539">  1  5  2 -1</clus>
<clus scale="   22.972">  2  5  1 -1</clus>
</clustering>
</event>
<event>
 9    1  0.2674825E-005  0.1226530E+03  0.7546771E-02  0.1249663E+00
         -4   -1    0    0    0  501 -0.00000000000E+00  0.00000000000E+00  0.27011317279E+03  0.27011317279E+03  0.00000000000E+00 0.  1.
          3   -1    0    0  502    0  0.00000000000E+00 -0.00000000000E+00 -0.15493751272E+03  0.15493751272E+03  0.00000000000E+00 0. -1.
        -24    2    1    2    0    0 -0.62467390739E+02 -0.27464368982E+02  0.22232821635E+03  0.24370466919E+03  0.72839985787E+02 0.  0.
         23    2    1    2    0    0  0.47162066719E+02  0.11341947070E+01 -0.96890409864E+02  0.14920814661E+03  0.10319773522E+03 0.  0.
         13    1    3    3    0    0 -0.20811324139E+02  0.25025332211E+02  0.64758032075E+02  0.72477452928E+02  0.00000000000E+00 0. -1.
        -14    1    3    3    0    0 -0.41656066600E+02 -0.52489701193E+02  0.15757018428E+03  0.17122721626E+03  0.00000000000E+00 0.  1.
        -11    1    4    4    0    0 -0.27145983713E+02  0.38989890811E+01 -0.44862645609E+00  0.27428230225E+02  0.00000000000E+00 0.  1.
         11    1    4    4    0    0  0.74308050431E+02 -0.27647943741E+01 -0.96441783408E+02  0.12177991638E+03  0.00000000000E+00 0. -1.
         21    1    1    2  502  501  0.15305324020E+02  0.26330174275E+02 -0.10262146421E+02  0.32137869716E+02  0.00000000000E+00 0. -1.
<scales pt_clust_5="13000.00000" pt_clust_6="13000.00000" pt_clust_7="13000.00000" pt_clust_8="13000.00000" pt_clust_9="30.45539"></scales>
<clustering>
<clus scale="   30.455">  2  9  1 -1</clus>
<clus scale="   72.840">  5  6 -1 -1</clus>
<clus scale="   98.487">  1  5  2 -1</clus>
<clus scale="  103.198">  7  8 -1 -1</clus>
<clus scale="   30.455">  2  5  1 -1</clus>
</clustering>
</event>
<event>
 9    1  0.2674825E-005  0.1037751E+03  0.7546771E-02  0.1277443E+00
          1   -1    0    0  502    0  0.00000000000E+00  0.00000000000E+00  0.90533060758E+02  0.90533060758E+02  0.00000000000E+00 0. -1.
         -2   -1    0    0    0  501 -0.00000000000E+00 -0.00000000000E+00 -0.37425967613E+03  0.37425967613E+03  0.00000000000E+00 0.  1.
        -24    2    1    2    0    0 -0.50655207893E+02  0.44707954924E+01 -0.31343111853E+03  0.32742520177E+03  0.79889039245E+02 0.  0.
         23    2    1    2    0    0  0.48400059288E+02  0.20669221485E+02  0.99717840464E+01  0.10532870942E+03  0.90691334185E+02 0.  0.
         11    1    3    3    0    0  0.17155183643E+02  0.14256356817E+02 -0.12387995839E+03  0.12587211020E+03  0.00000000000E+00 0. -1.
        -12    1    3    3    0    0 -0.67810391536E+02 -0.97855613241E+01 -0.18955116014E+03  0.20155309157E+03  0.00000000000E+00 0.  1.
        -11    1    4    4    0    0 -0.72261515046E+00  0.41869924686E+02  0.26227294248E+02  0.49411372470E+02  0.00000000000E+00 0. -1.
         11    1    4    4    0    0  0.49122674438E+02 -0.21200703201E+02 -0.16255510201E+02  0.55917336954E+02  0.00000000000E+00 0.  1.
         21    1    1    2  502  501  0.22551486053E+01 -0.25140016977E+02  0.19732719106E+02  0.32038825699E+02  0.00000000000E+00 0.  1.
<scales pt_clust_5="13000.00000" pt_clust_6="13000.00000" pt_clust_7="13000.00000" pt_clust_8="13000.00000" pt_clust_9="25.24096"></scales>
<clustering>
<clus scale="   25.241">  1  9  2 -1</clus>
<clus scale="   79.889">  5  6 -1 -1</clus>
<clus scale="   90.691">  7  8 -1 -1</clus>
<clus scale="   94.481">  2  5  1 -1</clus>
<clus scale="   25.241">  1  5  2 -1</clus>
</clustering>
</event>
<event>
 9    1  0.2674825E-005  0.9765601E+02  0.7546771E-02  0.1290112E+00
         -2   -1    0    0    0  501 -0.00000000000E+00  0.00000000000E+00  0.13110520901E+03  0.13110520901E+03  0.00000000000E+00 0.  1.
          1   -1    0    0  502    0  0.00000000000E+00 -0.00000000000E+00 -0.26637136677E+03  0.26637136677E+03  0.00000000000E+00 0. -1.
        -24    2    1    2    0    0  0.11922094514E+02 -0.49613544573E+01  0.78584753642E+02  0.11472508726E+03  0.82580450271E+02 0.  0.
         23    2    1    2    0    0  0.44727266845E+01  0.36723754102E+02 -0.22463984515E+03  0.24541462624E+03  0.91633178185E+02 0.  0.
         11    1    3    3    0    0 -0.18299094127E+02  0.22334413256E+02  0.66100020892E+02  0.72131100250E+02  0.00000000000E+00 0. -1.
        -12    1    3    3    0    0  0.30221188640E+02 -0.27295767713E+02  0.12484732750E+02  0.42593987014E+02  0.00000000000E+00 0.  1.
        -11    1    4    4    0    0  0.24326418709E+02  0.60674761011E+02 -0.17523659384E+03  0.18703225682E+03  0.00000000000E+00 0. -1.
         11    1    4    4    0    0 -0.19853692025E+02 -0.23951006909E+02 -0.49403251307E+02  0.58382369416E+02  0.00000000000E+00 0.  1.
         21    1    1    2  502  501 -0.16394821198E+02 -0.31762399645E+02  0.10788933747E+02  0.37336862277E+02  0.00000000000E+00 0.  1.
<scales pt_clust_5="13000.00000" pt_clust_6="13000.00000" pt_clust_7="13000.00000" pt_clust_8="13000.00000" pt_clust_9="35.74409"></scales>
<clustering>
<clus scale="   35.744">  1  9  2 -1</clus>
<clus scale="   82.580">  5  6 -1 -1</clus>
<clus scale="   89.217">  1  5  2 -1</clus>
<clus scale="   91.633">  7  8 -1 -1</clus>
<clus scale="   97.656">  2  5  1 -1</clus>
</clustering>
</event>
<event>
 9    1  0.2674825E-005  0.1246904E+03  0.7546771E-02  0.1238711E+00
          1   -1    0    0  502    0  0.00000000000E+00  0.00000000000E+00  0.34821829271E+03  0.34821829271E+03  0.00000000000E+00 0. -1.
         -2   -1    0    0    0  501 -0.00000000000E+00 -0.00000000000E+00 -0.59613306413E+02  0.59613306413E+02  0.00000000000E+00 0.  1.
         23    2    1    2    0    0  0.70907570072E+02  0.14411497652E+02  0.79568805333E+02  0.14156406826E+03  0.92052245400E+02 0.  0.
        -24    2    1    2    0    0 -0.98319222688E+02 -0.30498150291E+02  0.15004831839E+03  0.19926195629E+03  0.81203587677E+02 0.  0.
         13    1    4    4    0    0 -0.56923774965E+02 -0.39699873754E+02  0.37270164579E+02  0.78774750397E+02  0.00000000000E+00 0. -1.
        -14    1    4    4    0    0 -0.41395447723E+02  0.92017234630E+01  0.11277815381E+03  0.12048720589E+03  0.00000000000E+00 0.  1.
        -13    1    3    3    0    0 -0.11474640069E+02  0.23621324596E+02 -0.56708969402E+00  0.26267012222E+02  0.00000000000E+00 0.  1.
         13    1    3    3    0    0  0.82382210141E+02 -0.92098269435E+01  0.80135895027E+02  0.11529705604E+03  0.00000000000E+00 0. -1.
         21    1    1    2  502  501  0.27411652615E+02  0.16086652639E+02  0.58987862573E+02  0.67005574568E+02  0.00000000000E+00 0.  1.
<scales pt_clust_5="13000.00000" pt_clust_6="13000.00000" pt_clust_7="13000.00000" pt_clust_8="13000.00000" pt_clust_9="31.78331"></scales>
<clustering>
<clus scale="   31.783">  1  9  2 -1</clus>
<clus scale="   81.204">  5  6 -1 -1</clus>
<clus scale="   92.052">  7  8 -1 -1</clus>
<clus scale="  116.911">  1  5  2 -1</clus>
<clus scale="   31.783">  1  5  2 -1</clus>
</clustering>
</event>
<event>
 9    1  0.2674825E-005  0.1772209E+03  0.7546771E-02  0.1172330E+00
         -2   -1    0    0    0  501 -0.00000000000E+00  0.00000000000E+00  0.11700021397E+03  0.11700021397E+03  0.00000000000E+00 0.  1.
          1   -1    0    0  502    0  0.00000000000E+00 -0.00000000000E+00 -0.51231469089E+03  0.51231469089E+03  0.00000000000E+00 0. -1.
        -24    2    1    2    0    0  0.16067297617E+03  0.59067111272E+02 -0.88387822496E+01  0.18824656303E+03  0.77806911746E+02 0.  0.
         23    2    1    2    0    0 -0.10147476534E+03 -0.23741584512E+02 -0.21419418178E+03  0.25550638266E+03  0.92431451544E+02 0.  0.
         11    1    3    3    0    0  0.10338790491E+03  0.24594939839E+02  0.30641721376E+02  0.11060237355E+03  0.00000000000E+00 0. -1.
        -12    1    3    3    0    0  0.57285071264E+02  0.34472171433E+02 -0.39480503626E+02  0.77644189477E+02  0.00000000000E+00 0.  1.
        -13    1    4    4    0    0 -0.76714751276E+02  0.16920305058E+02 -0.75850624227E+02  0.10920058142E+03  0.00000000000E+00 0.  1.
         13    1    4    4    0    0 -0.24760014068E+02 -0.40661889570E+02 -0.13834355756E+03  0.14630580124E+03  0.00000000000E+00 0. -1.
         21    1    1    2  502  501 -0.59198210825E+02 -0.35325526761E+02 -0.17228151289E+03  0.18556195917E+03  0.00000000000E+00 0.  1.
<scales pt_clust_5="13000.00000" pt_clust_6="13000.00000" pt_clust_7="13000.00000" pt_clust_8="13000.00000" pt_clust_9="68.93708"></scales>
<clustering>
<clus scale="   68.937">  2  9  1 -1</clus>
<clus scale="   77.807">  5  6 -1 -1</clus>
<clus scale="   92.431">  7  8 -1 -1</clus>
<clus scale="  170.052">  1  5  2 -1</clus>
<clus scale="   68.937">  2  5  1 -1</clus>
</clustering>
</event>
<event>
 9    1  0.2674825E-005  0.1986743E+03  0.7546771E-02  0.1152298E+00
          1   -1    0    0  502    0  0.00000000000E+00  0.00000000000E+00  0.30216759185E+03  0.30216759185E+03  0.00000000000E+00 0. -1.
         -2   -1    0    0    0  501 -0.00000000000E+00 -0.00000000000E+00 -0.18580696124E+03  0.18580696124E+03  0.00000000000E+00 0.  1.
         23    2    1    2    0    0 -0.17559354293E+03 -0.50078762013E+02 -0.36387672836E+02  0.20911205150E+03  0.95198805802E+02 0.  0.
        -24    2    1    2    0    0  0.15407406206E+03  0.49535133433E+02  0.70764509676E+02  0.19409973836E+03  0.80464567091E+02 0.  0.
         11    1    4    4    0    0  0.96363133780E+02 -0.67029802505E+01  0.57556811174E+02  0.11244363036E+03  0.00000000000E+00 0. -1.
        -12    1    4    4    0    0  0.57710928282E+02  0.56238113683E+02  0.13207698502E+02  0.81656107999E+02  0.00000000000E+00 0.  1.
        -11    1    3    3    0    0 -0.66050947709E+02  0.20258983323E-01 -0.56585601680E+02  0.86975044818E+02  0.00000000000E+00 0.  1.
         11    1    3    3    0    0 -0.10954259522E+03 -0.50099020996E+02  0.20197928843E+02  0.12213700668E+03  0.00000000000E+00 0. -1.
         21    1    1    2  502  501  0.21519480866E+02  0.54362858016E+00  0.81983793770E+02  0.84762763226E+02  0.00000000000E+00 0. -1.
<scales pt_clust_5="13000.00000" pt_clust_6="13000.00000" pt_clust_7="13000.00000" pt_clust_8="13000.00000" pt_clust_9="21.52635"></scales>
<clustering>
<clus scale="   21.526">  1  9  2 -1</clus>
<clus scale="   80.465">  5  6 -1 -1</clus>
<clus scale="   95.199">  7  8 -1 -1</clus>
<clus scale="  192.050">  1  5  2 -1</clus>
<clus scale="   21.526">  1  5  2 -1</clus>
</clustering>
</event>
<event>
 9    1  0.2674825E-005  0.1082480E+03  0.7546771E-02  0.1271374E+00
         -2   -1    0    0    0  501 -0.00000000000E+00  0.00000000000E+00  0.17594040339E+03  0.17594040339E+03  0.00000000000E+00 0.  1.
          1   -1    0    0  502    0  0.00000000000E+00 -0.00000000000E+00 -0.32817237415E+03  0.32817237415E+03  0.00000000000E+00 0. -1.
        -24    2    1    2    0    0 -0.37470935699E+02 -0.56094663787E+02  0.12468197335E+03  0.16191763167E+03  0.78237092475E+02 0.  0.
         23    2    1    2    0    0  0.10049381567E+02  0.49470493770E+02 -0.29122367270E+03  0.31056304839E+03  0.95340755498E+02 0.  0.
         13    1    3    3    0    0 -0.41721738209E+02 -0.17036432713E+02  0.18527619811E+02  0.48725929182E+02  0.00000000000E+00 0. -1.
        -14    1    3    3    0    0  0.42508025098E+01 -0.39058231074E+02  0.10615435354E+03  0.11319170248E+03  0.00000000000E+00 0.  1.
        -11    1    4    4    0    0  0.27738727297E+02  0.69883894160E+02 -0.25170623622E+03  0.26269606965E+03  0.00000000000E+00 0. -1.
         11    1    4    4    0    0 -0.17689345730E+02 -0.20413400391E+02 -0.39517436477E+02  0.47866978739E+02  0.00000000000E+00 0.  1.
         21    1    1    2  502  501  0.27421554132E+02  0.66241700177E+01  0.14309728593E+02  0.31632097494E+02  0.00000000000E+00 0.  1.
<scales pt_clust_5="13000.00000" pt_clust_6="13000.00000" pt_clust_7="13000.00000" pt_clust_8="13000.00000" pt_clust_9="28.21030"></scales>
<clustering>
<clus scale="   28.210">  1  9  2 -1</clus>
<clus scale="   78.237">  5  6 -1 -1</clus>
<clus scale="   93.535">  1  5  2 -1</clus>
<clus scale="   95.341">  7  8 -1 -1</clus>
<clus scale="  108.248">  2  5  1 -1</clus>
</clustering>
</event>
<event>
 9    1  0.2674825E-005  0.1207955E+03  0.7546771E-02  0.1246560E+00
          1   -1    0    0  502    0  0.00000000000E+00  0.00000000000E+00  0.71744246761E+03  0.71744246761E+03  0.00000000000E+00 0. -1.
         -2   -1    0    0    0  501 -0.00000000000E+00 -0.00000000000E+00 -0.14755146210E+03  0.14755146210E+03  0.00000000000E+00 0.  1.
         23    2    1    2    0    0 -0.43332387179E+02 -0.59872754172E+02 -0.10139078189E+03  0.15668648802E+03  0.93851597778E+02 0.  0.
        -24    2    1    2    0    0  0.10770568595E+03  0.69142016246E+02  0.55546184175E+03  0.57547634358E+03  0.79082432864E+02 0.  0.
         13    1    4    4    0    0  0.10317165408E+03  0.44790559147E+02  0.52120284449E+03  0.53320070283E+03  0.00000000000E+00 0. -1.
        -14    1    4    4    0    0  0.45340318704E+01  0.24351457099E+02  0.34258997258E+02  0.42275640752E+02  0.00000000000E+00 0.  1.
        -11    1    3    3    0    0 -0.51072759754E+02 -0.22129707979E+02 -0.87387747457E+01  0.56342851793E+02  0.00000000000E+00 0. -1.
         11    1    3    3    0    0  0.77403725746E+01 -0.37743046192E+02 -0.92652007148E+02  0.10034363623E+03  0.00000000000E+00 0.  1.
         21    1    1    2  502  501 -0.64373298768E+02 -0.92692620739E+01  0.11581994565E+03  0.13283109810E+03  0.00000000000E+00 0.  1.
<scales pt_clust_5="13000.00000" pt_clust_6="13000.00000" pt_clust_7="13000.00000" pt_clust_8="13000.00000" pt_clust_9="65.03723"></scales>
<clustering>
<clus scale="   65.037">  1  9  2 -1</clus>
<clus scale="   79.082">  5  6 -1 -1</clus>
<clus scale="   93.852">  7  8 -1 -1</clus>
<clus scale="  109.715">  1  5  2 -1</clus>
<clus scale="   65.037">  1  5  2 -1</clus>
</clustering>
</event>
<event>
 9    1  0.2674825E-005  0.9979869E+02  0.7546771E-02  0.1281153E+00
          1   -1    0    0  502    0  0.00000000000E+00  0.00000000000E+00  0.52877279738E+03  0.52877279738E+03  0.00000000000E+00 0. -1.
         -2   -1    0    0    0  501 -0.00000000000E+00 -0.00000000000E+00 -0.12985752958E+03  0.12985752958E+03  0.00000000000E+00 0.  1.
         23    2    1    2    0    0  0.22830475811E+02  0.24477554727E+02 -0.10042164317E+03  0.14076983408E+03  0.92796866643E+02 0.  0.
        -24    2    1    2    0    0 -0.47811153879E+02 -0.31049390026E+02  0.43308520845E+03  0.44675134169E+03  0.93669592041E+02 0.  0.
         13    1    4    4    0    0 -0.76392141200E+02 -0.20972418766E+02  0.30329972003E+03  0.31347459508E+03  0.00000000000E+00 0. -1.
        -14    1    4    4    0    0  0.28580987322E+02 -0.10076971260E+02  0.12978548841E+03  0.13327674662E+03  0.00000000000E+00 0.  1.
        -11    1    3    3    0    0 -0.26245286174E+02 -0.17434256063E+02 -0.48980737364E+02  0.58239857173E+02  0.00000000000E+00 0. -1.
         11    1    3    3    0    0  0.49075761985E+02  0.41911810791E+02 -0.51440905809E+02  0.82529976909E+02  0.00000000000E+00 0.  1.
         21    1    1    2  502  501  0.24980678067E+02  0.65718352991E+01  0.66251702522E+02  0.71109151190E+02  0.00000000000E+00 0. -1.
<scales pt_clust_5="13000.00000" pt_clust_6="13000.00000" pt_clust_7="13000.00000" pt_clust_8="13000.00000" pt_clust_9="25.83067"></scales>
<clustering>
<clus scale="   25.831">  1  9  2 -1</clus>
<clus scale="   92.797">  7  8 -1 -1</clus>
<clus scale="   93.670">  5  6 -1 -1</clus>
<clus scale="   98.980">  2  7  1 -1</clus>
<clus scale="   25.831">  1  5  2 -1</clus>
</clustering>
</event>
<event>
 9    1  0.2674825E-005  0.1243210E+03  0.7546771E-02  0.1243096E+00
         -2   -1    0    0    0  501 -0.00000000000E+00  0.00000000000E+00  0.75590716165E+02  0.75590716165E+02  0.00000000000E+00 0.  1.
          1   -1    0    0  502    0  0.00000000000E+00 -0.00000000000E+00 -0.48632306285E+03  0.48632306285E+03  0.00000000000E+00 0. -1.
        -24    2    1    2    0    0  0.35708611757E+02 -0.45761619436E+02 -0.78454572580E+00  0.10867806718E+03  0.91875328607E+02 0.  0.
         23    2    1    2    0    0  0.18793824145E+02  0.70897528273E+02 -0.26675335539E+03  0.29797148971E+03  0.11067966717E+03 0.  0.
         13    1    3    3    0    0  0.44455986931E+02 -0.69966840168E+02  0.68998110888E+00  0.82898549873E+02  0.00000000000E+00 0. -1.
        -14    1    3    3    0    0 -0.87473751740E+01  0.24205220732E+02 -0.14745268347E+01  0.25779517305E+02  0.00000000000E+00 0.  1.
        -11    1    4    4    0    0  0.28740049909E+02 -0.11014495419E+02 -0.17478746038E+02  0.35395142904E+02  0.00000000000E+00 0.  1.
         11    1    4    4    0    0 -0.99462257640E+01  0.81912023692E+02 -0.24927460935E+03  0.26257634680E+03  0.00000000000E+00 0. -1.
         21    1    1    2  502  501 -0.54502435902E+02 -0.25135908836E+02 -0.14319444556E+03  0.15526422212E+03  0.00000000000E+00 0. -1.
<scales pt_clust_5="13000.00000" pt_clust_6="13000.00000" pt_clust_7="13000.00000" pt_clust_8="13000.00000" pt_clust_9="60.01941"></scales>
<clustering>
<clus scale="   60.019">  2  9  1 -1</clus>
<clus scale="   91.875">  5  6 -1 -1</clus>
<clus scale="  107.920">  1  5  2 -1</clus>
<clus scale="  110.680">  7  8 -1 -1</clus>
<clus scale="   60.019">  2  5  1 -1</clus>
</clustering>
</event>
<event>
 9    1  0.2674825E-005  0.9982614E+02  0.7546771E-02  0.1287230E+00
          1   -1    0    0  502    0  0.00000000000E+00  0.00000000000E+00  0.15734841974E+03  0.15734841974E+03  0.00000000000E+00 0. -1.
         -2   -1    0    0    0  501 -0.00000000000E+00 -0.00000000000E+00 -0.84966276294E+02  0.84966276294E+02  0.00000000000E+00 0.  1.
         23    2    1    2    0    0 -0.10960818805E+02 -0.39501889385E+02 -0.85575824664E+01  0.10011515506E+03  0.90935544433E+02 0.  0.
        -24    2    1    2    0    0 -0.13980376317E+02  0.44299344761E+02  0.69697057622E+02  0.11442407730E+03  0.77957082785E+02 0.  0.
         11    1    4    4    0    0  0.13398682543E+01  0.38714759039E+02  0.84147606351E+02  0.92636102405E+02  0.00000000000E+00 0. -1.
        -12    1    4    4    0    0 -0.15320244571E+02  0.55845857226E+01 -0.14450548728E+02  0.21787974894E+02  0.00000000000E+00 0.  1.
        -11    1    3    3    0    0  0.31233650976E+02 -0.47289420203E+02 -0.77499877433E+01  0.57200459145E+02  0.00000000000E+00 0.  1.
         11    1    3    3    0    0 -0.42194469780E+02  0.77875308181E+01 -0.80759472310E+00  0.42914695915E+02  0.00000000000E+00 0. -1.
         21    1    1    2  502  501  0.24941195122E+02 -0.47974553763E+01  0.11242668293E+02  0.27775463678E+02  0.00000000000E+00 0. -1.
<scales pt_clust_5="13000.00000" pt_clust_6="13000.00000" pt_clust_7="13000.00000" pt_clust_8="13000.00000" pt_clust_9="25.39840"></scales>
<clustering>
<clus scale="   25.398">  1  9  2 -1</clus>
<clus scale="   77.957">  5  6 -1 -1</clus>
<clus scale="   88.166">  1  5  2 -1</clus>
<clus scale="   90.936">  7  8 -1 -1</clus>
<clus scale="   25.398">  1  5  2 -1</clus>
</clustering>
</event>
<event>
 9    1  0.2674825E-005  0.1632713E+03  0.7546771E-02  0.1203451E+00
          1   -1    0    0  502    0  0.00000000000E+00  0.00000000000E+00  0.74485113354E+03  0.74485113354E+03  0.00000000000E+00 0. -1.
         -2   -1    0    0    0  501 -0.00000000000E+00 -0.00000000000E+00 -0.92306110151E+02  0.92306110151E+02  0.00000000000E+00 0.  1.
         23    2    1    2    0    0 -0.24232253890E+02 -0.50404010745E+02 -0.38780536280E+01  0.10912156776E+03  0.93620034304E+02 0.  0.
        -24    2    1    2    0    0 -0.49412861444E+02 -0.10168893994E+03  0.20193925391E+03  0.24315278891E+03  0.74575767532E+02 0.  0.
         11    1    4    4    0    0 -0.68578624216E+02 -0.83213072858E+02  0.17279809850E+03  0.20368266014E+03  0.00000000000E+00 0. -1.
        -12    1    4    4    0    0  0.19165762772E+02 -0.18475867080E+02  0.29141155410E+02  0.39470128776E+02  0.00000000000E+00 0.  1.
        -13    1    3    3    0    0  0.20353176622E+01  0.26888068851E+02  0.33323293500E+01  0.27170115631E+02  0.00000000000E+00 0.  1.
         13    1    3    3    0    0 -0.26267571552E+02 -0.77292079596E+02 -0.72103829779E+01  0.81951452130E+02  0.00000000000E+00 0. -1.
         21    1    1    2  502  501  0.73645115334E+02  0.15209295068E+03  0.45448382311E+03  0.48488288702E+03  0.00000000000E+00 0.  1.
<scales pt_clust_5="13000.00000" pt_clust_6="13000.00000" pt_clust_7="13000.00000" pt_clust_8="13000.00000" pt_clust_9="145.24453"></scales>
<clustering>
<clus scale="   74.576">  5  6 -1 -1</clus>
<clus scale="   93.620">  7  8 -1 -1</clus>
<clus scale="  109.053">  2  7  1 -1</clus>
<clus scale="  145.245">  1  9  2 -1</clus>
<clus scale="  145.245">  1  5  2 -1</clus>
</clustering>
</event>
<event>
 9    1  0.2674825E-005  0.1046209E+03  0.7546771E-02  0.1279765E+00
         -2   -1    0    0    0  501 -0.00000000000E+00  0.00000000000E+00  0.35678652338E+03  0.35678652338E+03  0.00000000000E+00 0.  1.
          1   -1    0    0  502    0  0.00000000000E+00 -0.00000000000E+00 -0.94105000507E+02  0.94105000507E+02  0.00000000000E+00 0. -1.
        -24    2    1    2    0    0 -0.30543125991E+02 -0.19284989640E+02  0.29059464364E+03  0.30364333424E+03  0.80307123875E+02 0.  0.
         23    2    1    2    0    0  0.49451801975E+02 -0.60050999216E+01 -0.87794866786E+01  0.11032634502E+03  0.98047340997E+02 0.  0.
         13    1    3    3    0    0  0.12011684051E+02  0.16003454681E+02  0.23396447827E+02  0.30786115156E+02  0.00000000000E+00 0. -1.
        -14    1    3    3    0    0 -0.42554810042E+02 -0.35288444321E+02  0.26719819581E+03  0.27285721908E+03  0.00000000000E+00 0.  1.
        -13    1    4    4    0    0  0.10719325121E+02  0.43892956003E+02  0.56436215356E+01  0.45534009068E+02  0.00000000000E+00 0. -1.
         13    1    4    4    0    0  0.38732476853E+02 -0.49898055924E+02 -0.14423108214E+02  0.64792335957E+02  0.00000000000E+00 0.  1.
         21    1    1    2  502  501 -0.18908675984E+02  0.25290089562E+02 -0.19133634084E+02  0.36921844628E+02  0.00000000000E+00 0. -1.
<scales pt_clust_5="13000.00000" pt_clust_6="13000.00000" pt_clust_7="13000.00000" pt_clust_8="13000.00000" pt_clust_9="31.57731"></scales>
<clustering>
<clus scale="   31.577">  2  9  1 -1</clus>
<clus scale="   80.307">  5  6 -1 -1</clus>
<clus scale="   88.213">  1  5  2 -1</clus>
<clus scale="   98.047">  7  8 -1 -1</clus>
<clus scale="   31.577">  2  5  1 -1</clus>
</clustering>
</event>
<event>
 9    1  0.2674825E-005  0.1563194E+03  0.7546771E-02  0.1194624E+00
          1   -1    0    0  502    0  0.00000000000E+00  0.00000000000E+00  0.36501966323E+03  0.36501966323E+03  0.00000000000E+00 0. -1.
         -2   -1    0    0    0  501 -0.00000000000E+00 -0.00000000000E+00 -0.21465233060E+03  0.21465233060E+03  0.00000000000E+00 0.  1.
         23    2    1    2    0    0  0.78602375022E+02 -0.10045397118E+03 -0.16081822385E+03  0.22448014582E+03  0.90881797179E+02 0.  0.
        -24    2    1    2    0    0 -0.59811350324E+02  0.11007163912E+03  0.28481127301E+03  0.32141012256E+03  0.80584379908E+02 0.  0.
         13    1    4    4    0    0  0.34592738550E+01  0.62745868436E+02  0.17641648620E+03  0.18727463038E+03  0.00000000000E+00 0. -1.
        -14    1    4    4    0    0 -0.63270624179E+02  0.47325770685E+02  0.10839478681E+03  0.13413549218E+03  0.00000000000E+00 0.  1.
        -11    1    3    3    0    0  0.83832978592E+02 -0.63225783807E+02 -0.15381772305E+03  0.18624006004E+03  0.00000000000E+00 0.  1.
         11    1    3    3    0    0 -0.52306035695E+01 -0.37228187374E+02 -0.70005007939E+01  0.38240085777E+02  0.00000000000E+00 0. -1.
         21    1    1    2  502  501 -0.18791024698E+02 -0.96176679402E+01  0.26374283468E+02  0.33781725449E+02  0.00000000000E+00 0. -1.
<scales pt_clust_5="13000.00000" pt_clust_6="13000.00000" pt_clust_7="13000.00000" pt_clust_8="13000.00000" pt_clust_9="21.10929"></scales>
<clustering>
<clus scale="   21.109">  1  9  2 -1</clus>
<clus scale="   80.584">  5  6 -1 -1</clus>
<clus scale="   90.882">  7  8 -1 -1</clus>
<clus scale="  150.566">  1  5  2 -1</clus>
<clus scale="   21.109">  1  5  2 -1</clus>
</clustering>
</event>
<event>
 9    1  0.2674825E-005  0.1638039E+03  0.7546771E-02  0.1186558E+00
         -2   -1    0    0    0  501 -0.00000000000E+00  0.00000000000E+00  0.97967714641E+02  0.97967714641E+02  0.00000000000E+00 0.  1.
          1   -1    0    0  502    0  0.00000000000E+00 -0.00000000000E+00 -0.75889039386E+03  0.75889039386E+03  0.00000000000E+00 0. -1.
        -24    2    1    2    0    0 -0.12999346609E+02  0.13994822097E+03  0.27957873823E+01  0.16029008101E+03  0.77010428376E+02 0.  0.
         23    2    1    2    0    0 -0.41504279515E+02 -0.11150970614E+03 -0.47235486786E+03  0.49557195462E+03  0.91188931527E+02 0.  0.
         11    1    3    3    0    0 -0.38832434802E+02  0.11971988045E+03 -0.69813490216E+01  0.12605374648E+03  0.00000000000E+00 0. -1.
        -12    1    3    3    0    0  0.25833088192E+02  0.20228340515E+02  0.97771364039E+01  0.34236334527E+02  0.00000000000E+00 0.  1.
        -11    1    4    4    0    0 -0.48771021167E+01 -0.10940845991E+03 -0.30024019378E+03  0.31959063063E+03  0.00000000000E+00 0. -1.
         11    1    4    4    0    0 -0.36627177398E+02 -0.21012462329E+01 -0.17211467409E+03  0.17598132400E+03  0.00000000000E+00 0.  1.
         21    1    1    2  502  501  0.54503626124E+02 -0.28438514825E+02 -0.19136359874E+03  0.20099607287E+03  0.00000000000E+00 0. -1.
<scales pt_clust_5="13000.00000" pt_clust_6="13000.00000" pt_clust_7="13000.00000" pt_clust_8="13000.00000" pt_clust_9="61.47678"></scales>
<clustering>
<clus scale="   61.477">  2  9  1 -1</clus>
<clus scale="   77.010">  5  6 -1 -1</clus>
<clus scale="   91.189">  7  8 -1 -1</clus>
<clus scale="  156.355">  1  5  2 -1</clus>
<clus scale="   61.477">  2  5  1 -1</clus>
</clustering>
</event>
<event>
 9    1  0.2674825E-005  0.9187350E+02  0.7546771E-02  0.1312677E+00
          1   -1    0    0  502    0  0.00000000000E+00  0.00000000000E+00  0.84436266189E+03  0.84436266189E+03  0.00000000000E+00 0. -1.
         -2   -1    0    0    0  501 -0.00000000000E+00 -0.00000000000E+00 -0.22397087577E+02  0.22397087577E+02  0.00000000000E+00 0.  1.
        -24    2    1    2    0    0 -0.75827937222E+01 -0.69211373836E+00  0.70337423448E+02  0.99243099275E+02  0.69597857973E+02 0.  0.
         23    2    1    2    0    0  0.47411156672E+02 -0.22327936722E+02  0.59798162343E+03  0.60713124995E+03  0.90994385371E+02 0.  0.
         11    1    3    3    0    0 -0.52953132996E+01  0.29096075317E+02  0.61249420278E+02  0.68015538123E+02  0.00000000000E+00 0. -1.
        -12    1    3    3    0    0 -0.22874804226E+01 -0.29788189055E+02  0.90880031694E+01  0.31227561152E+02  0.00000000000E+00 0.  1.
        -11    1    4    4    0    0  0.66941989030E+02  0.94826836688E+01  0.39563403779E+03  0.40136945953E+03  0.00000000000E+00 0. -1.
         11    1    4    4    0    0 -0.19530832358E+02 -0.31810620391E+02  0.20234758564E+03  0.20576179042E+03  0.00000000000E+00 0.  1.
         21    1    1    2  502  501 -0.39828362950E+02  0.23020050460E+02  0.15364652744E+03  0.16038540025E+03  0.00000000000E+00 0. -1.
<scales pt_clust_5="13000.00000" pt_clust_6="13000.00000" pt_clust_7="13000.00000" pt_clust_8="13000.00000" pt_clust_9="46.00240"></scales>
<clustering>
<clus scale="   46.002">  1  9  2 -1</clus>
<clus scale="   69.598">  5  6 -1 -1</clus>
<clus scale="   70.743">  2  5  1 -1</clus>
<clus scale="   90.994">  7  8 -1 -1</clus>
<clus scale="   46.002">  1  5  2 -1</clus>
</clustering>
</event>
<event>
 9    1  0.2674825E-005  0.1472864E+03  0.7546771E-02  0.1206137E+00
         -2   -1    0    0    0  501 -0.00000000000E+00  0.00000000000E+00  0.42566750290E+03  0.42566750290E+03  0.00000000000E+00 0.  1.
          1   -1    0    0  502    0  0.00000000000E+00 -0.00000000000E+00 -0.31428271693E+03  0.31428271693E+03  0.00000000000E+00 0. -1.
         23    2    1    2    0    0 -0.20714608649E+02 -0.90481574163E+02  0.14927921632E+03  0.19837467572E+03  0.91935941092E+02 0.  0.
        -24    2    1    2    0    0 -0.47593820025E+02  0.14433148125E+03  0.21438462771E+03  0.27472244397E+03  0.80093098554E+02 0.  0.
         11    1    4    4    0    0 -0.38775542513E+02  0.15320253089E+03  0.18855446723E+03  0.24602305843E+03  0.00000000000E+00 0. -1.
        -12    1    4    4    0    0 -0.88182775123E+01 -0.88710496314E+01  0.25830160482E+02  0.28699385540E+02  0.00000000000E+00 0.  1.
        -13    1    3    3    0    0 -0.26855945605E+02 -0.54943981130E+02  0.20283119178E+02  0.64432040169E+02  0.00000000000E+00 0.  1.
         13    1    3    3    0    0  0.61413369563E+01 -0.35537593033E+02  0.12899609715E+03  0.13394263555E+03  0.00000000000E+00 0. -1.
         21    1    1    2  502  501  0.68308428674E+02 -0.53849907091E+02 -0.25227905807E+03  0.26685310015E+03  0.00000000000E+00 0. -1.
<scales pt_clust_5="13000.00000" pt_clust_6="13000.00000" pt_clust_7="13000.00000" pt_clust_8="13000.00000" pt_clust_9="86.98192"></scales>
<clustering>
<clus scale="   80.093">  5  6 -1 -1</clus>
<clus scale="   86.982">  2  9  1 -1</clus>
<clus scale="   91.936">  7  8 -1 -1</clus>
<clus scale="  140.200">  2  5  1 -1</clus>
<clus scale="   86.982">  2  5  1 -1</clus>
</clustering>
</event>
<event>
 9    1  0.2674825E-005  0.1072512E+03  0.7546771E-02  0.1269839E+00
         -2   -1    0    0    0  501 -0.00000000000E+00  0.00000000000E+00  0.53401833979E+02  0.53401833979E+02  0.00000000000E+00 0.  1.
          1   -1    0    0  502    0  0.00000000000E+00 -0.00000000000E+00 -0.53103922855E+03  0.53103922855E+03  0.00000000000E+00 0. -1.
        -24    2    1    2    0    0 -0.28802004288E+02  0.25801536671E+02 -0.60050560661E+02  0.10759877585E+03  0.80474542450E+02 0.  0.
         23    2    1    2    0    0  0.49331136334E+02 -0.95638243804E+02 -0.17999988672E+03  0.22835452360E+03  0.90363679317E+02 0.  0.
         13    1    3    3    0    0  0.90129681782E+01  0.42357565568E+02 -0.47885255447E+02  0.64563105916E+02  0.00000000000E+00 0. -1.
        -14    1    3    3    0    0 -0.37814972466E+02 -0.16556028898E+02 -0.12165305213E+02  0.43035669931E+02  0.00000000000E+00 0.  1.
        -11    1    4    4    0    0  0.30853961371E+01 -0.42690337943E+02 -0.93775741977E+01  0.43816931897E+02  0.00000000000E+00 0. -1.
         11    1    4    4    0    0  0.46245740197E+02 -0.52947905861E+02 -0.17062231252E+03  0.18453759170E+03  0.00000000000E+00 0.  1.
         21    1    1    2  502  501 -0.20529132046E+02  0.69836707133E+02 -0.23758694719E+03  0.24848776308E+03  0.00000000000E+00 0. -1.
<scales pt_clust_5="13000.00000" pt_clust_6="13000.00000" pt_clust_7="13000.00000" pt_clust_8="13000.00000" pt_clust_9="72.79156"></scales>
<clustering>
<clus scale="   72.792">  2  9  1 -1</clus>
<clus scale="   80.475">  5  6 -1 -1</clus>
<clus scale="   90.364">  7  8 -1 -1</clus>
<clus scale="   99.063">  1  5  2 -1</clus>
<clus scale="   72.792">  2  5  1 -1</clus>
</clustering>
</event>
<event>
 9    1  0.2674825E-005  0.1511676E+03  0.7546771E-02  0.1201042E+00
          3   -1    0    0  502    0  0.00000000000E+00  0.00000000000E+00  0.47041403964E+03  0.47041403964E+03  0.00000000000E+00 0. -1.
         -4   -1    0    0    0  501 -0.00000000000E+00 -0.00000000000E+00 -0.11445594388E+03  0.11445594388E+03  0.00000000000E+00 0.  1.
        -24    2    1    2    0    0  0.36248000670E+02  0.11657443054E+03 -0.40552451392E+02  0.15197407446E+03  0.80920347157E+02 0.  0.
         23    2    1    2    0    0 -0.12327788348E+02 -0.10687397015E+03  0.36887476074E+03  0.39508040721E+03  0.91901682197E+02 0.  0.
         13    1    3    3    0    0 -0.13018979199E+02  0.55066251790E+02  0.11215459561E+02  0.57685114533E+02  0.00000000000E+00 0. -1.
        -14    1    3    3    0    0  0.49266979869E+02  0.61508178754E+02 -0.51767910953E+02  0.94288959924E+02  0.00000000000E+00 0.  1.
        -11    1    4    4    0    0  0.22620866469E+02 -0.42163432411E+02  0.25549384739E+03  0.25993569337E+03  0.00000000000E+00 0. -1.
         11    1    4    4    0    0 -0.34948654817E+02 -0.64710537737E+02  0.11338091335E+03  0.13514471384E+03  0.00000000000E+00 0.  1.
         21    1    1    2  502  501 -0.23920212322E+02 -0.97004603959E+01  0.27635786416E+02  0.37815501851E+02  0.00000000000E+00 0.  1.
<scales pt_clust_5="13000.00000" pt_clust_6="13000.00000" pt_clust_7="13000.00000" pt_clust_8="13000.00000" pt_clust_9="25.81231"></scales>
<clustering>
<clus scale="   25.812">  1  9  2 -1</clus>
<clus scale="   80.920">  5  6 -1 -1</clus>
<clus scale="   91.902">  7  8 -1 -1</clus>
<clus scale="  144.754">  2  5  1 -1</clus>
<clus scale="   25.812">  1  5  2 -1</clus>
</clustering>
</event>
<event>
 9    1  0.2674825E-005  0.1041536E+03  0.7546771E-02  0.1276098E+00
         -2   -1    0    0    0  501 -0.00000000000E+00  0.00000000000E+00  0.70824589394E+02  0.70824589394E+02  0.00000000000E+00 0.  1.
          1   -1    0    0  502    0  0.00000000000E+00 -0.00000000000E+00 -0.38647602078E+03  0.38647602078E+03  0.00000000000E+00 0. -1.
         23    2    1    2    0    0 -0.47852290803E+02 -0.35885732051E+02  0.11965017228E+02  0.10827455642E+03  0.89457198878E+02 0.  0.
        -24    2    1    2    0    0  0.22333659813E+02  0.98684840448E+01 -0.21163069990E+03  0.22744977471E+03  0.79684801163E+02 0.  0.
         13    1    4    4    0    0  0.20471277993E+02 -0.33848238999E+02 -0.10343577996E+03  0.11074175853E+03  0.00000000000E+00 0. -1.
        -14    1    4    4    0    0  0.18623818205E+01  0.43716723044E+02 -0.10819491994E+03  0.11670801618E+03  0.00000000000E+00 0.  1.
        -11    1    3    3    0    0 -0.24534068722E+02  0.28503437286E+02 -0.44009429430E+01  0.37864690200E+02  0.00000000000E+00 0.  1.
         11    1    3    3    0    0 -0.23318222081E+02 -0.64389169338E+02  0.16365960171E+02  0.70409866221E+02  0.00000000000E+00 0. -1.
         21    1    1    2  502  501  0.25518630990E+02  0.26017248007E+02 -0.11598574871E+03  0.12157627904E+03  0.00000000000E+00 0. -1.
<scales pt_clust_5="13000.00000" pt_clust_6="13000.00000" pt_clust_7="13000.00000" pt_clust_8="13000.00000" pt_clust_9="36.44308"></scales>
<clustering>
<clus scale="   36.443">  2  9  1 -1</clus>
<clus scale="   79.685">  5  6 -1 -1</clus>
<clus scale="   89.457">  7  8 -1 -1</clus>
<clus scale="   95.891">  2  5  1 -1</clus>
<clus scale="   36.443">  2  5  1 -1</clus>
</clustering>
</event>
<event>
 9    1  0.2674825E-005  0.2856633E+03  0.7546771E-02  0.1125072E+00
          1   -1    0    0  502    0  0.00000000000E+00  0.00000000000E+00  0.54832089272E+03  0.54832089272E+03  0.00000000000E+00 0. -1.
         -2   -1    0    0    0  501 -0.00000000000E+00 -0.00000000000E+00 -0.54246010144E+03  0.54246010144E+03  0.00000000000E+00 0.  1.
         23    2    1    2    0    0  0.19810670806E+02  0.82827138713E+02 -0.20104858220E+03  0.23663033611E+03  0.91217246066E+02 0.  0.
        -24    2    1    2    0    0 -0.14503035628E+03  0.16921450164E+03 -0.23226575240E+03  0.33253801508E+03  0.83467358441E+02 0.  0.
         11    1    4    4    0    0 -0.42538102950E+02  0.74556767750E+02 -0.39268979359E+02  0.94394144733E+02  0.00000000000E+00 0. -1.
        -12    1    4    4    0    0 -0.10249225333E+03  0.94657733891E+02 -0.19299677305E+03  0.23814387035E+03  0.00000000000E+00 0.  1.
        -11    1    3    3    0    0 -0.39778330990E+01  0.46814173300E+02 -0.18452935604E+03  0.19041657811E+03  0.00000000000E+00 0.  1.
         11    1    3    3    0    0  0.23788503905E+02  0.36012965413E+02 -0.16519226156E+02  0.46213758002E+02  0.00000000000E+00 0. -1.
         21    1    1    2  502  501  0.12521968548E+03 -0.25204164035E+03  0.43917512589E+03  0.52161264296E+03  0.00000000000E+00 0. -1.
<scales pt_clust_5="13000.00000" pt_clust_6="13000.00000" pt_clust_7="13000.00000" pt_clust_8="13000.00000" pt_clust_9="273.19721"></scales>
<clustering>
<clus scale="   83.467">  5  6 -1 -1</clus>
<clus scale="   91.217">  7  8 -1 -1</clus>
<clus scale="  124.793">  2  7  1 -1</clus>
<clus scale="  273.197">  1  9  2 -1</clus>
<clus scale="  273.197">  1  5  2 -1</clus>
</clustering>
</event>
<event>
 9    1  0.2674825E-005  0.1130061E+03  0.7546771E-02  0.1259921E+00
         -2   -1    0    0    0  501 -0.00000000000E+00  0.00000000000E+00  0.78812667546E+02  0.78812667546E+02  0.00000000000E+00 0.  1.
          1   -1    0    0  502    0  0.00000000000E+00 -0.00000000000E+00 -0.23869205665E+03  0.23869205665E+03  0.00000000000E+00 0. -1.
        -24    2    1    2    0    0 -0.58438023343E+02  0.45216590828E+02 -0.16555268991E+02  0.11117669965E+03  0.81404170374E+02 0.  0.
         23    2    1    2    0    0  0.27149455301E+02 -0.38348245299E+02 -0.69906560497E+02  0.12622629723E+03  0.94013137755E+02 0.  0.
         11    1    3    3    0    0 -0.28051853769E+02  0.26425620745E+02 -0.49394462976E+02  0.62650083036E+02  0.00000000000E+00 0. -1.
        -12    1    3    3    0    0 -0.30386169573E+02  0.18790970083E+02  0.32839193985E+02  0.48526616609E+02  0.00000000000E+00 0.  1.
        -13    1    4    4    0    0 -0.34412929530E+02 -0.15490809562E+02 -0.14937089946E+02  0.40587332455E+02  0.00000000000E+00 0.  1.
         13    1    4    4    0    0  0.61562384831E+02 -0.22857435736E+02 -0.54969470552E+02  0.85638964772E+02  0.00000000000E+00 0. -1.
         21    1    1    2  502  501  0.31288568042E+02 -0.68683455291E+01 -0.73417559611E+02  0.80101727320E+02  0.00000000000E+00 0. -1.
<scales pt_clust_5="13000.00000" pt_clust_6="13000.00000" pt_clust_7="13000.00000" pt_clust_8="13000.00000" pt_clust_9="32.03356"></scales>
<clustering>
<clus scale="   32.034">  2  9  1 -1</clus>
<clus scale="   81.404">  5  6 -1 -1</clus>
<clus scale="   94.013">  7  8 -1 -1</clus>
<clus scale="  102.755">  1  5  2 -1</clus>
<clus scale="   32.034">  2  5  1 -1</clus>
</clustering>
</event>
<event>
 9    1  0.2674825E-005  0.9601717E+02  0.7546771E-02  0.1293130E+00
          1   -1    0    0  502    0  0.00000000000E+00  0.00000000000E+00  0.10632266245E+03  0.10632266245E+03  0.00000000000E+00 0. -1.
         -2   -1    0    0    0  501 -0.00000000000E+00 -0.00000000000E+00 -0.22639018130E+03  0.22639018130E+03  0.00000000000E+00 0.  1.
        -24    2    1    2    0    0  0.17390870264E+02  0.40976845560E+02 -0.99502474655E+02  0.13643979048E+03  0.82058087488E+02 0.  0.
         23    2    1    2    0    0  0.62627307693E+02 -0.12896346464E+02 -0.90106832473E+01  0.11068726888E+03  0.89899853496E+02 0.  0.
         13    1    3    3    0    0  0.41356041413E+02  0.42738937917E+02 -0.94866332116E+02  0.11196678054E+03  0.00000000000E+00 0. -1.
        -14    1    3    3    0    0 -0.23965171148E+02 -0.17620923579E+01 -0.46361425389E+01  0.24473009935E+02  0.00000000000E+00 0.  1.
        -13    1    4    4    0    0 -0.21858799849E+02  0.76943450050E+01 -0.45353380679E+01  0.23613118542E+02  0.00000000000E+00 0.  1.
         13    1    4    4    0    0  0.84486107541E+02 -0.20590691469E+02 -0.44753451794E+01  0.87074150338E+02  0.00000000000E+00 0. -1.
         21    1    1    2  502  501 -0.80018177957E+02 -0.28080499095E+02 -0.11554360951E+02  0.85585784392E+02  0.00000000000E+00 0.  1.
<scales pt_clust_5="13000.00000" pt_clust_6="13000.00000" pt_clust_7="13000.00000" pt_clust_8="13000.00000" pt_clust_9="84.80226"></scales>
<clustering>
<clus scale="   82.058">  5  6 -1 -1</clus>
<clus scale="   84.802">  1  9  2 -1</clus>
<clus scale="   88.718">  2  5  1 -1</clus>
<clus scale="   89.900">  7  8 -1 -1</clus>
<clus scale="   84.802">  1  5  2 -1</clus>
</clustering>
</event>
<event>
 9    1  0.2674825E-005  0.1031558E+03  0.7546771E-02  0.1274608E+00
         -2   -1    0    0    0  501 -0.00000000000E+00  0.00000000000E+00  0.28456944962E+03  0.28456944962E+03  0.00000000000E+00 0.  1.
          1   -1    0    0  502    0  0.00000000000E+00 -0.00000000000E+00 -0.16148762337E+03  0.16148762337E+03  0.00000000000E+00 0. -1.
         23    2    1    2    0    0 -0.30893870515E+02  0.15201515690E+02  0.18079333054E+03  0.20532094718E+03  0.91021676916E+02 0.  0.
        -24    2    1    2    0    0 -0.17380616407E+02  0.54279647244E+02 -0.10046301929E+03  0.14594292919E+03  0.89208488400E+02 0.  0.
         13    1    4    4    0    0  0.26849468827E+02  0.45838111580E+02 -0.81050345960E+02  0.96908126748E+02  0.00000000000E+00 0. -1.
        -14    1    4    4    0    0 -0.44230085235E+02  0.84415356635E+01 -0.19412673331E+02  0.49034802437E+02  0.00000000000E+00 0.  1.
        -11    1    3    3    0    0 -0.38081517903E+02  0.48368521255E+02  0.13451894263E+03  0.14793600569E+03  0.00000000000E+00 0.  1.
         11    1    3    3    0    0  0.71876473884E+01 -0.33167005565E+02  0.46274387917E+02  0.57384941493E+02  0.00000000000E+00 0. -1.
         21    1    1    2  502  501  0.48274486922E+02 -0.69481162934E+02  0.42751515005E+02  0.94793196620E+02  0.00000000000E+00 0.  1.
<scales pt_clust_5="13000.00000" pt_clust_6="13000.00000" pt_clust_7="13000.00000" pt_clust_8="13000.00000" pt_clust_9="84.60531"></scales>
<clustering>
<clus scale="   84.605">  1  9  2 -1</clus>
<clus scale="   89.208">  5  6 -1 -1</clus>
<clus scale="   91.022">  7  8 -1 -1</clus>
<clus scale="  101.560">  2  5  1 -1</clus>
<clus scale="  101.560">  2  5  1 -1</clus>
</clustering>
</event>
<event>
 9    1  0.2674825E-005  0.2050758E+03  0.7546771E-02  0.1146451E+00
         -2   -1    0    0    0  501 -0.00000000000E+00  0.00000000000E+00  0.66889878079E+02  0.66889878079E+02  0.00000000000E+00 0.  1.
          1   -1    0    0  502    0  0.00000000000E+00 -0.00000000000E+00 -0.10772037847E+04  0.10772037847E+04  0.00000000000E+00 0. -1.
         23    2    1    2    0    0 -0.75053863466E+02 -0.17061493700E+03 -0.19171529565E+03  0.28268137057E+03  0.91714031258E+02 0.  0.
        -24    2    1    2    0    0  0.99132718359E+02  0.15395794734E+03 -0.80422432600E+03  0.82879532387E+03  0.81207000533E+02 0.  0.
         11    1    4    4    0    0  0.10731104542E+02  0.90571303572E+02 -0.34324388715E+03  0.35515445049E+03  0.00000000000E+00 0. -1.
        -12    1    4    4    0    0  0.88401613817E+02  0.63386643773E+02 -0.46098043885E+03  0.47364087338E+03  0.00000000000E+00 0.  1.
        -13    1    3    3    0    0 -0.75625165625E+02 -0.12862626488E+03 -0.94068669082E+02  0.17638819744E+03  0.00000000000E+00 0.  1.
         13    1    3    3    0    0  0.57130215893E+00 -0.41988672113E+02 -0.97646626573E+02  0.10629317313E+03  0.00000000000E+00 0. -1.
         21    1    1    2  502  501 -0.24078854893E+02  0.16656989650E+02 -0.14374285007E+02  0.32616968385E+02  0.00000000000E+00 0.  1.
<scales pt_clust_5="13000.00000" pt_clust_6="13000.00000" pt_clust_7="13000.00000" pt_clust_8="13000.00000" pt_clust_9="29.27877"></scales>
<clustering>
<clus scale="   29.279">  1  9  2 -1</clus>
<clus scale="   81.207">  5  6 -1 -1</clus>
<clus scale="   91.714">  7  8 -1 -1</clus>
<clus scale="  200.597">  2  5  1 -1</clus>
<clus scale="  200.597">  2  5  1 -1</clus>
</clustering>
</event>
<event>
 9    1  0.2674825E-005  0.1011712E+03  0.7546771E-02  0.1283510E+00
          1   -1    0    0  502    0  0.00000000000E+00  0.00000000000E+00  0.11982576969E+03  0.11982576969E+03  0.00000000000E+00 0. -1.
         -2   -1    0    0    0  501 -0.00000000000E+00 -0.00000000000E+00 -0.16181050402E+03  0.16181050402E+03  0.00000000000E+00 0.  1.
         23    2    1    2    0    0 -0.37114163486E+02  0.17741088069E+02 -0.10421150613E+03  0.14493802371E+03  0.91949906859E+02 0.  0.
        -24    2    1    2    0    0  0.29001819014E+02 -0.42528948208E+02  0.46406663850E+02  0.10619375920E+03  0.80459425184E+02 0.  0.
         11    1    4    4    0    0  0.43013566730E+02 -0.44961311837E+02  0.60059095279E+02  0.86479948027E+02  0.00000000000E+00 0. -1.
        -12    1    4    4    0    0 -0.14011747717E+02  0.24323636299E+01 -0.13652431429E+02  0.19713811170E+02  0.00000000000E+00 0.  1.
        -13    1    3    3    0    0 -0.96844789638E+01  0.49880620185E+02 -0.83826993639E+02  0.98024641113E+02  0.00000000000E+00 0.  1.
         13    1    3    3    0    0 -0.27429684522E+02 -0.32139532116E+02 -0.20384512490E+02  0.46913382601E+02  0.00000000000E+00 0. -1.
         21    1    1    2  502  501  0.81123444723E+01  0.24787860138E+02  0.15820107949E+02  0.30504490794E+02  0.00000000000E+00 0. -1.
<scales pt_clust_5="13000.00000" pt_clust_6="13000.00000" pt_clust_7="13000.00000" pt_clust_8="13000.00000" pt_clust_9="26.08157"></scales>
<clustering>
<clus scale="   26.082">  1  9  2 -1</clus>
<clus scale="   80.459">  5  6 -1 -1</clus>
<clus scale="   90.855">  1  5  2 -1</clus>
<clus scale="   91.950">  7  8 -1 -1</clus>
<clus scale="   26.082">  1  5  2 -1</clus>
</clustering>
</event>
<event>
 9    1  0.2674825E-005  0.1521515E+03  0.7546771E-02  0.1199836E+00
          1   -1    0    0  502    0  0.00000000000E+00  0.00000000000E+00  0.33507520818E+03  0.33507520818E+03  0.00000000000E+00 0. -1.
         -2   -1    0    0    0  501 -0.00000000000E+00 -0.00000000000E+00 -0.34223260821E+03  0.34223260821E+03  0.00000000000E+00 0.  1.
         23    2    1    2    0    0  0.96369224745E+02  0.87242966086E+02 -0.29220729365E+03  0.33242761945E+03  0.90689895269E+02 0.  0.
        -24    2    1    2    0    0 -0.75430195849E+02 -0.89433052193E+01  0.13267565743E+03  0.17229054580E+03  0.79444980607E+02 0.  0.
         13    1    4    4    0    0 -0.87618621452E+02 -0.22631300736E+02  0.10032275869E+03  0.13510682629E+03  0.00000000000E+00 0. -1.
        -14    1    4    4    0    0  0.12188425603E+02  0.13687995517E+02  0.32352898742E+02  0.37183719515E+02  0.00000000000E+00 0.  1.
        -13    1    3    3    0    0  0.66943652017E+02  0.31691204597E+02 -0.23853125748E+03  0.24976578186E+03  0.00000000000E+00 0. -1.
         13    1    3    3    0    0  0.29425572728E+02  0.55551761490E+02 -0.53676036167E+02  0.82661837589E+02  0.00000000000E+00 0.  1.
         21    1    1    2  502  501 -0.20939028896E+02 -0.78299660867E+02  0.15237423618E+03  0.17258965113E+03  0.00000000000E+00 0. -1.
<scales pt_clust_5="13000.00000" pt_clust_6="13000.00000" pt_clust_7="13000.00000" pt_clust_8="13000.00000" pt_clust_9="81.05109"></scales>
<clustering>
<clus scale="   79.445">  5  6 -1 -1</clus>
<clus scale="   81.051">  1  9  2 -1</clus>
<clus scale="   90.690">  7  8 -1 -1</clus>
<clus scale="  145.729">  1  5  2 -1</clus>
<clus scale="   81.051">  1  5  2 -1</clus>
</clustering>
</event>
<event>
 9    1  0.2674825E-005  0.2704749E+03  0.7546771E-02  0.1101527E+00
         -2   -1    0    0    0  501 -0.00000000000E+00  0.00000000000E+00  0.96318910144E+02  0.96318910144E+02  0.00000000000E+00 0.  1.
          1   -1    0    0  502    0  0.00000000000E+00 -0.00000000000E+00 -0.93689379567E+03  0.93689379567E+03  0.00000000000E+00 0. -1.
        -24    2    1    2    0    0 -0.69330018042E+02 -0.27479853044E+03 -0.36763744303E+03  0.47115216041E+03  0.80660926127E+02 0.  0.
         23    2    1    2    0    0  0.47833439583E+02  0.22978775062E+03 -0.41556664204E+03  0.48603764142E+03  0.91904878135E+02 0.  0.
         13    1    3    3    0    0 -0.47049773541E+02 -0.18837239511E+03 -0.30701956843E+03  0.36326141528E+03  0.00000000000E+00 0. -1.
        -14    1    3    3    0    0 -0.22280244501E+02 -0.86426135331E+02 -0.60617874594E+02  0.10789074512E+03  0.00000000000E+00 0.  1.
        -11    1    4    4    0    0  0.23558907697E+02  0.22230496986E+03 -0.39264133606E+03  0.45182047379E+03  0.00000000000E+00 0. -1.
         11    1    4    4    0    0  0.24274531886E+02  0.74827807569E+01 -0.22925305984E+02  0.34217167630E+02  0.00000000000E+00 0.  1.
         21    1    1    2  502  501  0.21496578459E+02  0.45010779825E+02 -0.57370800458E+02  0.76022903990E+02  0.00000000000E+00 0.  1.
<scales pt_clust_5="13000.00000" pt_clust_6="13000.00000" pt_clust_7="13000.00000" pt_clust_8="13000.00000" pt_clust_9="49.88059"></scales>
<clustering>
<clus scale="   49.881">  1  9  2 -1</clus>
<clus scale="   80.661">  5  6 -1 -1</clus>
<clus scale="   91.905">  7  8 -1 -1</clus>
<clus scale="  266.864">  1  5  2 -1</clus>
<clus scale="  270.475">  2  5  1 -1</clus>
</clustering>
</event>
<event>
 9    1  0.5437505E-005  0.9808811E+02  0.7546771E-02  0.1291965E+00
          1   -1    0    0  502    0  0.00000000000E+00  0.00000000000E+00  0.21486229711E+03  0.21486229711E+03  0.00000000000E+00 0. -1.
         -2   -1    0    0    0  501 -0.00000000000E+00 -0.00000000000E+00 -0.22751728626E+03  0.22751728626E+03  0.00000000000E+00 0.  1.
        -24    2    1    2    0    0  0.14317583032E+02 -0.62412417321E+01 -0.19526959325E+03  0.21096592929E+03  0.78310043983E+02 0.  0.
         23    2    1    2    0    0 -0.34074659847E+02 -0.44697942624E+01  0.18420173625E+03  0.20888395446E+03  0.92310158094E+02 0.  0.
         13    1    3    3    0    0 -0.28133292382E+02 -0.13778303055E+02 -0.46445368920E+02  0.56022281901E+02  0.00000000000E+00 0. -1.
        -14    1    3    3    0    0  0.42450875414E+02  0.75370613225E+01 -0.14882422434E+03  0.15494364739E+03  0.00000000000E+00 0.  1.
        -11    1    4    4    0    0 -0.29950254081E+02  0.41742803857E+02  0.84066449623E+02  0.98522319022E+02  0.00000000000E+00 0.  1.
         11    1    4    4    0    0 -0.41244057664E+01 -0.46212598119E+02  0.10013528663E+03  0.11036163544E+03  0.00000000000E+00 0. -1.
         21    1    1    2  502  501  0.19757076816E+02  0.10711035995E+02 -0.15871321474E+01  0.22529699617E+02  0.00000000000E+00 0. -1.
<scales pt_clust_5="13000.00000" pt_clust_6="13000.00000" pt_clust_7="13000.00000" pt_clust_8="13000.00000" pt_clust_9="22.47373"></scales>
<clustering>
<clus scale="   22.474">  2  9  1 -1</clus>
<clus scale="   78.310">  5  6 -1 -1</clus>
<clus scale="   85.045">  2  5  1 -1</clus>
<clus scale="   92.310">  7  8 -1 -1</clus>
<clus scale="   98.088">  1  5  2 -1</clus>
</clustering>
</event>
<event>
 9    1  0.2674825E-005  0.1011990E+03  0.7546771E-02  0.1284128E+00
         -2   -1    0    0    0  501 -0.00000000000E+00  0.00000000000E+00  0.56466740500E+02  0.56466740500E+02  0.00000000000E+00 0.  1.
          1   -1    0    0  502    0  0.00000000000E+00 -0.00000000000E+00 -0.24113780104E+03  0.24113780104E+03  0.00000000000E+00 0. -1.
        -24    2    1    2    0    0 -0.15019627635E+02 -0.45933890315E+02 -0.25098215933E+02  0.95950478782E+02  0.79000395200E+02 0.  0.
         23    2    1    2    0    0  0.24034040930E+02  0.22109837840E+02 -0.11998318811E+03  0.15457767776E+03  0.91824903911E+02 0.  0.
         11    1    3    3    0    0  0.29346465597E+02 -0.28001162968E+02 -0.25836337011E+02  0.48091542715E+02  0.00000000000E+00 0. -1.
        -12    1    3    3    0    0 -0.44366093232E+02 -0.17932727347E+02  0.73812107812E+00  0.47858936067E+02  0.00000000000E+00 0.  1.
        -13    1    4    4    0    0  0.52965670011E+02  0.32273414054E+02 -0.10096462102E+03  0.11849384014E+03  0.00000000000E+00 0. -1.
         13    1    4    4    0    0 -0.28931629081E+02 -0.10163576214E+02 -0.19018567097E+02  0.36083837616E+02  0.00000000000E+00 0.  1.
         21    1    1    2  502  501 -0.90144132952E+01  0.23824052474E+02 -0.39589656490E+02  0.47076384997E+02  0.00000000000E+00 0.  1.
<scales pt_clust_5="13000.00000" pt_clust_6="13000.00000" pt_clust_7="13000.00000" pt_clust_8="13000.00000" pt_clust_9="25.47244"></scales>
<clustering>
<clus scale="   25.472">  2  9  1 -1</clus>
<clus scale="   79.000">  5  6 -1 -1</clus>
<clus scale="   89.725">  1  5  2 -1</clus>
<clus scale="   91.825">  7  8 -1 -1</clus>
<clus scale="   25.472">  2  5  1 -1</clus>
</clustering>
</event>
<event>
 9    1  0.2674825E-005  0.1546565E+03  0.7546771E-02  0.1197022E+00
         -2   -1    0    0    0  501 -0.00000000000E+00  0.00000000000E+00  0.16759340059E+03  0.16759340059E+03  0.00000000000E+00 0.  1.
          1   -1    0    0  502    0  0.00000000000E+00 -0.00000000000E+00 -0.38986483004E+03  0.38986483004E+03  0.00000000000E+00 0. -1.
        -24    2    1    2    0    0 -0.10818937553E+03  0.37070881277E+01  0.51498503581E+02  0.14386636782E+03  0.79540885336E+02 0.  0.
         23    2    1    2    0    0  0.19258335823E+03 -0.56730230323E+01 -0.13977032081E+03  0.25521855289E+03  0.92088186546E+02 0.  0.
         11    1    3    3    0    0 -0.54425024535E+02  0.23024214877E+02 -0.99911300615E+01  0.59933466830E+02  0.00000000000E+00 0. -1.
        -12    1    3    3    0    0 -0.53764350990E+02 -0.19317126750E+02  0.61489633643E+02  0.83932900991E+02  0.00000000000E+00 0.  1.
        -13    1    4    4    0    0  0.65048732533E+02 -0.93707785954E+01  0.33866598986E+00  0.65721106125E+02  0.00000000000E+00 0.  1.
         13    1    4    4    0    0  0.12753462570E+03  0.36977555631E+01 -0.14010898680E+03  0.18949744676E+03  0.00000000000E+00 0. -1.
         21    1    1    2  502  501 -0.84393982709E+02  0.19659349046E+01 -0.13399961222E+03  0.15837330992E+03  0.00000000000E+00 0. -1.
<scales pt_clust_5="13000.00000" pt_clust_6="13000.00000" pt_clust_7="13000.00000" pt_clust_8="13000.00000" pt_clust_9="84.41688"></scales>
<clustering>
<clus scale="   79.541">  5  6 -1 -1</clus>
<clus scale="   84.417">  2  9  1 -1</clus>
<clus scale="   92.088">  7  8 -1 -1</clus>
<clus scale="  147.530">  1  5  2 -1</clus>
<clus scale="   84.417">  2  5  1 -1</clus>
</clustering>
</event>
<event>
 9    1  0.2674825E-005  0.9357509E+02  0.7546771E-02  0.1301948E+00
         -2   -1    0    0    0  501 -0.00000000000E+00  0.00000000000E+00  0.12645174158E+03  0.12645174158E+03  0.00000000000E+00 0.  1.
          1   -1    0    0  502    0  0.00000000000E+00 -0.00000000000E+00 -0.10734144773E+03  0.10734144773E+03  0.00000000000E+00 0. -1.
         23    2    1    2    0    0 -0.11767873867E+02  0.13832623354E+02  0.66265198332E+02  0.11404672773E+03  0.91026124111E+02 0.  0.
        -24    2    1    2    0    0  0.40570326030E+01 -0.32802092486E+02 -0.23239484140E+02  0.88262415430E+02  0.78471291371E+02 0.  0.
         13    1    4    4    0    0 -0.30858765581E+02 -0.13581054961E+02 -0.33053840341E+02  0.47215091108E+02  0.00000000000E+00 0. -1.
        -14    1    4    4    0    0  0.34915798184E+02 -0.19221037525E+02  0.98143562012E+01  0.41047324322E+02  0.00000000000E+00 0.  1.
        -11    1    3    3    0    0  0.14214399910E+02  0.30377069012E+02  0.74892213961E+02  0.82058876415E+02  0.00000000000E+00 0.  1.
         11    1    3    3    0    0 -0.25982273778E+02 -0.16544445659E+02 -0.86270156287E+01  0.31987851310E+02  0.00000000000E+00 0. -1.
         21    1    1    2  502  501  0.77108412644E+01  0.18969469133E+02 -0.23915420340E+02  0.31484046154E+02  0.00000000000E+00 0.  1.
<scales pt_clust_5="13000.00000" pt_clust_6="13000.00000" pt_clust_7="13000.00000" pt_clust_8="13000.00000" pt_clust_9="20.47676"></scales>
<clustering>
<clus scale="   20.477">  2  9  1 -1</clus>
<clus scale="   78.471">  5  6 -1 -1</clus>
<clus scale="   81.414">  2  5  1 -1</clus>
<clus scale="   91.026">  7  8 -1 -1</clus>
<clus scale="   20.477">  2  5  1 -1</clus>
</clustering>
</event>
<event>
 9    1  0.2674825E-005  0.2388672E+03  0.7546771E-02  0.1120987E+00
          1   -1    0    0  502    0  0.00000000000E+00  0.00000000000E+00  0.63076163692E+03  0.63076163692E+03  0.00000000000E+00 0. -1.
         -2   -1    0    0    0  501 -0.00000000000E+00 -0.00000000000E+00 -0.19095022192E+03  0.19095022192E+03  0.00000000000E+00 0.  1.
         23    2    1    2    0    0 -0.22859355726E+03 -0.20767903219E+02 -0.65224413476E+02  0.25431963808E+03  0.87965527210E+02 0.  0.
        -24    2    1    2    0    0  0.19138939003E+03 -0.10928639652E+02  0.38091935276E+03  0.43399911587E+03  0.80661920906E+02 0.  0.
         11    1    4    4    0    0  0.16153950210E+03  0.17515887086E+02  0.26371803562E+03  0.30975638710E+03  0.00000000000E+00 0. -1.
        -12    1    4    4    0    0  0.29849887925E+02 -0.28444526738E+02  0.11720131715E+03  0.12424272877E+03  0.00000000000E+00 0.  1.
        -11    1    3    3    0    0 -0.11821255427E+03  0.21601099838E+02 -0.63847563244E+02  0.13607838488E+03  0.00000000000E+00 0.  1.
         11    1    3    3    0    0 -0.11038100299E+03 -0.42369003057E+02 -0.13768502318E+01  0.11824125320E+03  0.00000000000E+00 0. -1.
         21    1    1    2  502  501  0.37204167230E+02  0.31696542871E+02  0.12411647571E+03  0.13339310489E+03  0.00000000000E+00 0.  1.
<scales pt_clust_5="13000.00000" pt_clust_6="13000.00000" pt_clust_7="13000.00000" pt_clust_8="13000.00000" pt_clust_9="48.87557"></scales>
<clustering>
<clus scale="   48.876">  1  9  2 -1</clus>
<clus scale="   80.662">  5  6 -1 -1</clus>
<clus scale="   87.966">  7  8 -1 -1</clus>
<clus scale="  236.275">  1  5  2 -1</clus>
<clus scale="   48.876">  1  5  2 -1</clus>
</clustering>
</event>
<event>
 9    1  0.2674825E-005  0.2576628E+03  0.7546771E-02  0.1131310E+00
          1   -1    0    0  502    0  0.00000000000E+00  0.00000000000E+00  0.10554167390E+04  0.10554167390E+04  0.00000000000E+00 0. -1.
         -2   -1    0    0    0  501 -0.00000000000E+00 -0.00000000000E+00 -0.15922168732E+03  0.15922168732E+03  0.00000000000E+00 0.  1.
         23    2    1    2    0    0  0.22321428055E+03 -0.13123561424E+03  0.14216793675E+02  0.28361233282E+03  0.11483221070E+03 0.  0.
        -24    2    1    2    0    0 -0.12114674992E+03  0.18438721936E+02  0.45063123989E+03  0.47364094971E+03  0.79061453300E+02 0.  0.
         13    1    4    4    0    0 -0.51046789996E+02  0.27546514920E+02  0.31898911462E+03  0.32422004950E+03  0.00000000000E+00 0. -1.
        -14    1    4    4    0    0 -0.70099959924E+02 -0.91077929838E+01  0.13164212527E+03  0.14942090021E+03  0.00000000000E+00 0.  1.
        -11    1    3    3    0    0  0.14585184995E+03 -0.11114964942E+03  0.58189110595E+02  0.19238757572E+03  0.00000000000E+00 0.  1.
         11    1    3    3    0    0  0.77362430607E+02 -0.20085964817E+02 -0.43972316920E+02  0.91224757097E+02  0.00000000000E+00 0. -1.
         21    1    1    2  502  501 -0.10206753063E+03  0.11279689230E+03  0.43134701810E+03  0.45738514377E+03  0.00000000000E+00 0. -1.
<scales pt_clust_5="13000.00000" pt_clust_6="13000.00000" pt_clust_7="13000.00000" pt_clust_8="13000.00000" pt_clust_9="230.65924"></scales>
<clustering>
<clus scale="   79.061">  5  6 -1 -1</clus>
<clus scale="  114.832">  7  8 -1 -1</clus>
<clus scale="  145.833">  1  5  2 -1</clus>
<clus scale="  230.659">  1  9  2 -1</clus>
<clus scale="  145.833">  1  5  2 -1</clus>
</clustering>
</event>
<event>
 9    1  0.2674825E-005  0.1056346E+03  0.7546771E-02  0.1277552E+00
          1   -1    0    0  502    0  0.00000000000E+00  0.00000000000E+00  0.10828241691E+03  0.10828241691E+03  0.00000000000E+00 0. -1.
         -2   -1    0    0    0  501 -0.00000000000E+00 -0.00000000000E+00 -0.55061958879E+03  0.55061958879E+03  0.00000000000E+00 0.  1.
        -24    2    1    2    0    0  0.40913918784E+02 -0.73237022283E+01 -0.46763699580E+03  0.47654867249E+03  0.81772196040E+02 0.  0.
         23    2    1    2    0    0  0.19239897141E+02 -0.27599636478E+02 -0.82277116590E+01  0.10513794097E+03  0.99269218876E+02 0.  0.
         11    1    3    3    0    0 -0.56489437260E+01 -0.25986456487E+02 -0.57459257625E+02  0.63314870077E+02  0.00000000000E+00 0. -1.
        -12    1    3    3    0    0  0.46562862510E+02  0.18662754259E+02 -0.41017773818E+03  0.41323380242E+03  0.00000000000E+00 0.  1.
        -13    1    4    4    0    0  0.36576155627E+02  0.15646263947E+02 -0.33611725130E+02  0.52080407086E+02  0.00000000000E+00 0.  1.
         13    1    4    4    0    0 -0.17336258486E+02 -0.43245900425E+02  0.25384013471E+02  0.53057533883E+02  0.00000000000E+00 0. -1.
         21    1    1    2  502  501 -0.60153815925E+02  0.34923338707E+02  0.33527535580E+02  0.77215392240E+02  0.00000000000E+00 0. -1.
<scales pt_clust_5="13000.00000" pt_clust_6="13000.00000" pt_clust_7="13000.00000" pt_clust_8="13000.00000" pt_clust_9="69.55660"></scales>
<clustering>
<clus scale="   69.557">  1  9  2 -1</clus>
<clus scale="   81.772">  5  6 -1 -1</clus>
<clus scale="   89.392">  2  5  1 -1</clus>
<clus scale="   99.269">  7  8 -1 -1</clus>
<clus scale="   69.557">  1  5  2 -1</clus>
</clustering>
</event>
<event>
 9    1  0.2674825E-005  0.1253881E+03  0.7546771E-02  0.1238682E+00
         -2   -1    0    0    0  501 -0.00000000000E+00  0.00000000000E+00  0.47774499550E+03  0.47774499550E+03  0.00000000000E+00 0.  1.
          1   -1    0    0  502    0  0.00000000000E+00 -0.00000000000E+00 -0.73453629531E+02  0.73453629531E+02  0.00000000000E+00 0. -1.
        -24    2    1    2    0    0 -0.50978517159E+02  0.70196584863E+02  0.38919934498E+03  0.40679682430E+03  0.80505629543E+02 0.  0.
         23    2    1    2    0    0  0.31187112105E+02 -0.50207008450E+02  0.25315499230E+02  0.11447184272E+03  0.94707700936E+02 0.  0.
         13    1    3    3    0    0 -0.83337424783E+01  0.39178023177E+02  0.52717767205E+02  0.66208245278E+02  0.00000000000E+00 0. -1.
        -14    1    3    3    0    0 -0.42644774680E+02  0.31018561686E+02  0.33648157778E+03  0.34058857902E+03  0.00000000000E+00 0.  1.
        -11    1    4    4    0    0 -0.73723206622E+01 -0.68510904890E+02  0.17257286257E+02  0.71034562923E+02  0.00000000000E+00 0. -1.
         11    1    4    4    0    0  0.38559432767E+02  0.18303896440E+02  0.80582129728E+01  0.43437279801E+02  0.00000000000E+00 0.  1.
         21    1    1    2  502  501  0.19791405054E+02 -0.19989576413E+02 -0.10223478239E+02  0.29929958010E+02  0.00000000000E+00 0.  1.
<scales pt_clust_5="13000.00000" pt_clust_6="13000.00000" pt_clust_7="13000.00000" pt_clust_8="13000.00000" pt_clust_9="28.12975"></scales>
<clustering>
<clus scale="   28.130">  2  9  1 -1</clus>
<clus scale="   80.506">  5  6 -1 -1</clus>
<clus scale="   94.708">  7  8 -1 -1</clus>
<clus scale="  115.038">  1  5  2 -1</clus>
<clus scale="   28.130">  2  5  1 -1</clus>
</clustering>
</event>
<event>
 9    1  0.2674825E-005  0.8788098E+02  0.7546771E-02  0.1311612E+00
         -2   -1    0    0    0  501 -0.00000000000E+00  0.00000000000E+00  0.19475016024E+03  0.19475016024E+03  0.00000000000E+00 0.  1.
          1   -1    0    0  502    0  0.00000000000E+00 -0.00000000000E+00 -0.23481148515E+03  0.23481148515E+03  0.00000000000E+00 0. -1.
         23    2    1    2    0    0  0.51860566549E+02 -0.32945981604E+02  0.14329174195E+03  0.17820017468E+03  0.86300769866E+02 0.  0.
        -24    2    1    2    0    0 -0.13022489252E+02  0.57149570397E+01 -0.18661187101E+03  0.20381628428E+03  0.80714567311E+02 0.  0.
         11    1    4    4    0    0 -0.39360616072E+02 -0.12949333251E+02 -0.14693857381E+03  0.15266921039E+03  0.00000000000E+00 0. -1.
        -12    1    4    4    0    0  0.26338126821E+02  0.18664290291E+02 -0.39673297202E+02  0.51147073889E+02  0.00000000000E+00 0.  1.
        -11    1    3    3    0    0  0.22494814816E+02 -0.42355269248E+02  0.21485064371E+02  0.52550866004E+02  0.00000000000E+00 0. -1.
         11    1    3    3    0    0  0.29365751733E+02  0.94092876440E+01  0.12180667758E+03  0.12564930868E+03  0.00000000000E+00 0.  1.
         21    1    1    2  502  501 -0.38838077297E+02  0.27231024565E+02  0.32588041510E+01  0.47545186417E+02  0.00000000000E+00 0.  1.
<scales pt_clust_5="13000.00000" pt_clust_6="13000.00000" pt_clust_7="13000.00000" pt_clust_8="13000.00000" pt_clust_9="47.43337"></scales>
<clustering>
<clus scale="   47.433">  1  9  2 -1</clus>
<clus scale="   80.715">  5  6 -1 -1</clus>
<clus scale="   82.402">  2  5  1 -1</clus>
<clus scale="   86.301">  7  8 -1 -1</clus>
<clus scale="   82.402">  2  5  1 -1</clus>
</clustering>
</event>
<event>
 9    1  0.2674825E-005  0.1191255E+03  0.7546771E-02  0.1245590E+00
         -2   -1    0    0    0  501 -0.00000000000E+00  0.00000000000E+00  0.54696224754E+02  0.54696224754E+02  0.00000000000E+00 0.  1.
          1   -1    0    0  502    0  0.00000000000E+00 -0.00000000000E+00 -0.47184637916E+03  0.47184637916E+03  0.00000000000E+00 0. -1.
        -24    2    1    2    0    0 -0.10054453326E+02 -0.61562699286E+02 -0.45217788482E+02  0.11141025859E+03  0.80476949173E+02 0.  0.
         23    2    1    2    0    0  0.41721523682E+02  0.82497329389E+02 -0.34922558560E+03  0.37089819613E+03  0.84026587226E+02 0.  0.
         13    1    3    3    0    0 -0.21998576945E+02  0.15746244295E+01 -0.41559539064E+02  0.47049039489E+02  0.00000000000E+00 0. -1.
        -14    1    3    3    0    0  0.11944123618E+02 -0.63137323715E+02 -0.36582494183E+01  0.64361219098E+02  0.00000000000E+00 0.  1.
        -11    1    4    4    0    0  0.26348441418E+02  0.59602983238E+02 -0.33210660430E+03  0.33843988033E+03  0.00000000000E+00 0. -1.
         11    1    4    4    0    0  0.15373082264E+02  0.22894346150E+02 -0.17118981295E+02  0.32458315800E+02  0.00000000000E+00 0.  1.
         21    1    1    2  502  501 -0.31667070356E+02 -0.20934630103E+02 -0.22706780324E+02  0.44234149196E+02  0.00000000000E+00 0.  1.
<scales pt_clust_5="13000.00000" pt_clust_6="13000.00000" pt_clust_7="13000.00000" pt_clust_8="13000.00000" pt_clust_9="37.96132"></scales>
<clustering>
<clus scale="   37.961">  1  9  2 -1</clus>
<clus scale="   80.477">  5  6 -1 -1</clus>
<clus scale="   84.027">  7  8 -1 -1</clus>
<clus scale="  116.649">  1  5  2 -1</clus>
<clus scale="  119.126">  2  5  1 -1</clus>
</clustering>
</event>
<event>
 9    1  0.2674825E-005  0.2910597E+03  0.7546771E-02  0.1090204E+00
          1   -1    0    0  502    0  0.00000000000E+00  0.00000000000E+00  0.20037416923E+03  0.20037416923E+03  0.00000000000E+00 0. -1.
         -2   -1    0    0    0  501 -0.00000000000E+00 -0.00000000000E+00 -0.55354367928E+03  0.55354367928E+03  0.00000000000E+00 0.  1.
        -24    2    1    2    0    0 -0.29119118248E+03  0.90112740711E+02 -0.24336415845E+03  0.39824554552E+03  0.80379040276E+02 0.  0.
         23    2    1    2    0    0  0.22384294103E+03 -0.10294146685E+03 -0.11546843932E+03  0.28687962604E+03  0.90908478772E+02 0.  0.
         11    1    3    3    0    0 -0.21273069961E+02  0.23464429800E+02 -0.50735376006E+01  0.32075906148E+02  0.00000000000E+00 0. -1.
        -12    1    3    3    0    0 -0.26991811252E+03  0.66648310910E+02 -0.23829062085E+03  0.36616963937E+03  0.00000000000E+00 0.  1.
        -11    1    4    4    0    0  0.16703398040E+03 -0.35013035743E+02 -0.97402298544E+02  0.19650310695E+03  0.00000000000E+00 0.  1.
         11    1    4    4    0    0  0.56808960633E+02 -0.67928431103E+02 -0.18066140776E+02  0.90376519090E+02  0.00000000000E+00 0. -1.
         21    1    1    2  502  501  0.67348241448E+02  0.12828726136E+02  0.56630877213E+01  0.68792676957E+02  0.00000000000E+00 0. -1.
<scales pt_clust_5="13000.00000" pt_clust_6="13000.00000" pt_clust_7="13000.00000" pt_clust_8="13000.00000" pt_clust_9="68.55918"></scales>
<clustering>
<clus scale="   68.559">  1  9  2 -1</clus>
<clus scale="   80.379">  5  6 -1 -1</clus>
<clus scale="   90.908">  7  8 -1 -1</clus>
<clus scale="  287.945">  2  5  1 -1</clus>
<clus scale="   68.559">  1  5  2 -1</clus>
</clustering>
</event>
<event>
 9    1  0.2674825E-005  0.2045468E+03  0.7546771E-02  0.1146138E+00
          1   -1    0    0  502    0  0.00000000000E+00  0.00000000000E+00  0.33473204166E+03  0.33473204166E+03  0.00000000000E+00 0. -1.
         -2   -1    0    0    0  501 -0.00000000000E+00 -0.00000000000E+00 -0.24992338872E+03  0.24992338872E+03  0.00000000000E+00 0.  1.
         23    2    1    2    0    0 -0.16595991513E+03  0.82035877063E+02 -0.14325467394E+03  0.24731267890E+03  0.79806522188E+02 0.  0.
        -24    2    1    2    0    0  0.16621520851E+03 -0.11142246683E+03  0.21575454910E+03  0.30548144511E+03  0.82014792519E+02 0.  0.
         11    1    4    4    0    0  0.14373222593E+03 -0.58951589724E+02  0.13055409792E+03  0.20292514676E+03  0.00000000000E+00 0. -1.
        -12    1    4    4    0    0  0.22482982581E+02 -0.52470877110E+02  0.85200451180E+02  0.10255629835E+03  0.00000000000E+00 0.  1.
        -13    1    3    3    0    0 -0.78205965690E+02 -0.44359263755E+01 -0.58788494902E+02  0.97938438037E+02  0.00000000000E+00 0.  1.
         13    1    3    3    0    0 -0.87753949442E+02  0.86471803439E+02 -0.84466179041E+02  0.14937424087E+03  0.00000000000E+00 0. -1.
         21    1    1    2  502  501 -0.25529338351E+00  0.29386589771E+02  0.12308777784E+02  0.31861306370E+02  0.00000000000E+00 0.  1.
<scales pt_clust_5="13000.00000" pt_clust_6="13000.00000" pt_clust_7="13000.00000" pt_clust_8="13000.00000" pt_clust_9="29.38770"></scales>
<clustering>
<clus scale="   29.388">  1  9  2 -1</clus>
<clus scale="   79.807">  7  8 -1 -1</clus>
<clus scale="   82.015">  5  6 -1 -1</clus>
<clus scale="  203.671">  2  7  1 -1</clus>
<clus scale="   29.388">  1  5  2 -1</clus>
</clustering>
</event>
<event>
 9    1  0.2674825E-005  0.1061477E+03  0.7546771E-02  0.1272027E+00
         -2   -1    0    0    0  501 -0.00000000000E+00  0.00000000000E+00  0.16313622178E+03  0.16313622178E+03  0.00000000000E+00 0.  1.
          1   -1    0    0  502    0  0.00000000000E+00 -0.00000000000E+00 -0.97508585297E+02  0.97508585297E+02  0.00000000000E+00 0. -1.
         23    2    1    2    0    0 -0.55458293040E+02 -0.45027801133E+01  0.82352674292E+02  0.13453291249E+03  0.90671077443E+02 0.  0.
        -24    2    1    2    0    0  0.54262661201E+02 -0.20812192635E+02 -0.12403154310E+02  0.10040282891E+03  0.80927782950E+02 0.  0.
         11    1    4    4    0    0  0.28804875627E+02 -0.15958244809E+02 -0.46868681298E+02  0.57280535297E+02  0.00000000000E+00 0. -1.
        -12    1    4    4    0    0  0.25457785574E+02 -0.48539478254E+01  0.34465526988E+02  0.43122293612E+02  0.00000000000E+00 0.  1.
        -13    1    3    3    0    0 -0.48769689793E+02  0.21176072859E+02  0.57671293923E+01  0.53480543056E+02  0.00000000000E+00 0. -1.
         13    1    3    3    0    0 -0.66886032471E+01 -0.25678852972E+02  0.76585544900E+02  0.81052369435E+02  0.00000000000E+00 0.  1.
         21    1    1    2  502  501  0.11956318390E+01  0.25314972748E+02 -0.43218835028E+01  0.25709065672E+02  0.00000000000E+00 0. -1.
<scales pt_clust_5="13000.00000" pt_clust_6="13000.00000" pt_clust_7="13000.00000" pt_clust_8="13000.00000" pt_clust_9="25.34319"></scales>
<clustering>
<clus scale="   25.343">  2  9  1 -1</clus>
<clus scale="   80.928">  5  6 -1 -1</clus>
<clus scale="   90.671">  7  8 -1 -1</clus>
<clus scale="   97.956">  2  5  1 -1</clus>
<clus scale="   25.343">  2  5  1 -1</clus>
</clustering>
</event>
<event>
 9    1  0.2674825E-005  0.9138640E+02  0.7546771E-02  0.1300628E+00
          3   -1    0    0  502    0  0.00000000000E+00  0.00000000000E+00  0.40812491322E+03  0.40812491322E+03  0.00000000000E+00 0. -1.
         -4   -1    0    0    0  501 -0.00000000000E+00 -0.00000000000E+00 -0.43088000435E+02  0.43088000435E+02  0.00000000000E+00 0.  1.
        -24    2    1    2    0    0 -0.13659380176E+02  0.45749587086E+02  0.45933121461E+02  0.10515190193E+03  0.81654561707E+02 0.  0.
         23    2    1    2    0    0 -0.67300268174E+01 -0.16039654271E+02  0.14532073243E+03  0.16858154930E+03  0.83660383206E+02 0.  0.
         13    1    3    3    0    0 -0.10865128144E+02  0.36533816694E+02  0.69737248198E+02  0.79473609192E+02  0.00000000000E+00 0. -1.
        -14    1    3    3    0    0 -0.27942520317E+01  0.92157703929E+01 -0.23804126737E+02  0.25678292741E+02  0.00000000000E+00 0.  1.
        -11    1    4    4    0    0  0.27049458920E+01  0.22110420594E+02  0.11950054398E+03  0.12155890524E+03  0.00000000000E+00 0. -1.
         11    1    4    4    0    0 -0.94349727094E+01 -0.38150074865E+02  0.25820188447E+02  0.47022644052E+02  0.00000000000E+00 0.  1.
         21    1    1    2  502  501  0.20389406993E+02 -0.29709932815E+02  0.17378305890E+03  0.17747946243E+03  0.00000000000E+00 0. -1.
<scales pt_clust_5="13000.00000" pt_clust_6="13000.00000" pt_clust_7="13000.00000" pt_clust_8="13000.00000" pt_clust_9="36.03343"></scales>
<clustering>
<clus scale="   36.033">  1  9  2 -1</clus>
<clus scale="   81.655">  5  6 -1 -1</clus>
<clus scale="   83.660">  7  8 -1 -1</clus>
<clus scale="   89.554">  2  5  1 -1</clus>
<clus scale="   36.033">  1  5  2 -1</clus>
</clustering>
</event>
<event>
 9    1  0.2674825E-005  0.1058313E+03  0.7546771E-02  0.1277455E+00
          1   -1    0    0  502    0  0.00000000000E+00  0.00000000000E+00  0.66870723629E+02  0.66870723629E+02  0.00000000000E+00 0. -1.
         -2   -1    0    0    0  501 -0.00000000000E+00 -0.00000000000E+00 -0.31849960324E+03  0.31849960324E+03  0.00000000000E+00 0.  1.
        -24    2    1    2    0    0  0.37473821887E+02 -0.89993535304E+01 -0.21987662977E+03  0.23714404889E+03  0.80039314811E+02 0.  0.
         23    2    1    2    0    0 -0.46263323793E+02 -0.19183505901E+02 -0.86053502968E+01  0.11071217572E+03  0.98360722711E+02 0.  0.
         13    1    3    3    0    0 -0.65404629548E+01  0.25623207843E+02 -0.11763459481E+03  0.12057041234E+03  0.00000000000E+00 0. -1.
        -14    1    3    3    0    0  0.44014284842E+02 -0.34622561374E+02 -0.10224203496E+03  0.11657363655E+03  0.00000000000E+00 0.  1.
        -11    1    4    4    0    0 -0.31753094177E+02  0.61715369696E+01  0.41557453775E+02  0.52662784038E+02  0.00000000000E+00 0. -1.
         11    1    4    4    0    0 -0.14510229616E+02 -0.25355042871E+02 -0.50162804072E+02  0.58049391684E+02  0.00000000000E+00 0.  1.
         21    1    1    2  502  501  0.87895019060E+01  0.28182859431E+02 -0.23146899547E+02  0.37514102257E+02  0.00000000000E+00 0. -1.
<scales pt_clust_5="13000.00000" pt_clust_6="13000.00000" pt_clust_7="13000.00000" pt_clust_8="13000.00000" pt_clust_9="29.52167"></scales>
<clustering>
<clus scale="   29.522">  1  9  2 -1</clus>
<clus scale="   80.039">  5  6 -1 -1</clus>
<clus scale="   89.060">  2  5  1 -1</clus>
<clus scale="   98.361">  7  8 -1 -1</clus>
<clus scale="   29.522">  1  5  2 -1</clus>
</clustering>
</event>
<event>
 9    1  0.2674825E-005  0.1256118E+03  0.7546771E-02  0.1236824E+00
         -2   -1    0    0    0  501 -0.00000000000E+00  0.00000000000E+00  0.65213175114E+03  0.65213175114E+03  0.00000000000E+00 0.  1.
          1   -1    0    0  502    0  0.00000000000E+00 -0.00000000000E+00 -0.64739593685E+02  0.64739593685E+02  0.00000000000E+00 0. -1.
        -24    2    1    2    0    0 -0.22398870190E+02 -0.67392292165E+01  0.35736381088E+03  0.36804553199E+03  0.84861614936E+02 0.  0.
         23    2    1    2    0    0  0.95201120912E+02 -0.27624834713E+02  0.39952803253E+02  0.14240447487E+03  0.94108570597E+02 0.  0.
         13    1    3    3    0    0  0.10285347203E+02 -0.33325058878E+02  0.76953995398E+02  0.84488255539E+02  0.00000000000E+00 0. -1.
        -14    1    3    3    0    0 -0.32684217393E+02  0.26585829662E+02  0.28040981549E+03  0.28355727645E+03  0.00000000000E+00 0.  1.
        -11    1    4    4    0    0  0.15184593466E+02 -0.49888003327E+02  0.53244745810E+01  0.52418839974E+02  0.00000000000E+00 0.  1.
         11    1    4    4    0    0  0.80016527447E+02  0.22263168613E+02  0.34628328672E+02  0.89985634898E+02  0.00000000000E+00 0. -1.
         21    1    1    2  502  501 -0.72802250723E+02  0.34364063930E+02  0.19007554332E+03  0.20642133797E+03  0.00000000000E+00 0.  1.
<scales pt_clust_5="13000.00000" pt_clust_6="13000.00000" pt_clust_7="13000.00000" pt_clust_8="13000.00000" pt_clust_9="80.50501"></scales>
<clustering>
<clus scale="   80.505">  1  9  2 -1</clus>
<clus scale="   84.862">  5  6 -1 -1</clus>
<clus scale="   94.109">  7  8 -1 -1</clus>
<clus scale="  118.842">  1  5  2 -1</clus>
<clus scale="  125.612">  2  5  1 -1</clus>
</clustering>
</event>
<event>
 9    1  0.2674825E-005  0.1659636E+03  0.7546771E-02  0.1183899E+00
         -2   -1    0    0    0  501 -0.00000000000E+00  0.00000000000E+00  0.38041292181E+02  0.38041292181E+02  0.00000000000E+00 0.  1.
          1   -1    0    0  502    0  0.00000000000E+00 -0.00000000000E+00 -0.86348407525E+03  0.86348407525E+03  0.00000000000E+00 0. -1.
         23    2    1    2    0    0  0.21288323461E+02 -0.14374473812E+03 -0.32060735145E+03  0.36410467589E+03  0.93098865467E+02 0.  0.
        -24    2    1    2    0    0 -0.41749707429E+01  0.12907112268E+03 -0.36163092792E+03  0.39245272366E+03  0.81027323711E+02 0.  0.
         13    1    4    4    0    0  0.38331281598E+02  0.57118497490E+02 -0.15637512355E+03  0.17083614714E+03  0.00000000000E+00 0. -1.
        -14    1    4    4    0    0 -0.42506252341E+02  0.71952625191E+02 -0.20525580437E+03  0.22161657652E+03  0.00000000000E+00 0.  1.
        -13    1    3    3    0    0  0.33132018397E+02 -0.94918442782E+01 -0.39932170616E+02  0.52748497618E+02  0.00000000000E+00 0. -1.
         13    1    3    3    0    0 -0.11843694936E+02 -0.13425289384E+03 -0.28067518083E+03  0.31135617827E+03  0.00000000000E+00 0.  1.
         21    1    1    2  502  501 -0.17113352718E+02  0.14673615437E+02 -0.14320450370E+03  0.14496796788E+03  0.00000000000E+00 0.  1.
<scales pt_clust_5="13000.00000" pt_clust_6="13000.00000" pt_clust_7="13000.00000" pt_clust_8="13000.00000" pt_clust_9="22.54289"></scales>
<clustering>
<clus scale="   22.543">  2  9  1 -1</clus>
<clus scale="   81.027">  5  6 -1 -1</clus>
<clus scale="   93.099">  7  8 -1 -1</clus>
<clus scale="  159.505">  2  5  1 -1</clus>
<clus scale="   22.543">  2  5  1 -1</clus>
</clustering>
</event>
<event>
 9    1  0.2674825E-005  0.1345406E+03  0.7546771E-02  0.1226317E+00
         -4   -1    0    0    0  501 -0.00000000000E+00  0.00000000000E+00  0.84652757474E+02  0.84652757474E+02  0.00000000000E+00 0.  1.
          3   -1    0    0  502    0  0.00000000000E+00 -0.00000000000E+00 -0.51335213412E+03  0.51335213412E+03  0.00000000000E+00 0. -1.
        -24    2    1    2    0    0  0.26196392635E+01 -0.82228202386E+02  0.87238660257E+01  0.13817940925E+03  0.11067566817E+03 0.  0.
         23    2    1    2    0    0  0.10697983603E+02  0.48381502621E+02 -0.30891585091E+03  0.32626984637E+03  0.92562373868E+02 0.  0.
         11    1    3    3    0    0  0.21619063973E+02 -0.75948055602E+01 -0.40674207530E+02  0.46684645835E+02  0.00000000000E+00 0. -1.
        -12    1    3    3    0    0 -0.18999424709E+02 -0.74633396826E+02  0.49398073556E+02  0.91494763413E+02  0.00000000000E+00 0.  1.
        -11    1    4    4    0    0 -0.32482694717E+02  0.44305718356E+02 -0.22730307222E+03  0.23384783252E+03  0.00000000000E+00 0.  1.
         11    1    4    4    0    0  0.43180678320E+02  0.40757842650E+01 -0.81612778689E+02  0.92422013843E+02  0.00000000000E+00 0. -1.
         21    1    1    2  502  501 -0.13317622867E+02  0.33846699765E+02 -0.12850739176E+03  0.13355563597E+03  0.00000000000E+00 0. -1.
<scales pt_clust_5="13000.00000" pt_clust_6="13000.00000" pt_clust_7="13000.00000" pt_clust_8="13000.00000" pt_clust_9="36.37249"></scales>
<clustering>
<clus scale="   36.372">  2  9  1 -1</clus>
<clus scale="   92.562">  7  8 -1 -1</clus>
<clus scale="  110.676">  5  6 -1 -1</clus>
<clus scale="  120.083">  2  7  1 -1</clus>
<clus scale="   36.372">  2  5  1 -1</clus>
</clustering>
</event>
<event>
 9    1  0.2674825E-005  0.9360566E+02  0.7546771E-02  0.1300284E+00
          3   -1    0    0  502    0  0.00000000000E+00  0.00000000000E+00  0.82058007780E+02  0.82058007780E+02  0.00000000000E+00 0. -1.
         -4   -1    0    0    0  501 -0.00000000000E+00 -0.00000000000E+00 -0.40759349065E+03  0.40759349065E+03  0.00000000000E+00 0.  1.
        -24    2    1    2    0    0 -0.20889075179E+02  0.23387385290E+02 -0.25185945467E+03  0.26622203653E+03  0.80359595442E+02 0.  0.
         23    2    1    2    0    0  0.11465379849E+02  0.62032442579E+02 -0.10352771123E+00  0.11030004107E+03  0.90479884370E+02 0.  0.
         11    1    3    3    0    0 -0.16473770587E+02  0.12961379544E+02 -0.85320618425E+01  0.22631362229E+02  0.00000000000E+00 0. -1.
        -12    1    3    3    0    0 -0.44153045919E+01  0.10426005745E+02 -0.24332739282E+03  0.24359067430E+03  0.00000000000E+00 0.  1.
        -11    1    4    4    0    0 -0.24337080533E+02 -0.10559762744E+02 -0.10823535573E+02  0.28652242502E+02  0.00000000000E+00 0.  1.
         11    1    4    4    0    0  0.35802460382E+02  0.72592205324E+02  0.10720007862E+02  0.81647798573E+02  0.00000000000E+00 0. -1.
         21    1    1    2  502  501  0.94236953299E+01 -0.85419827869E+02 -0.73572500498E+02  0.11312942083E+03  0.00000000000E+00 0. -1.
<scales pt_clust_5="13000.00000" pt_clust_6="13000.00000" pt_clust_7="13000.00000" pt_clust_8="13000.00000" pt_clust_9="85.93808"></scales>
<clustering>
<clus scale="   80.360">  5  6 -1 -1</clus>
<clus scale="   85.938">  1  9  2 -1</clus>
<clus scale="   83.863">  2  5  1 -1</clus>
<clus scale="   90.480">  7  8 -1 -1</clus>
<clus scale="   85.938">  1  5  2 -1</clus>
</clustering>
</event>
<event>
 9    1  0.2674825E-005  0.9448078E+02  0.7546771E-02  0.1300763E+00
         -4   -1    0    0    0  501 -0.00000000000E+00  0.00000000000E+00  0.11485892240E+04  0.11485892240E+04  0.00000000000E+00 0.  1.
          3   -1    0    0  502    0  0.00000000000E+00 -0.00000000000E+00 -0.16558692719E+02  0.16558692719E+02  0.00000000000E+00 0. -1.
        -24    2    1    2    0    0 -0.67287781240E+01  0.15161952732E+02  0.90812779443E+03  0.91173738971E+03  0.79333571107E+02 0.  0.
         23    2    1    2    0    0  0.18804447210E+02  0.12447695189E+01  0.15772774039E+03  0.18417085287E+03  0.93197136611E+02 0.  0.
         13    1    3    3    0    0  0.22071012317E+02 -0.17040106074E+02  0.16375650732E+03  0.16611348076E+03  0.00000000000E+00 0. -1.
        -14    1    3    3    0    0 -0.28799790441E+02  0.32202058806E+02  0.74437128711E+03  0.74562390895E+03  0.00000000000E+00 0.  1.
        -13    1    4    4    0    0 -0.32333756272E+02  0.22440894165E+02  0.73627727317E+02  0.83487171203E+02  0.00000000000E+00 0.  1.
         13    1    4    4    0    0  0.51138203482E+02 -0.21196124646E+02  0.84100013077E+02  0.10068368167E+03  0.00000000000E+00 0. -1.
         21    1    1    2  502  501 -0.12075669086E+02 -0.16406722251E+02  0.66174996442E+02  0.69239674125E+02  0.00000000000E+00 0. -1.
<scales pt_clust_5="13000.00000" pt_clust_6="13000.00000" pt_clust_7="13000.00000" pt_clust_8="13000.00000" pt_clust_9="20.37161"></scales>
<clustering>
<clus scale="   20.372">  2  9  1 -1</clus>
<clus scale="   79.334">  5  6 -1 -1</clus>
<clus scale="   80.838">  1  5  2 -1</clus>
<clus scale="   93.197">  7  8 -1 -1</clus>
<clus scale="   20.372">  2  5  1 -1</clus>
</clustering>
</event>
<event>
 9    1  0.2674825E-005  0.1987504E+03  0.7546771E-02  0.1151531E+00
          1   -1    0    0  502    0  0.00000000000E+00  0.00000000000E+00  0.61729846371E+03  0.61729846371E+03  0.00000000000E+00 0. -1.
         -2   -1    0    0    0  501 -0.00000000000E+00 -0.00000000000E+00 -0.25107030561E+03  0.25107030561E+03  0.00000000000E+00 0.  1.
        -24    2    1    2    0    0 -0.11123746773E+03 -0.12243285749E+03 -0.13114843650E+03  0.22611509316E+03  0.81021874441E+02 0.  0.
         23    2    1    2    0    0  0.13753343273E+03  0.20631801650E+03  0.19606997685E+03  0.32838447478E+03  0.88940195653E+02 0.  0.
         13    1    3    3    0    0 -0.59620307427E+02 -0.56924576795E+02 -0.11447251947E+03  0.14106362470E+03  0.00000000000E+00 0. -1.
        -14    1    3    3    0    0 -0.51617160307E+02 -0.65508280697E+02 -0.16675917028E+02  0.85051468458E+02  0.00000000000E+00 0.  1.
        -11    1    4    4    0    0  0.19453417682E+02  0.10771779613E+03  0.86634518705E+02  0.13959619943E+03  0.00000000000E+00 0.  1.
         11    1    4    4    0    0  0.11808001505E+03  0.98600220362E+02  0.10943545815E+03  0.18878827535E+03  0.00000000000E+00 0. -1.
         21    1    1    2  502  501 -0.26295965000E+02 -0.83885159003E+02  0.30130661774E+03  0.31386920138E+03  0.00000000000E+00 0. -1.
<scales pt_clust_5="13000.00000" pt_clust_6="13000.00000" pt_clust_7="13000.00000" pt_clust_8="13000.00000" pt_clust_9="87.91017"></scales>
<clustering>
<clus scale="   81.022">  5  6 -1 -1</clus>
<clus scale="   87.910">  1  9  2 -1</clus>
<clus scale="   88.940">  7  8 -1 -1</clus>
<clus scale="  195.335">  2  5  1 -1</clus>
<clus scale="   87.910">  1  5  2 -1</clus>
</clustering>
</event>
<event>
 9    1  0.2674825E-005  0.9973355E+02  0.7546771E-02  0.1285787E+00
          1   -1    0    0  502    0  0.00000000000E+00  0.00000000000E+00  0.91408489098E+03  0.91408489098E+03  0.00000000000E+00 0. -1.
         -2   -1    0    0    0  501 -0.00000000000E+00 -0.00000000000E+00 -0.51307238955E+02  0.51307238955E+02  0.00000000000E+00 0.  1.
        -24    2    1    2    0    0  0.53882904165E+02 -0.28095466414E+00  0.40534612461E+02  0.10538380520E+03  0.80989167758E+02 0.  0.
         23    2    1    2    0    0  0.11084858180E+02  0.67864696582E+02  0.19537709122E+03  0.22617136660E+03  0.90844857697E+02 0.  0.
         13    1    3    3    0    0  0.55999647309E+02  0.44287856385E+01 -0.78536257190E+01  0.56720843417E+02  0.00000000000E+00 0. -1.
        -14    1    3    3    0    0 -0.21167431446E+01 -0.47097403027E+01  0.48388238180E+02  0.48662961782E+02  0.00000000000E+00 0.  1.
        -13    1    4    4    0    0 -0.23915723002E+02  0.73248650820E+02  0.14978122195E+03  0.16843913174E+03  0.00000000000E+00 0.  1.
         13    1    4    4    0    0  0.35000581182E+02 -0.53839542382E+01  0.45595869277E+02  0.57732234855E+02  0.00000000000E+00 0. -1.
         21    1    1    2  502  501 -0.64967762344E+02 -0.67583741917E+02  0.62686594834E+03  0.63383695814E+03  0.00000000000E+00 0. -1.
<scales pt_clust_5="13000.00000" pt_clust_6="13000.00000" pt_clust_7="13000.00000" pt_clust_8="13000.00000" pt_clust_9="93.74632"></scales>
<clustering>
<clus scale="   80.989">  5  6 -1 -1</clus>
<clus scale="   90.845">  7  8 -1 -1</clus>
<clus scale="   93.746">  1  9  2 -1</clus>
<clus scale="   90.847">  2  5  1 -1</clus>
<clus scale="   93.746">  1  5  2 -1</clus>
</clustering>
</event>
<event>
 9    1  0.2674825E-005  0.1306236E+03  0.7546771E-02  0.1229049E+00
          1   -1    0    0  502    0  0.00000000000E+00  0.00000000000E+00  0.66960387186E+03  0.66960387186E+03  0.00000000000E+00 0. -1.
         -2   -1    0    0    0  501 -0.00000000000E+00 -0.00000000000E+00 -0.41187731865E+02  0.41187731865E+02  0.00000000000E+00 0.  1.
        -24    2    1    2    0    0 -0.33321179332E+02 -0.91123192494E+02  0.18097128547E+03  0.22060351941E+03  0.80632309960E+02 0.  0.
         23    2    1    2    0    0  0.65609405690E+02  0.69090260175E+02  0.19762743004E+03  0.23733096014E+03  0.90505941088E+02 0.  0.
         13    1    3    3    0    0  0.96974161738E+01 -0.25075196789E+02  0.11413684529E+03  0.11726049986E+03  0.00000000000E+00 0. -1.
        -14    1    3    3    0    0 -0.43018595506E+02 -0.66047995705E+02  0.66834440182E+02  0.10334301955E+03  0.00000000000E+00 0.  1.
        -13    1    4    4    0    0  0.24260208393E+02  0.18330727188E+02  0.13657768735E+01  0.30437454180E+02  0.00000000000E+00 0.  1.
         13    1    4    4    0    0  0.41349197298E+02  0.50759532987E+02  0.19626165316E+03  0.20689350596E+03  0.00000000000E+00 0. -1.
         21    1    1    2  502  501 -0.32288226358E+02  0.22032932319E+02  0.24981742449E+03  0.25285712417E+03  0.00000000000E+00 0.  1.
<scales pt_clust_5="13000.00000" pt_clust_6="13000.00000" pt_clust_7="13000.00000" pt_clust_8="13000.00000" pt_clust_9="39.08938"></scales>
<clustering>
<clus scale="   39.089">  1  9  2 -1</clus>
<clus scale="   80.632">  5  6 -1 -1</clus>
<clus scale="   90.506">  7  8 -1 -1</clus>
<clus scale="  123.987">  2  5  1 -1</clus>
<clus scale="   39.089">  1  5  2 -1</clus>
</clustering>
</event>
<event>
 9    1  0.2674825E-005  0.9879106E+02  0.7546771E-02  0.1289662E+00
         -2   -1    0    0    0  501 -0.00000000000E+00  0.00000000000E+00  0.12043511394E+03  0.12043511394E+03  0.00000000000E+00 0.  1.
          1   -1    0    0  502    0  0.00000000000E+00 -0.00000000000E+00 -0.41965935988E+03  0.41965935988E+03  0.00000000000E+00 0. -1.
         23    2    1    2    0    0 -0.49737188308E+02  0.23436240602E+02  0.82971686362E+02  0.13042637914E+03  0.84283416901E+02 0.  0.
        -24    2    1    2    0    0  0.52242317987E+01 -0.48274060579E+02 -0.15535617006E+03  0.17717164668E+03  0.69975533498E+02 0.  0.
         11    1    4    4    0    0  0.36224163096E+02 -0.33019049177E+02 -0.73742935913E+02  0.88546418322E+02  0.00000000000E+00 0. -1.
        -12    1    4    4    0    0 -0.30999931297E+02 -0.15255011402E+02 -0.81613234149E+02  0.88625228358E+02  0.00000000000E+00 0.  1.
        -11    1    3    3    0    0 -0.40625537204E+02 -0.42446414528E+01  0.91381609193E+02  0.10009520345E+03  0.00000000000E+00 0.  1.
         11    1    3    3    0    0 -0.91116511045E+01  0.27680882055E+02 -0.84099228316E+01  0.30331175698E+02  0.00000000000E+00 0. -1.
         21    1    1    2  502  501  0.44512956509E+02  0.24837819977E+02 -0.22683976223E+03  0.23249644799E+03  0.00000000000E+00 0. -1.
<scales pt_clust_5="13000.00000" pt_clust_6="13000.00000" pt_clust_7="13000.00000" pt_clust_8="13000.00000" pt_clust_9="50.97372"></scales>
<clustering>
<clus scale="   50.974">  2  9  1 -1</clus>
<clus scale="   69.976">  5  6 -1 -1</clus>
<clus scale="   84.283">  7  8 -1 -1</clus>
<clus scale="   86.905">  2  5  1 -1</clus>
<clus scale="   50.974">  2  5  1 -1</clus>
</clustering>
</event>
<event>
 9    1  0.2674825E-005  0.1258622E+03  0.7546771E-02  0.1237409E+00
         -2   -1    0    0    0  501 -0.00000000000E+00  0.00000000000E+00  0.10687855453E+03  0.10687855453E+03  0.00000000000E+00 0.  1.
          1   -1    0    0  502    0  0.00000000000E+00 -0.00000000000E+00 -0.76204425696E+03  0.76204425696E+03  0.00000000000E+00 0. -1.
        -24    2    1    2    0    0 -0.69671701682E+02 -0.44532227031E+02  0.50860935148E+02  0.12596363455E+03  0.80266663353E+02 0.  0.
         23    2    1    2    0    0  0.57448474952E+02  0.11564037870E+03 -0.49087728495E+03  0.51603403411E+03  0.93046176869E+02 0.  0.
         11    1    3    3    0    0 -0.34034190289E+02  0.79132339987E+01  0.51877342022E+02  0.62547613833E+02  0.00000000000E+00 0. -1.
        -12    1    3    3    0    0 -0.35637511393E+02 -0.52445461030E+02 -0.10164068735E+01  0.63416020719E+02  0.00000000000E+00 0.  1.
        -11    1    4    4    0    0 -0.21809664927E+02  0.12068656266E+02 -0.12867929358E+03  0.13107125751E+03  0.00000000000E+00 0.  1.
         11    1    4    4    0    0  0.79258139878E+02  0.10357172243E+03 -0.36219799137E+03  0.38496277661E+03  0.00000000000E+00 0. -1.
         21    1    1    2  502  501  0.12223226730E+02 -0.71108151666E+02 -0.21514935263E+03  0.22692514282E+03  0.00000000000E+00 0.  1.
<scales pt_clust_5="13000.00000" pt_clust_6="13000.00000" pt_clust_7="13000.00000" pt_clust_8="13000.00000" pt_clust_9="72.15107"></scales>
<clustering>
<clus scale="   72.151">  2  9  1 -1</clus>
<clus scale="   80.267">  5  6 -1 -1</clus>
<clus scale="   93.046">  7  8 -1 -1</clus>
<clus scale="  116.732">  1  5  2 -1</clus>
<clus scale="   72.151">  2  5  1 -1</clus>
</clustering>
</event>
<event>
 9    1  0.2674825E-005  0.3554271E+03  0.7546771E-02  0.1060708E+00
          1   -1    0    0  502    0  0.00000000000E+00  0.00000000000E+00  0.15553005844E+03  0.15553005844E+03  0.00000000000E+00 0. -1.
         -2   -1    0    0    0  501 -0.00000000000E+00 -0.00000000000E+00 -0.16650428921E+04  0.16650428921E+04  0.00000000000E+00 0.  1.
        -24    2    1    2    0    0 -0.31266283046E+03 -0.15050387824E+03 -0.13894106755E+04  0.14343046165E+04  0.79738603938E+02 0.  0.
         23    2    1    2    0    0  0.29834175154E+03  0.12450039518E+03 -0.10091351975E+03  0.35092037398E+03  0.91942489043E+02 0.  0.
         13    1    3    3    0    0 -0.13522602066E+02 -0.30835950022E+02 -0.11848580851E+03  0.12317712205E+03  0.00000000000E+00 0. -1.
        -14    1    3    3    0    0 -0.29914022840E+03 -0.11966792822E+03 -0.12709248670E+04  0.13111274945E+04  0.00000000000E+00 0.  1.
        -13    1    4    4    0    0  0.25422540114E+03  0.85623121471E+02 -0.49446898108E+02  0.27277622559E+03  0.00000000000E+00 0. -1.
         13    1    4    4    0    0  0.44116350402E+02  0.38877273707E+02 -0.51466621644E+02  0.78144148387E+02  0.00000000000E+00 0.  1.
         21    1    1    2  502  501  0.14321078922E+02  0.26003483066E+02 -0.19188638410E+02  0.35347960013E+02  0.00000000000E+00 0.  1.
<scales pt_clust_5="13000.00000" pt_clust_6="13000.00000" pt_clust_7="13000.00000" pt_clust_8="13000.00000" pt_clust_9="29.68627"></scales>
<clustering>
<clus scale="   29.686">  1  9  2 -1</clus>
<clus scale="   79.739">  5  6 -1 -1</clus>
<clus scale="   91.942">  7  8 -1 -1</clus>
<clus scale="  352.467">  2  5  1 -1</clus>
<clus scale="   29.686">  1  5  2 -1</clus>
</clustering>
</event>
<event>
 9    1  0.2674825E-005  0.1706695E+03  0.7546771E-02  0.1211045E+00
          1   -1    0    0  502    0  0.00000000000E+00  0.00000000000E+00  0.39478147726E+03  0.39478147726E+03  0.00000000000E+00 0. -1.
         -2   -1    0    0    0  501 -0.00000000000E+00 -0.00000000000E+00 -0.12739193199E+03  0.12739193199E+03  0.00000000000E+00 0.  1.
         23    2    1    2    0    0  0.14616222909E+02 -0.45594129384E+01  0.10407821721E+02  0.81788012476E+02  0.79665136750E+02 0.  0.
        -24    2    1    2    0    0  0.14814864759E+02  0.15171875551E+03  0.40625969077E+02  0.17707593336E+03  0.80419872052E+02 0.  0.
         11    1    4    4    0    0  0.29735399727E+02  0.26747571510E+02 -0.10306740379E+02  0.41302003291E+02  0.00000000000E+00 0. -1.
        -12    1    4    4    0    0 -0.14920534967E+02  0.12497118400E+03  0.50932709456E+02  0.13577393007E+03  0.00000000000E+00 0.  1.
        -13    1    3    3    0    0 -0.28188503871E+02 -0.20258233094E+01 -0.14949678738E+02  0.31971684424E+02  0.00000000000E+00 0.  1.
         13    1    3    3    0    0  0.42804726779E+02 -0.25335896290E+01  0.25357500459E+02  0.49816328052E+02  0.00000000000E+00 0. -1.
         21    1    1    2  502  501 -0.29431087668E+02 -0.14715934258E+03  0.21635575448E+03  0.26330946341E+03  0.00000000000E+00 0. -1.
<scales pt_clust_5="13000.00000" pt_clust_6="13000.00000" pt_clust_7="13000.00000" pt_clust_8="13000.00000" pt_clust_9="150.53477"></scales>
<clustering>
<clus scale="   79.665">  7  8 -1 -1</clus>
<clus scale="   80.420">  5  6 -1 -1</clus>
<clus scale="   81.123">  2  7  1 -1</clus>
<clus scale="  150.535">  1  9  2 -1</clus>
<clus scale="  150.535">  1  5  2 -1</clus>
</clustering>
</event>
<event>
 9    1  0.2674825E-005  0.1139369E+03  0.7546771E-02  0.1254791E+00
         -2   -1    0    0    0  501 -0.00000000000E+00  0.00000000000E+00  0.17019520409E+03  0.17019520409E+03  0.00000000000E+00 0.  1.
          1   -1    0    0  502    0  0.00000000000E+00 -0.00000000000E+00 -0.27048029335E+03  0.27048029335E+03  0.00000000000E+00 0. -1.
         23    2    1    2    0    0  0.16421135735E+02  0.67370912226E+02  0.11321064918E+03  0.16120317811E+03  0.91440253889E+02 0.  0.
        -24    2    1    2    0    0  0.28230109724E+01 -0.41129178273E+02 -0.54278672587E+02  0.11696373543E+03  0.95051367224E+02 0.  0.
         13    1    4    4    0    0  0.32697194475E+02  0.11884376090E+01  0.10184298858E+02  0.34267168744E+02  0.00000000000E+00 0. -1.
        -14    1    4    4    0    0 -0.29874183503E+02 -0.42317615882E+02 -0.64462971445E+02  0.82696566684E+02  0.00000000000E+00 0.  1.
        -11    1    3    3    0    0 -0.24791083341E+02 -0.26311774520E+01  0.42428428365E+01  0.25288784537E+02  0.00000000000E+00 0. -1.
         11    1    3    3    0    0  0.41212219076E+02  0.70002089678E+02  0.10896780634E+03  0.13591439357E+03  0.00000000000E+00 0.  1.
         21    1    1    2  502  501 -0.19244146707E+02 -0.26241733953E+02 -0.15921706585E+03  0.16250858390E+03  0.00000000000E+00 0.  1.
<scales pt_clust_5="13000.00000" pt_clust_6="13000.00000" pt_clust_7="13000.00000" pt_clust_8="13000.00000" pt_clust_9="32.54175"></scales>
<clustering>
<clus scale="   32.542">  2  9  1 -1</clus>
<clus scale="   91.440">  7  8 -1 -1</clus>
<clus scale="   95.051">  5  6 -1 -1</clus>
<clus scale="  110.942">  1  7  2 -1</clus>
<clus scale="   32.542">  2  5  1 -1</clus>
</clustering>
</event>
<event>
 9    1  0.2674825E-005  0.1449381E+03  0.7546771E-02  0.1209535E+00
          1   -1    0    0  502    0  0.00000000000E+00  0.00000000000E+00  0.91896812232E+02  0.91896812232E+02  0.00000000000E+00 0. -1.
         -2   -1    0    0    0  501 -0.00000000000E+00 -0.00000000000E+00 -0.75338723949E+03  0.75338723949E+03  0.00000000000E+00 0.  1.
        -24    2    1    2    0    0  0.31555979488E+02  0.10817549568E+03 -0.66124741445E+03  0.67533908474E+03  0.78339125298E+02 0.  0.
         23    2    1    2    0    0 -0.49314393310E+01 -0.10948597182E+03 -0.39323200255E+01  0.14303410535E+03  0.91824806198E+02 0.  0.
         13    1    3    3    0    0  0.41065518200E+02  0.99980674310E+02 -0.41735352801E+03  0.43112234849E+03  0.00000000000E+00 0. -1.
        -14    1    3    3    0    0 -0.95095387123E+01  0.81948213664E+01 -0.24389388644E+03  0.24421673625E+03  0.00000000000E+00 0.  1.
        -13    1    4    4    0    0 -0.38245627527E+02 -0.10176524395E+03 -0.48748560166E+01  0.10882397311E+03  0.00000000000E+00 0. -1.
         13    1    4    4    0    0  0.33314188196E+02 -0.77207278664E+01  0.94253599108E+00  0.34210132242E+02  0.00000000000E+00 0.  1.
         21    1    1    2  502  501 -0.26624540157E+02  0.13104761422E+01  0.36893072148E+01  0.26910861636E+02  0.00000000000E+00 0. -1.
<scales pt_clust_5="13000.00000" pt_clust_6="13000.00000" pt_clust_7="13000.00000" pt_clust_8="13000.00000" pt_clust_9="26.65677"></scales>
<clustering>
<clus scale="   26.657">  1  9  2 -1</clus>
<clus scale="   78.339">  5  6 -1 -1</clus>
<clus scale="   91.825">  7  8 -1 -1</clus>
<clus scale="  136.793">  2  5  1 -1</clus>
<clus scale="   26.657">  1  5  2 -1</clus>
</clustering>
</event>
<event>
 9    1  0.2674825E-005  0.1787206E+03  0.7546771E-02  0.1170710E+00
          1   -1    0    0  502    0  0.00000000000E+00  0.00000000000E+00  0.24589329159E+03  0.24589329159E+03  0.00000000000E+00 0. -1.
         -2   -1    0    0    0  501 -0.00000000000E+00 -0.00000000000E+00 -0.21846295911E+03  0.21846295911E+03  0.00000000000E+00 0.  1.
        -24    2    1    2    0    0 -0.13346274440E+03 -0.13461862485E+03 -0.56644846050E+02  0.21357472102E+03  0.80442803127E+02 0.  0.
         23    2    1    2    0    0  0.76642014399E+02  0.11608548702E+03  0.90517136853E+02  0.19066854119E+03  0.93868535038E+02 0.  0.
         11    1    3    3    0    0 -0.30659814502E+02  0.26543920580E+01 -0.23926657899E+02  0.38981469710E+02  0.00000000000E+00 0. -1.
        -12    1    3    3    0    0 -0.10280292990E+03 -0.13727301691E+03 -0.32718188151E+02  0.17459325131E+03  0.00000000000E+00 0.  1.
        -13    1    4    4    0    0  0.51790537118E+02  0.33343540209E+02 -0.50949439137E+01  0.61806228344E+02  0.00000000000E+00 0. -1.
         13    1    4    4    0    0  0.24851477281E+02  0.82741946807E+02  0.95612080767E+02  0.12886231285E+03  0.00000000000E+00 0.  1.
         21    1    1    2  502  501  0.56820730005E+02  0.18533137837E+02 -0.64419583257E+01  0.60112988475E+02  0.00000000000E+00 0.  1.
<scales pt_clust_5="13000.00000" pt_clust_6="13000.00000" pt_clust_7="13000.00000" pt_clust_8="13000.00000" pt_clust_9="59.76682"></scales>
<clustering>
<clus scale="   59.767">  2  9  1 -1</clus>
<clus scale="   80.443">  5  6 -1 -1</clus>
<clus scale="   93.869">  7  8 -1 -1</clus>
<clus scale="  172.049">  2  5  1 -1</clus>
<clus scale="  178.721">  1  5  2 -1</clus>
</clustering>
</event>
<event>
 9    1  0.2674825E-005  0.1449646E+03  0.7546771E-02  0.1209466E+00
          1   -1    0    0  502    0  0.00000000000E+00  0.00000000000E+00  0.46184243712E+03  0.46184243712E+03  0.00000000000E+00 0. -1.
         -2   -1    0    0    0  501 -0.00000000000E+00 -0.00000000000E+00 -0.82515116502E+02  0.82515116502E+02  0.00000000000E+00 0.  1.
         23    2    1    2    0    0 -0.81447779193E+02 -0.73547032500E+02  0.42069930183E+02  0.14923751915E+03  0.91973101344E+02 0.  0.
        -24    2    1    2    0    0  0.54023083472E+02  0.11046838057E+03  0.18269436959E+03  0.23385929129E+03  0.78684044054E+02 0.  0.
         13    1    4    4    0    0  0.45502094996E+02  0.10583759841E+03  0.18966794788E+03  0.22191432657E+03  0.00000000000E+00 0. -1.
        -14    1    4    4    0    0  0.85209884761E+01  0.46307821665E+01 -0.69735782855E+01  0.11944964721E+02  0.00000000000E+00 0.  1.
        -13    1    3    3    0    0 -0.28681337860E+02 -0.43292044217E+02 -0.25895416394E+02  0.58029241113E+02  0.00000000000E+00 0.  1.
         13    1    3    3    0    0 -0.52766441333E+02 -0.30254988283E+02  0.67965346576E+02  0.91208278036E+02  0.00000000000E+00 0. -1.
         21    1    1    2  502  501  0.27424695721E+02 -0.36921348073E+02  0.15456302085E+03  0.16126074318E+03  0.00000000000E+00 0.  1.
<scales pt_clust_5="13000.00000" pt_clust_6="13000.00000" pt_clust_7="13000.00000" pt_clust_8="13000.00000" pt_clust_9="45.99239"></scales>
<clustering>
<clus scale="   45.992">  1  9  2 -1</clus>
<clus scale="   78.684">  5  6 -1 -1</clus>
<clus scale="   91.973">  7  8 -1 -1</clus>
<clus scale="  136.919">  1  5  2 -1</clus>
<clus scale="   45.992">  1  5  2 -1</clus>
</clustering>
</event>
<event>
 9    1  0.2674825E-005  0.1090957E+03  0.7546771E-02  0.1266663E+00
          1   -1    0    0  502    0  0.00000000000E+00  0.00000000000E+00  0.37082392690E+03  0.37082392690E+03  0.00000000000E+00 0. -1.
         -2   -1    0    0    0  501 -0.00000000000E+00 -0.00000000000E+00 -0.11007874534E+03  0.11007874534E+03  0.00000000000E+00 0.  1.
         23    2    1    2    0    0  0.52640761960E+02 -0.18741296910E+02 -0.66154763435E+02  0.12658325130E+03  0.92328656197E+02 0.  0.
        -24    2    1    2    0    0 -0.73699257086E+02  0.28399028315E+02  0.27010225627E+03  0.29297849303E+03  0.81505111704E+02 0.  0.
         11    1    4    4    0    0 -0.83284488447E+02  0.40988062815E+02  0.19164503061E+03  0.21294164709E+03  0.00000000000E+00 0. -1.
        -12    1    4    4    0    0  0.95852313607E+01 -0.12589034500E+02  0.78457225660E+02  0.80036845941E+02  0.00000000000E+00 0.  1.
        -13    1    3    3    0    0  0.79138617809E+02 -0.96846440430E+01 -0.52187928134E+02  0.95290571421E+02  0.00000000000E+00 0.  1.
         13    1    3    3    0    0 -0.26497855849E+02 -0.90566528668E+01 -0.13966835301E+02  0.31292679880E+02  0.00000000000E+00 0. -1.
         21    1    1    2  502  501  0.21058495126E+02 -0.96577314054E+01  0.56797688715E+02  0.61340927905E+02  0.00000000000E+00 0.  1.
<scales pt_clust_5="13000.00000" pt_clust_6="13000.00000" pt_clust_7="13000.00000" pt_clust_8="13000.00000" pt_clust_9="23.16748"></scales>
<clustering>
<clus scale="   23.167">  1  9  2 -1</clus>
<clus scale="   81.505">  5  6 -1 -1</clus>
<clus scale="   92.329">  7  8 -1 -1</clus>
<clus scale="  100.102">  1  5  2 -1</clus>
<clus scale="   23.167">  1  5  2 -1</clus>
</clustering>
</event>
<event>
 9    1  0.2674825E-005  0.1321039E+03  0.7546771E-02  0.1227249E+00
          1   -1    0    0  502    0  0.00000000000E+00  0.00000000000E+00  0.64379930394E+03  0.64379930394E+03  0.00000000000E+00 0. -1.
         -2   -1    0    0    0  501 -0.00000000000E+00 -0.00000000000E+00 -0.56143565967E+02  0.56143565967E+02  0.00000000000E+00 0.  1.
         23    2    1    2    0    0 -0.54043506810E+02 -0.85335922622E+02  0.52161176886E+02  0.14476827353E+03  0.89633388476E+02 0.  0.
        -24    2    1    2    0    0  0.28985617114E+02  0.78580415225E+02  0.35877763462E+03  0.37656214771E+03  0.77862778855E+02 0.  0.
         11    1    4    4    0    0  0.33489724129E+02  0.46095190976E+02  0.95167126278E+02  0.11091938594E+03  0.00000000000E+00 0. -1.
        -12    1    4    4    0    0 -0.45041070143E+01  0.32485224249E+02  0.26361050834E+03  0.26564276177E+03  0.00000000000E+00 0.  1.
        -11    1    3    3    0    0 -0.15041585670E+02 -0.69597200898E+02 -0.76894365205E+01  0.71618064106E+02  0.00000000000E+00 0.  1.
         11    1    3    3    0    0 -0.39001921141E+02 -0.15738721724E+02  0.59850613407E+02  0.73150209428E+02  0.00000000000E+00 0. -1.
         21    1    1    2  502  501  0.25057889696E+02  0.67555073963E+01  0.17671692647E+03  0.17861244867E+03  0.00000000000E+00 0. -1.
<scales pt_clust_5="13000.00000" pt_clust_6="13000.00000" pt_clust_7="13000.00000" pt_clust_8="13000.00000" pt_clust_9="25.95255"></scales>
<clustering>
<clus scale="   25.953">  1  9  2 -1</clus>
<clus scale="   77.863">  5  6 -1 -1</clus>
<clus scale="   89.633">  7  8 -1 -1</clus>
<clus scale="  124.418">  1  5  2 -1</clus>
<clus scale="   25.953">  1  5  2 -1</clus>
</clustering>
</event>
<event>
 9    1  0.2674825E-005  0.1117116E+03  0.7546771E-02  0.1261353E+00
         -2   -1    0    0    0  501 -0.00000000000E+00  0.00000000000E+00  0.36033526133E+03  0.36033526133E+03  0.00000000000E+00 0.  1.
          1   -1    0    0  502    0  0.00000000000E+00 -0.00000000000E+00 -0.12674697224E+03  0.12674697224E+03  0.00000000000E+00 0. -1.
         23    2    1    2    0    0 -0.32390826161E+02  0.24876256779E+02  0.13132262340E+03  0.16458156684E+03  0.90407228448E+02 0.  0.
        -24    2    1    2    0    0  0.78295501205E+02 -0.50385143350E+02  0.18649163732E+03  0.22324364288E+03  0.79935881269E+02 0.  0.
         11    1    4    4    0    0  0.10176304125E+02 -0.52999543756E+02  0.93239067548E+02  0.10773129778E+03  0.00000000000E+00 0. -1.
        -12    1    4    4    0    0  0.68119197080E+02  0.26144004063E+01  0.93252569776E+02  0.11551234510E+03  0.00000000000E+00 0.  1.
        -13    1    3    3    0    0 -0.23775593434E+02 -0.12068341159E+02  0.12285126703E+03  0.12571140565E+03  0.00000000000E+00 0.  1.
         13    1    3    3    0    0 -0.86152327268E+01  0.36944597938E+02  0.84713563747E+01  0.38870161185E+02  0.00000000000E+00 0. -1.
         21    1    1    2  502  501 -0.45904675043E+02  0.25508886570E+02 -0.84225971642E+02  0.99257023852E+02  0.00000000000E+00 0. -1.
<scales pt_clust_5="13000.00000" pt_clust_6="13000.00000" pt_clust_7="13000.00000" pt_clust_8="13000.00000" pt_clust_9="52.51612"></scales>
<clustering>
<clus scale="   52.516">  2  9  1 -1</clus>
<clus scale="   79.936">  5  6 -1 -1</clus>
<clus scale="   90.407">  7  8 -1 -1</clus>
<clus scale="  103.420">  2  5  1 -1</clus>
<clus scale="   52.516">  2  5  1 -1</clus>
</clustering>
</event>
<event>
 9    1  0.2674825E-005  0.1383638E+03  0.7546771E-02  0.1217338E+00
          1   -1    0    0  502    0  0.00000000000E+00  0.00000000000E+00  0.18853124465E+02  0.18853124465E+02  0.00000000000E+00 0. -1.
         -2   -1    0    0    0  501 -0.00000000000E+00 -0.00000000000E+00 -0.12419897747E+04  0.12419897747E+04  0.00000000000E+00 0.  1.
        -24    2    1    2    0    0 -0.10308983941E+03  0.39814005470E+02 -0.65713872324E+03  0.67101279563E+03  0.78830199099E+02 0.  0.
         23    2    1    2    0    0  0.10459259489E+03 -0.11826622330E+02 -0.49408619893E+03  0.51264948083E+03  0.87228655386E+02 0.  0.
         11    1    3    3    0    0 -0.52809861657E+02  0.61011267159E+02 -0.36369847201E+03  0.37254239323E+03  0.00000000000E+00 0. -1.
        -12    1    3    3    0    0 -0.50279977757E+02 -0.21197261689E+02 -0.29344025123E+03  0.29847040240E+03  0.00000000000E+00 0.  1.
        -11    1    4    4    0    0  0.23307699853E+02  0.59874965879E+01 -0.19927707121E+02  0.31244399481E+02  0.00000000000E+00 0. -1.
         11    1    4    4    0    0  0.81284895033E+02 -0.17814118918E+02 -0.47415849181E+03  0.48140508134E+03  0.00000000000E+00 0.  1.
         21    1    1    2  502  501 -0.15027554719E+01 -0.27987383140E+02 -0.71911728113E+02  0.77180622757E+02  0.00000000000E+00 0. -1.
<scales pt_clust_5="13000.00000" pt_clust_6="13000.00000" pt_clust_7="13000.00000" pt_clust_8="13000.00000" pt_clust_9="28.02770"></scales>
<clustering>
<clus scale="   28.028">  1  9  2 -1</clus>
<clus scale="   78.830">  5  6 -1 -1</clus>
<clus scale="   87.229">  7  8 -1 -1</clus>
<clus scale="  133.229">  2  5  1 -1</clus>
<clus scale="   28.028">  1  5  2 -1</clus>
</clustering>
</event>
<event>
 9    1  0.2674825E-005  0.9427235E+02  0.7546771E-02  0.1302839E+00
          1   -1    0    0  502    0  0.00000000000E+00  0.00000000000E+00  0.12207588810E+03  0.12207588810E+03  0.00000000000E+00 0. -1.
         -2   -1    0    0    0  501 -0.00000000000E+00 -0.00000000000E+00 -0.22648517210E+03  0.22648517210E+03  0.00000000000E+00 0.  1.
        -24    2    1    2    0    0 -0.10131329271E+02 -0.19209803027E+02 -0.18185369314E+03  0.19815000379E+03  0.75637278692E+02 0.  0.
         23    2    1    2    0    0 -0.15891903458E+02  0.11458506539E+02  0.79479339069E+02  0.12318180415E+03  0.92048582652E+02 0.  0.
         11    1    3    3    0    0 -0.26579143414E+02  0.15095927085E+02 -0.35095260583E+02  0.46540468353E+02  0.00000000000E+00 0. -1.
        -12    1    3    3    0    0  0.16447814143E+02 -0.34305730112E+02 -0.14675843255E+03  0.15160953543E+03  0.00000000000E+00 0.  1.
        -11    1    4    4    0    0 -0.35909739246E+02  0.40404472814E+02  0.66435703634E+02  0.85648896744E+02  0.00000000000E+00 0. -1.
         11    1    4    4    0    0  0.20017835789E+02 -0.28945966275E+02  0.13043635434E+02  0.37532907410E+02  0.00000000000E+00 0.  1.
         21    1    1    2  502  501  0.26023232729E+02  0.77512964884E+01 -0.20349299413E+01  0.27229252262E+02  0.00000000000E+00 0.  1.
<scales pt_clust_5="13000.00000" pt_clust_6="13000.00000" pt_clust_7="13000.00000" pt_clust_8="13000.00000" pt_clust_9="27.15311"></scales>
<clustering>
<clus scale="   27.153">  1  9  2 -1</clus>
<clus scale="   75.637">  5  6 -1 -1</clus>
<clus scale="   78.328">  2  5  1 -1</clus>
<clus scale="   92.049">  7  8 -1 -1</clus>
<clus scale="   27.153">  1  5  2 -1</clus>
</clustering>
</event>
<event>
 9    1  0.2674825E-005  0.9192847E+02  0.7546771E-02  0.1304245E+00
          1   -1    0    0  502    0  0.00000000000E+00  0.00000000000E+00  0.56122661336E+03  0.56122661336E+03  0.00000000000E+00 0. -1.
         -2   -1    0    0    0  501 -0.00000000000E+00 -0.00000000000E+00 -0.36967968435E+02  0.36967968435E+02  0.00000000000E+00 0.  1.
        -24    2    1    2    0    0  0.11403490506E+02  0.74103065838E+01  0.27451638533E+02  0.87065235017E+02  0.81497303336E+02 0.  0.
         23    2    1    2    0    0 -0.76582195606E+01  0.19005207234E+02  0.38398784434E+03  0.39519846327E+03  0.91188346523E+02 0.  0.
         13    1    3    3    0    0  0.17948912598E+02  0.42280344207E+02  0.22808362955E+02  0.51283646423E+02  0.00000000000E+00 0. -1.
        -14    1    3    3    0    0 -0.65454220919E+01 -0.34870037623E+02  0.46432755782E+01  0.35781588594E+02  0.00000000000E+00 0.  1.
        -11    1    4    4    0    0 -0.14223842982E+02  0.54976358819E+02  0.22412512108E+03  0.23120723959E+03  0.00000000000E+00 0. -1.
         11    1    4    4    0    0  0.65656234211E+01 -0.35971151585E+02  0.15986272325E+03  0.16399122368E+03  0.00000000000E+00 0.  1.
         21    1    1    2  502  501 -0.37452709452E+01 -0.26415513818E+02  0.11281916206E+03  0.11593088351E+03  0.00000000000E+00 0. -1.
<scales pt_clust_5="13000.00000" pt_clust_6="13000.00000" pt_clust_7="13000.00000" pt_clust_8="13000.00000" pt_clust_9="26.67970"></scales>
<clustering>
<clus scale="   26.680">  1  9  2 -1</clus>
<clus scale="   81.497">  5  6 -1 -1</clus>
<clus scale="   82.325">  2  5  1 -1</clus>
<clus scale="   91.188">  7  8 -1 -1</clus>
<clus scale="   26.680">  1  5  2 -1</clus>
</clustering>
</event>
<event>
 9    1  0.2674825E-005  0.1330643E+03  0.7546771E-02  0.1226391E+00
         -2   -1    0    0    0  501 -0.00000000000E+00  0.00000000000E+00  0.57118269389E+03  0.57118269389E+03  0.00000000000E+00 0.  1.
          1   -1    0    0  502    0  0.00000000000E+00 -0.00000000000E+00 -0.46705468850E+02  0.46705468850E+02  0.00000000000E+00 0. -1.
        -24    2    1    2    0    0  0.27476227846E+02 -0.86959319293E+02  0.37377860333E+03  0.39303949277E+03  0.80328900528E+02 0.  0.
         23    2    1    2    0    0 -0.51023904729E+02  0.92573419072E+02  0.13794114025E+03  0.19748510777E+03  0.93804759189E+02 0.  0.
         11    1    3    3    0    0  0.23738458630E+02 -0.21313395968E+02  0.32713080882E+02  0.45693773390E+02  0.00000000000E+00 0. -1.
        -12    1    3    3    0    0  0.37377692163E+01 -0.65645923324E+02  0.34106552245E+03  0.34734571938E+03  0.00000000000E+00 0.  1.
        -13    1    4    4    0    0 -0.59624571856E+02  0.35393349176E+02  0.31085238097E+02  0.75987306587E+02  0.00000000000E+00 0. -1.
         13    1    4    4    0    0  0.86006671265E+01  0.57180069896E+02  0.10685590215E+03  0.12149780118E+03  0.00000000000E+00 0.  1.
         21    1    1    2  502  501  0.23547676883E+02 -0.56140997791E+01  0.12757481462E+02  0.27363562198E+02  0.00000000000E+00 0. -1.
<scales pt_clust_5="13000.00000" pt_clust_6="13000.00000" pt_clust_7="13000.00000" pt_clust_8="13000.00000" pt_clust_9="24.20767"></scales>
<clustering>
<clus scale="   24.208">  2  9  1 -1</clus>
<clus scale="   80.329">  5  6 -1 -1</clus>
<clus scale="   93.805">  7  8 -1 -1</clus>
<clus scale="  123.934">  1  5  2 -1</clus>
<clus scale="   24.208">  2  5  1 -1</clus>
</clustering>
</event>
<event>
 9    1  0.2674825E-005  0.1024204E+03  0.7546771E-02  0.1277615E+00
         -2   -1    0    0    0  501 -0.00000000000E+00  0.00000000000E+00  0.18319974457E+03  0.18319974457E+03  0.00000000000E+00 0.  1.
          1   -1    0    0  502    0  0.00000000000E+00 -0.00000000000E+00 -0.16933817251E+03  0.16933817251E+03  0.00000000000E+00 0. -1.
         23    2    1    2    0    0 -0.36004209523E+02 -0.28804717735E+02  0.12298442531E+03  0.15904234915E+03  0.89684363661E+02 0.  0.
        -24    2    1    2    0    0  0.33861747809E+02  0.56718954430E+02 -0.32796991245E+02  0.11219715489E+03  0.84551174884E+02 0.  0.
         11    1    4    4    0    0  0.61800163813E+02  0.41774577504E+02 -0.29959145419E+02  0.80386105561E+02  0.00000000000E+00 0. -1.
        -12    1    4    4    0    0 -0.27938416004E+02  0.14944376926E+02 -0.28378458259E+01  0.31811049329E+02  0.00000000000E+00 0.  1.
        -11    1    3    3    0    0 -0.64457677677E+02 -0.82166128178E+01  0.88767887913E+02  0.11000928535E+03  0.00000000000E+00 0.  1.
         11    1    3    3    0    0  0.28453468154E+02 -0.20588104917E+02  0.34216537399E+02  0.49033063800E+02  0.00000000000E+00 0. -1.
         21    1    1    2  502  501  0.21424617135E+01 -0.27914236695E+02 -0.76325862010E+02  0.81298413047E+02  0.00000000000E+00 0. -1.
<scales pt_clust_5="13000.00000" pt_clust_6="13000.00000" pt_clust_7="13000.00000" pt_clust_8="13000.00000" pt_clust_9="27.99633"></scales>
<clustering>
<clus scale="   27.996">  2  9  1 -1</clus>
<clus scale="   84.551">  5  6 -1 -1</clus>
<clus scale="   89.684">  7  8 -1 -1</clus>
<clus scale="   97.957">  2  5  1 -1</clus>
<clus scale="   27.996">  2  5  1 -1</clus>
</clustering>
</event>
<event>
 9    1  0.2674825E-005  0.2042722E+03  0.7546771E-02  0.1147177E+00
          3   -1    0    0  502    0  0.00000000000E+00  0.00000000000E+00  0.23863282609E+03  0.23863282609E+03  0.00000000000E+00 0. -1.
         -4   -1    0    0    0  501 -0.00000000000E+00 -0.00000000000E+00 -0.25512924193E+03  0.25512924193E+03  0.00000000000E+00 0.  1.
         23    2    1    2    0    0  0.17810818224E+03  0.87102766844E+02 -0.80225769658E+02  0.23305072329E+03  0.92558354224E+02 0.  0.
        -24    2    1    2    0    0 -0.14219527543E+03 -0.80691053189E+02 -0.51778646718E+01  0.18274307100E+03  0.81471941783E+02 0.  0.
         11    1    4    4    0    0  0.15942575647E+00 -0.30545335239E+02  0.69550191922E+01  0.31327547198E+02  0.00000000000E+00 0. -1.
        -12    1    4    4    0    0 -0.14235470119E+03 -0.50145717950E+02 -0.12132883864E+02  0.15141552381E+03  0.00000000000E+00 0.  1.
        -11    1    3    3    0    0  0.80651551145E+02  0.80094857126E+02 -0.72972771810E+02  0.13507362535E+03  0.00000000000E+00 0. -1.
         11    1    3    3    0    0  0.97456631093E+02  0.70079097188E+01 -0.72529978481E+01  0.97977097938E+02  0.00000000000E+00 0.  1.
         21    1    1    2  502  501 -0.35912906809E+02 -0.64117136553E+01  0.68907218487E+02  0.77968273721E+02  0.00000000000E+00 0.  1.
<scales pt_clust_5="13000.00000" pt_clust_6="13000.00000" pt_clust_7="13000.00000" pt_clust_8="13000.00000" pt_clust_9="36.48078"></scales>
<clustering>
<clus scale="   36.481">  1  9  2 -1</clus>
<clus scale="   81.472">  5  6 -1 -1</clus>
<clus scale="   92.558">  7  8 -1 -1</clus>
<clus scale="  199.494">  1  5  2 -1</clus>
<clus scale="   36.481">  1  5  2 -1</clus>
</clustering>
</event>
<event>
 9    1  0.2674825E-005  0.1099662E+03  0.7546771E-02  0.1265263E+00
          3   -1    0    0  502    0  0.00000000000E+00  0.00000000000E+00  0.28144513239E+02  0.28144513239E+02  0.00000000000E+00 0. -1.
         -4   -1    0    0    0  501 -0.00000000000E+00 -0.00000000000E+00 -0.48471559961E+03  0.48471559961E+03  0.00000000000E+00 0.  1.
        -24    2    1    2    0    0  0.59326211947E+02  0.31225081200E+02 -0.24883530701E+03  0.26996534420E+03  0.80421837423E+02 0.  0.
         23    2    1    2    0    0 -0.49523143048E+02 -0.13306265056E+02 -0.17058716767E+03  0.20050133186E+03  0.92039143403E+02 0.  0.
         13    1    3    3    0    0  0.38108661853E+02  0.11804188330E+02 -0.31761518281E+02  0.50994146859E+02  0.00000000000E+00 0. -1.
        -14    1    3    3    0    0  0.21217550094E+02  0.19420892870E+02 -0.21707378873E+03  0.21897119735E+03  0.00000000000E+00 0.  1.
        -11    1    4    4    0    0  0.43050575921E+01 -0.42182465974E+02 -0.51910991250E+02  0.67027195743E+02  0.00000000000E+00 0. -1.
         11    1    4    4    0    0 -0.53828200640E+02  0.28876200919E+02 -0.11867617642E+03  0.13347413612E+03  0.00000000000E+00 0.  1.
         21    1    1    2  502  501 -0.98030688989E+01 -0.17918816144E+02 -0.37148611691E+02  0.42393436785E+02  0.00000000000E+00 0. -1.
<scales pt_clust_5="13000.00000" pt_clust_6="13000.00000" pt_clust_7="13000.00000" pt_clust_8="13000.00000" pt_clust_9="20.42509"></scales>
<clustering>
<clus scale="   20.425">  1  9  2 -1</clus>
<clus scale="   80.422">  5  6 -1 -1</clus>
<clus scale="   92.039">  7  8 -1 -1</clus>
<clus scale="  100.444">  2  5  1 -1</clus>
<clus scale="   20.425">  1  5  2 -1</clus>
</clustering>
</event>
<event>
 9    1  0.2674825E-005  0.1186748E+03  0.7546771E-02  0.1249925E+00
         -2   -1    0    0    0  501 -0.00000000000E+00  0.00000000000E+00  0.36312009283E+03  0.36312009283E+03  0.00000000000E+00 0.  1.
          1   -1    0    0  502    0  0.00000000000E+00 -0.00000000000E+00 -0.77944667152E+02  0.77944667152E+02  0.00000000000E+00 0. -1.
         23    2    1    2    0    0  0.65083102725E+02  0.26288642424E+02  0.24265781236E+03  0.26876157385E+03  0.91777266775E+02 0.  0.
        -24    2    1    2    0    0 -0.85428340754E+02 -0.23259441264E+02  0.70718265312E+02  0.13739786357E+03  0.77705191934E+02 0.  0.
         13    1    4    4    0    0 -0.46988306345E+02 -0.51567520821E+02  0.37158652066E+02  0.79043504225E+02  0.00000000000E+00 0. -1.
        -14    1    4    4    0    0 -0.38440034409E+02  0.28308079557E+02  0.33559613246E+02  0.58354359347E+02  0.00000000000E+00 0.  1.
        -13    1    3    3    0    0  0.81830450190E+02  0.11561706757E+00  0.14775800797E+03  0.16890430683E+03  0.00000000000E+00 0.  1.
         13    1    3    3    0    0 -0.16747347465E+02  0.26173025356E+02  0.94899804389E+02  0.99857267019E+02  0.00000000000E+00 0. -1.
         21    1    1    2  502  501  0.20345238029E+02 -0.30292011600E+01 -0.28200651996E+02  0.34905322562E+02  0.00000000000E+00 0. -1.
<scales pt_clust_5="13000.00000" pt_clust_6="13000.00000" pt_clust_7="13000.00000" pt_clust_8="13000.00000" pt_clust_9="20.56951"></scales>
<clustering>
<clus scale="   20.570">  2  9  1 -1</clus>
<clus scale="   77.705">  5  6 -1 -1</clus>
<clus scale="   91.777">  7  8 -1 -1</clus>
<clus scale="  108.161">  2  5  1 -1</clus>
<clus scale="   20.570">  2  5  1 -1</clus>
</clustering>
</event>
<event>
 9    1  0.2674825E-005  0.1372562E+03  0.7546771E-02  0.1219967E+00
         -2   -1    0    0    0  501 -0.00000000000E+00  0.00000000000E+00  0.62384176892E+02  0.62384176892E+02  0.00000000000E+00 0.  1.
          1   -1    0    0  502    0  0.00000000000E+00 -0.00000000000E+00 -0.35091125813E+03  0.35091125813E+03  0.00000000000E+00 0. -1.
        -24    2    1    2    0    0  0.87493720019E+02  0.61317581659E+02 -0.91079321681E+02  0.16169352051E+03  0.80214430576E+02 0.  0.
         23    2    1    2    0    0 -0.65404743785E+02 -0.67701524496E+02 -0.15827829541E+03  0.20618248565E+03  0.92724978628E+02 0.  0.
         13    1    3    3    0    0  0.93267751746E+02  0.27482112402E+02 -0.79084201274E+02  0.12533335912E+03  0.00000000000E+00 0. -1.
        -14    1    3    3    0    0 -0.57740317275E+01  0.33835469257E+02 -0.11995120408E+02  0.36360161384E+02  0.00000000000E+00 0.  1.
        -13    1    4    4    0    0 -0.67416221357E+02 -0.53398300875E+01 -0.63880405981E+02  0.93027775184E+02  0.00000000000E+00 0.  1.
         13    1    4    4    0    0  0.20114775718E+01 -0.62361694408E+02 -0.94397889434E+02  0.11315471047E+03  0.00000000000E+00 0. -1.
         21    1    1    2  502  501 -0.22088976234E+02  0.63839428365E+01 -0.39169464142E+02  0.45419428864E+02  0.00000000000E+00 0.  1.
<scales pt_clust_5="13000.00000" pt_clust_6="13000.00000" pt_clust_7="13000.00000" pt_clust_8="13000.00000" pt_clust_9="22.99299"></scales>
<clustering>
<clus scale="   22.993">  2  9  1 -1</clus>
<clus scale="   80.214">  5  6 -1 -1</clus>
<clus scale="   92.725">  7  8 -1 -1</clus>
<clus scale="  129.134">  1  5  2 -1</clus>
<clus scale="   22.993">  2  5  1 -1</clus>
</clustering>
</event>
<event>
 9    1  0.2674825E-005  0.1952074E+03  0.7546771E-02  0.1153949E+00
          1   -1    0    0  502    0  0.00000000000E+00  0.00000000000E+00  0.23274032306E+03  0.23274032306E+03  0.00000000000E+00 0. -1.
         -2   -1    0    0    0  501 -0.00000000000E+00 -0.00000000000E+00 -0.22667799486E+03  0.22667799486E+03  0.00000000000E+00 0.  1.
         23    2    1    2    0    0 -0.16573884757E+03  0.66044616941E+02 -0.83198391221E+02  0.21358956461E+03  0.82869009815E+02 0.  0.
        -24    2    1    2    0    0  0.17142226544E+03 -0.36017639059E+02  0.57327583606E+02  0.20162868767E+03  0.81760702286E+02 0.  0.
         13    1    4    4    0    0  0.13975891122E+03 -0.47085135572E+00  0.20102244047E+02  0.14119799993E+03  0.00000000000E+00 0. -1.
        -14    1    4    4    0    0  0.31663354219E+02 -0.35546787703E+02  0.37225339560E+02  0.60430687749E+02  0.00000000000E+00 0.  1.
        -13    1    3    3    0    0 -0.76608546736E+02 -0.61406466539E+01 -0.99383720027E+01  0.77494181797E+02  0.00000000000E+00 0.  1.
         13    1    3    3    0    0 -0.89130300832E+02  0.72185263595E+02 -0.73260019218E+02  0.13609538281E+03  0.00000000000E+00 0. -1.
         21    1    1    2  502  501 -0.56834178745E+01 -0.30026977882E+02  0.31933135811E+02  0.44200065636E+02  0.00000000000E+00 0. -1.
<scales pt_clust_5="13000.00000" pt_clust_6="13000.00000" pt_clust_7="13000.00000" pt_clust_8="13000.00000" pt_clust_9="30.56012"></scales>
<clustering>
<clus scale="   30.560">  1  9  2 -1</clus>
<clus scale="   81.761">  5  6 -1 -1</clus>
<clus scale="   82.869">  7  8 -1 -1</clus>
<clus scale="  194.739">  1  5  2 -1</clus>
<clus scale="   30.560">  1  5  2 -1</clus>
</clustering>
</event>
<event>
 9    1  0.2674825E-005  0.1805507E+03  0.7546771E-02  0.1168748E+00
          1   -1    0    0  502    0  0.00000000000E+00  0.00000000000E+00  0.22973257131E+03  0.22973257131E+03  0.00000000000E+00 0. -1.
         -2   -1    0    0    0  501 -0.00000000000E+00 -0.00000000000E+00 -0.54192632265E+03  0.54192632265E+03  0.00000000000E+00 0.  1.
        -24    2    1    2    0    0 -0.78961549016E+02  0.13732407260E+03 -0.43850836342E+03  0.47323036428E+03  0.81022007796E+02 0.  0.
         23    2    1    2    0    0  0.21223914163E+02 -0.14119533378E+03  0.12818216238E+02  0.17103130440E+03  0.93278205412E+02 0.  0.
         13    1    3    3    0    0 -0.34110166967E+02  0.23549321526E+01 -0.62830516057E+02  0.71531272489E+02  0.00000000000E+00 0. -1.
        -14    1    3    3    0    0 -0.44851382049E+02  0.13496914045E+03 -0.37567784736E+03  0.40169909179E+03  0.00000000000E+00 0.  1.
        -13    1    4    4    0    0 -0.65703483984E+01 -0.11610280494E+03 -0.23753400302E+02  0.11868974184E+03  0.00000000000E+00 0.  1.
         13    1    4    4    0    0  0.27794262561E+02 -0.25092528840E+02  0.36571616540E+02  0.52341562560E+02  0.00000000000E+00 0. -1.
         21    1    1    2  502  501  0.57737634853E+02  0.38712611780E+01  0.11349639584E+03  0.12739722529E+03  0.00000000000E+00 0.  1.
<scales pt_clust_5="13000.00000" pt_clust_6="13000.00000" pt_clust_7="13000.00000" pt_clust_8="13000.00000" pt_clust_9="57.86727"></scales>
<clustering>
<clus scale="   57.867">  1  9  2 -1</clus>
<clus scale="   81.022">  5  6 -1 -1</clus>
<clus scale="   93.278">  7  8 -1 -1</clus>
<clus scale="  174.535">  2  5  1 -1</clus>
<clus scale="   57.867">  1  5  2 -1</clus>
</clustering>
</event>
<event>
 9    1  0.2674825E-005  0.2024747E+03  0.7546771E-02  0.1148407E+00
         -2   -1    0    0    0  501 -0.00000000000E+00  0.00000000000E+00  0.39165354354E+03  0.39165354354E+03  0.00000000000E+00 0.  1.
          1   -1    0    0  502    0  0.00000000000E+00 -0.00000000000E+00 -0.33950224724E+03  0.33950224724E+03  0.00000000000E+00 0. -1.
         23    2    1    2    0    0  0.16917734448E+03 -0.10682853297E+03  0.30691727579E+03  0.37669558955E+03  0.87567366418E+02 0.  0.
        -24    2    1    2    0    0 -0.96480214784E+02  0.70237064157E+02 -0.85755151090E+02  0.16687430525E+03  0.79065863604E+02 0.  0.
         11    1    4    4    0    0 -0.69611131461E+02  0.47920176127E+01 -0.58518562178E+02  0.91066432759E+02  0.00000000000E+00 0. -1.
        -12    1    4    4    0    0 -0.26869083323E+02  0.65445046545E+02 -0.27236588912E+02  0.75807872490E+02  0.00000000000E+00 0.  1.
        -11    1    3    3    0    0  0.16377037674E+03 -0.78883870374E+02  0.22082012721E+03  0.28601561126E+03  0.00000000000E+00 0.  1.
         11    1    3    3    0    0  0.54069677362E+01 -0.27944662599E+02  0.86097148582E+02  0.90679978285E+02  0.00000000000E+00 0. -1.
         21    1    1    2  502  501 -0.72697129694E+02  0.36591468815E+02 -0.16901082840E+03  0.18758589598E+03  0.00000000000E+00 0. -1.
<scales pt_clust_5="13000.00000" pt_clust_6="13000.00000" pt_clust_7="13000.00000" pt_clust_8="13000.00000" pt_clust_9="81.38678"></scales>
<clustering>
<clus scale="   79.066">  5  6 -1 -1</clus>
<clus scale="   81.387">  2  9  1 -1</clus>
<clus scale="   87.567">  7  8 -1 -1</clus>
<clus scale="  198.946">  2  5  1 -1</clus>
<clus scale="   81.387">  2  5  1 -1</clus>
</clustering>
</event>
<event>
 9    1  0.2674825E-005  0.1220954E+03  0.7546771E-02  0.1251348E+00
          1   -1    0    0  502    0  0.00000000000E+00  0.00000000000E+00  0.36116282473E+03  0.36116282473E+03  0.00000000000E+00 0. -1.
         -2   -1    0    0    0  501 -0.00000000000E+00 -0.00000000000E+00 -0.26451677903E+03  0.26451677903E+03  0.00000000000E+00 0.  1.
         23    2    1    2    0    0 -0.57382179427E+02 -0.54831809236E+02 -0.21397209597E+03  0.24556863336E+03  0.90667822396E+02 0.  0.
        -24    2    1    2    0    0 -0.55123621716E+02  0.24176778769E+02  0.18524719310E+03  0.20889426290E+03  0.75479535095E+02 0.  0.
         13    1    4    4    0    0 -0.55983943567E+02  0.41276854333E+01  0.60454637359E+02  0.82498502427E+02  0.00000000000E+00 0. -1.
        -14    1    4    4    0    0  0.86032185100E+00  0.20049093336E+02  0.12479255574E+03  0.12639576047E+03  0.00000000000E+00 0.  1.
        -13    1    3    3    0    0 -0.49409126533E+02 -0.10488504547E+02 -0.18554165622E+03  0.19229398510E+03  0.00000000000E+00 0.  1.
         13    1    3    3    0    0 -0.79730528941E+01 -0.44343304689E+02 -0.28430439748E+02  0.53274648263E+02  0.00000000000E+00 0. -1.
         21    1    1    2  502  501  0.11250580114E+03  0.30655030467E+02  0.12537094857E+03  0.17121670751E+03  0.00000000000E+00 0.  1.
<scales pt_clust_5="13000.00000" pt_clust_6="13000.00000" pt_clust_7="13000.00000" pt_clust_8="13000.00000" pt_clust_9="81.77184"></scales>
<clustering>
<clus scale="   75.480">  5  6 -1 -1</clus>
<clus scale="   90.668">  7  8 -1 -1</clus>
<clus scale="   96.542">  1  5  2 -1</clus>
<clus scale="   81.772">  1  9  2 -1</clus>
<clus scale="   96.542">  1  5  2 -1</clus>
</clustering>
</event>
<event>
 9    1  0.2674825E-005  0.1099961E+03  0.7546771E-02  0.1264760E+00
         -2   -1    0    0    0  501 -0.00000000000E+00  0.00000000000E+00  0.24043801709E+03  0.24043801709E+03  0.00000000000E+00 0.  1.
          1   -1    0    0  502    0  0.00000000000E+00 -0.00000000000E+00 -0.23586998755E+03  0.23586998755E+03  0.00000000000E+00 0. -1.
         23    2    1    2    0    0  0.60887331842E+02  0.11909141201E+02  0.20049876633E+03  0.22875213242E+03  0.90987295631E+02 0.  0.
        -24    2    1    2    0    0 -0.65203283312E+02  0.31032630880E+02 -0.13502201564E+03  0.17290672260E+03  0.80319970606E+02 0.  0.
         13    1    4    4    0    0 -0.77155818460E+02  0.33116821140E+02 -0.13693226909E+03  0.16062437699E+03  0.00000000000E+00 0. -1.
        -14    1    4    4    0    0  0.11952535149E+02 -0.20841902604E+01  0.19102534467E+01  0.12282345613E+02  0.00000000000E+00 0.  1.
        -11    1    3    3    0    0 -0.12337472705E+02 -0.21839786337E+02  0.24030654494E+02  0.34737038667E+02  0.00000000000E+00 0.  1.
         11    1    3    3    0    0  0.73224804547E+02  0.33748927538E+02  0.17646811183E+03  0.19401509376E+03  0.00000000000E+00 0. -1.
         21    1    1    2  502  501  0.43159514700E+01 -0.42941772081E+02 -0.60908721146E+02  0.74649149615E+02  0.00000000000E+00 0. -1.
<scales pt_clust_5="13000.00000" pt_clust_6="13000.00000" pt_clust_7="13000.00000" pt_clust_8="13000.00000" pt_clust_9="43.15812"></scales>
<clustering>
<clus scale="   43.158">  2  9  1 -1</clus>
<clus scale="   80.320">  5  6 -1 -1</clus>
<clus scale="   90.987">  7  8 -1 -1</clus>
<clus scale="  101.350">  2  5  1 -1</clus>
<clus scale="   43.158">  2  5  1 -1</clus>
</clustering>
</event>
<event>
 9    1  0.3616725E-005  0.1741269E+03  0.7546771E-02  0.1174444E+00
         -2   -1    0    0    0  501 -0.00000000000E+00  0.00000000000E+00  0.33943145644E+03  0.33943145644E+03  0.00000000000E+00 0.  1.
          1   -1    0    0  502    0  0.00000000000E+00 -0.00000000000E+00 -0.45051551827E+03  0.45051551827E+03  0.00000000000E+00 0. -1.
         23    2    1    2    0    0  0.53479411935E+02 -0.14377265863E+03  0.28196522997E+03  0.33315591163E+03  0.89206757985E+02 0.  0.
        -24    2    1    2    0    0 -0.47759247620E+02  0.80860195565E+02 -0.36825769208E+03  0.38892854245E+03  0.82658129648E+02 0.  0.
         11    1    4    4    0    0 -0.60458251801E+02  0.82294550370E+02 -0.25100922501E+03  0.27098565326E+03  0.00000000000E+00 0. -1.
        -12    1    4    4    0    0  0.12699004181E+02 -0.14343548052E+01 -0.11724846708E+03  0.11794288920E+03  0.00000000000E+00 0.  1.
        -11    1    3    3    0    0  0.61711315954E+02 -0.66342003554E+02  0.20276673951E+03  0.22208984354E+03  0.00000000000E+00 0.  1.
         11    1    3    3    0    0 -0.82319040189E+01 -0.77430655077E+02  0.79198490462E+02  0.11106606809E+03  0.00000000000E+00 0. -1.
         21    1    1    2  502  501 -0.57201643155E+01  0.62912463066E+02 -0.24791599717E+02  0.67862520623E+02  0.00000000000E+00 0.  1.
<scales pt_clust_5="13000.00000" pt_clust_6="13000.00000" pt_clust_7="13000.00000" pt_clust_8="13000.00000" pt_clust_9="63.17197"></scales>
<clustering>
<clus scale="   63.172">  2  9  1 -1</clus>
<clus scale="   82.658">  5  6 -1 -1</clus>
<clus scale="   89.207">  7  8 -1 -1</clus>
<clus scale="  170.865">  2  5  1 -1</clus>
<clus scale="   63.172">  2  5  1 -1</clus>
</clustering>
</event>
<event>
 9    1  0.2674825E-005  0.1313031E+03  0.7546771E-02  0.1229393E+00
         -2   -1    0    0    0  501 -0.00000000000E+00  0.00000000000E+00  0.28240372087E+03  0.28240372087E+03  0.00000000000E+00 0.  1.
          1   -1    0    0  502    0  0.00000000000E+00 -0.00000000000E+00 -0.87290676469E+02  0.87290676469E+02  0.00000000000E+00 0. -1.
        -24    2    1    2    0    0 -0.33445610374E+02  0.80311700588E+02  0.10690078572E+03  0.16120986634E+03  0.83619763890E+02 0.  0.
         23    2    1    2    0    0  0.61970161858E+02 -0.67405939605E+02  0.10750811715E+03  0.17170765160E+03  0.97681424595E+02 0.  0.
         13    1    3    3    0    0 -0.43436807628E+02  0.93169583128E+02  0.82183536266E+02  0.13161102199E+03  0.00000000000E+00 0. -1.
        -14    1    3    3    0    0  0.99911972543E+01 -0.12857882540E+02  0.24717249454E+02  0.29598844345E+02  0.00000000000E+00 0.  1.
        -13    1    4    4    0    0  0.55813900191E+02 -0.42166906011E+02  0.98362830488E+01  0.70639874584E+02  0.00000000000E+00 0. -1.
         13    1    4    4    0    0  0.61562616676E+01 -0.25239033595E+02  0.97671834105E+02  0.10106777702E+03  0.00000000000E+00 0.  1.
         21    1    1    2  502  501 -0.28524551484E+02 -0.12905760982E+02 -0.19295858472E+02  0.36776879395E+02  0.00000000000E+00 0. -1.
<scales pt_clust_5="13000.00000" pt_clust_6="13000.00000" pt_clust_7="13000.00000" pt_clust_8="13000.00000" pt_clust_9="31.30828"></scales>
<clustering>
<clus scale="   31.308">  2  9  1 -1</clus>
<clus scale="   83.620">  5  6 -1 -1</clus>
<clus scale="   97.681">  7  8 -1 -1</clus>
<clus scale="  121.207">  1  5  2 -1</clus>
<clus scale="   31.308">  2  5  1 -1</clus>
</clustering>
</event>
<event>
 9    1  0.2674825E-005  0.1054342E+03  0.7546771E-02  0.1273797E+00
          1   -1    0    0  502    0  0.00000000000E+00  0.00000000000E+00  0.13330173220E+03  0.13330173220E+03  0.00000000000E+00 0. -1.
         -2   -1    0    0    0  501 -0.00000000000E+00 -0.00000000000E+00 -0.16588232238E+03  0.16588232238E+03  0.00000000000E+00 0.  1.
         23    2    1    2    0    0  0.50383259566E+02  0.17860981127E+02 -0.10464433872E+03  0.14888413310E+03  0.91425160500E+02 0.  0.
        -24    2    1    2    0    0 -0.38833382765E+02 -0.36192002187E+02  0.27497408761E+02  0.10074606564E+03  0.81091119208E+02 0.  0.
         13    1    4    4    0    0 -0.34187905609E+02 -0.32310909910E+02  0.55122319158E+02  0.72465701256E+02  0.00000000000E+00 0. -1.
        -14    1    4    4    0    0 -0.46454771552E+01 -0.38810922764E+01 -0.27624910397E+02  0.28280364385E+02  0.00000000000E+00 0.  1.
        -11    1    3    3    0    0 -0.22459007609E+02  0.22960690487E+02 -0.40508791690E+02  0.51696832926E+02  0.00000000000E+00 0. -1.
         11    1    3    3    0    0  0.72842267175E+02 -0.50997093608E+01 -0.64135547029E+02  0.97187300176E+02  0.00000000000E+00 0.  1.
         21    1    1    2  502  501 -0.11549876801E+02  0.18331021060E+02  0.44566339777E+02  0.49553855837E+02  0.00000000000E+00 0. -1.
<scales pt_clust_5="13000.00000" pt_clust_6="13000.00000" pt_clust_7="13000.00000" pt_clust_8="13000.00000" pt_clust_9="21.66624"></scales>
<clustering>
<clus scale="   21.666">  1  9  2 -1</clus>
<clus scale="   81.091">  5  6 -1 -1</clus>
<clus scale="   91.425">  7  8 -1 -1</clus>
<clus scale="   96.610">  1  5  2 -1</clus>
<clus scale="   21.666">  1  5  2 -1</clus>
</clustering>
</event>
<event>
 9    1  0.2674825E-005  0.2084214E+03  0.7546771E-02  0.1143699E+00
         -2   -1    0    0    0  501 -0.00000000000E+00  0.00000000000E+00  0.49038757899E+02  0.49038757899E+02  0.00000000000E+00 0.  1.
          1   -1    0    0  502    0  0.00000000000E+00 -0.00000000000E+00 -0.14874011830E+04  0.14874011830E+04  0.00000000000E+00 0. -1.
        -24    2    1    2    0    0  0.16376281333E+03  0.90976641393E+02 -0.24541576890E+03  0.31920178680E+03  0.81030073223E+02 0.  0.
         23    2    1    2    0    0 -0.17763577293E+03 -0.64672992657E+02 -0.98146583293E+03  0.10036767354E+04  0.91404289632E+02 0.  0.
         13    1    3    3    0    0  0.45416355928E+02 -0.12098120641E+02 -0.62146720132E+02  0.77918064221E+02  0.00000000000E+00 0. -1.
        -14    1    3    3    0    0  0.11834645740E+03  0.10307476203E+03 -0.18326904877E+03  0.24128372258E+03  0.00000000000E+00 0.  1.
        -13    1    4    4    0    0 -0.26390666158E+02 -0.46399801166E+02 -0.17547747111E+03  0.18341687947E+03  0.00000000000E+00 0.  1.
         13    1    4    4    0    0 -0.15124510677E+03 -0.18273191491E+02 -0.80598836182E+03  0.82025985592E+03  0.00000000000E+00 0. -1.
         21    1    1    2  502  501  0.13872959607E+02 -0.26303648736E+02 -0.21148082323E+03  0.21356141865E+03  0.00000000000E+00 0. -1.
<scales pt_clust_5="13000.00000" pt_clust_6="13000.00000" pt_clust_7="13000.00000" pt_clust_8="13000.00000" pt_clust_9="29.73787"></scales>
<clustering>
<clus scale="   29.738">  2  9  1 -1</clus>
<clus scale="   81.030">  5  6 -1 -1</clus>
<clus scale="   91.404">  7  8 -1 -1</clus>
<clus scale="  204.085">  1  5  2 -1</clus>
<clus scale="   29.738">  2  5  1 -1</clus>
</clustering>
</event>
<event>
 9    1  0.2674825E-005  0.1066032E+03  0.7546771E-02  0.1272269E+00
          3   -1    0    0  502    0  0.00000000000E+00  0.00000000000E+00  0.71171738915E+03  0.71171738915E+03  0.00000000000E+00 0. -1.
         -4   -1    0    0    0  501 -0.00000000000E+00 -0.00000000000E+00 -0.72756795849E+02  0.72756795849E+02  0.00000000000E+00 0.  1.
         23    2    1    2    0    0 -0.33668956675E+02  0.19638690427E+02  0.20432435060E+02  0.10249213633E+03  0.92562826238E+02 0.  0.
        -24    2    1    2    0    0  0.10334429051E+03  0.33485172999E+02  0.13666349683E+03  0.19221644256E+03  0.80429784488E+02 0.  0.
         13    1    4    4    0    0  0.31735291887E+02  0.44058870612E+01  0.10308475773E+03  0.10794909850E+03  0.00000000000E+00 0. -1.
        -14    1    4    4    0    0  0.71608998626E+02  0.29079285937E+02  0.33578739103E+02  0.84267344058E+02  0.00000000000E+00 0.  1.
        -11    1    3    3    0    0 -0.47102883494E+02 -0.21399048793E+02  0.27730570189E+02  0.58699109411E+02  0.00000000000E+00 0. -1.
         11    1    3    3    0    0  0.13433926819E+02  0.41037739220E+02 -0.72981351295E+01  0.43793026916E+02  0.00000000000E+00 0.  1.
         21    1    1    2  502  501 -0.69675333838E+02 -0.53123863426E+02  0.48186466141E+03  0.48976560611E+03  0.00000000000E+00 0. -1.
<scales pt_clust_5="13000.00000" pt_clust_6="13000.00000" pt_clust_7="13000.00000" pt_clust_8="13000.00000" pt_clust_9="87.61733"></scales>
<clustering>
<clus scale="   80.430">  5  6 -1 -1</clus>
<clus scale="   87.617">  1  9  2 -1</clus>
<clus scale="   92.563">  7  8 -1 -1</clus>
<clus scale="   96.257">  1  5  2 -1</clus>
<clus scale="   87.617">  1  5  2 -1</clus>
</clustering>
</event>
<event>
 9    1  0.2674825E-005  0.1060791E+03  0.7546771E-02  0.1271417E+00
          1   -1    0    0  502    0  0.00000000000E+00  0.00000000000E+00  0.16988153936E+03  0.16988153936E+03  0.00000000000E+00 0. -1.
         -2   -1    0    0    0  501 -0.00000000000E+00 -0.00000000000E+00 -0.21165605643E+03  0.21165605643E+03  0.00000000000E+00 0.  1.
         23    2    1    2    0    0  0.66413792149E+01 -0.49212319157E+02 -0.15070068236E+03  0.18321060298E+03  0.91594045142E+02 0.  0.
        -24    2    1    2    0    0  0.12565066908E+02  0.85615657756E+02  0.99352405595E+02  0.15606888698E+03  0.83658085247E+02 0.  0.
         13    1    4    4    0    0  0.40017423482E+02  0.74421572386E+02  0.49114144036E+02  0.97735171576E+02  0.00000000000E+00 0. -1.
        -14    1    4    4    0    0 -0.27452356574E+02  0.11194085370E+02  0.50238261559E+02  0.58333715408E+02  0.00000000000E+00 0.  1.
        -13    1    3    3    0    0  0.37729289389E+02 -0.41672521047E+02 -0.42759702463E+02  0.70629246371E+02  0.00000000000E+00 0.  1.
         13    1    3    3    0    0 -0.31087910174E+02 -0.75397981096E+01 -0.10794097990E+03  0.11258135661E+03  0.00000000000E+00 0. -1.
         21    1    1    2  502  501 -0.19206446123E+02 -0.36403338600E+02  0.95737596862E+01  0.42258105831E+02  0.00000000000E+00 0.  1.
<scales pt_clust_5="13000.00000" pt_clust_6="13000.00000" pt_clust_7="13000.00000" pt_clust_8="13000.00000" pt_clust_9="41.15933"></scales>
<clustering>
<clus scale="   41.159">  1  9  2 -1</clus>
<clus scale="   83.658">  5  6 -1 -1</clus>
<clus scale="   91.594">  7  8 -1 -1</clus>
<clus scale="   99.307">  1  5  2 -1</clus>
<clus scale="   41.159">  1  5  2 -1</clus>
</clustering>
</event>
<event>
 9    1  0.2674825E-005  0.1129578E+03  0.7546771E-02  0.1258486E+00
         -2   -1    0    0    0  501 -0.00000000000E+00  0.00000000000E+00  0.53090093505E+02  0.53090093505E+02  0.00000000000E+00 0.  1.
          1   -1    0    0  502    0  0.00000000000E+00 -0.00000000000E+00 -0.33860843909E+03  0.33860843909E+03  0.00000000000E+00 0. -1.
        -24    2    1    2    0    0 -0.72955813756E+02  0.43298872760E+02 -0.90784622138E+02  0.14886171507E+03  0.81979384313E+02 0.  0.
         23    2    1    2    0    0  0.44347357495E+02 -0.16285189007E+02 -0.11596073554E+03  0.15478361485E+03  0.90989998019E+02 0.  0.
         11    1    3    3    0    0 -0.78960274873E+02  0.86820822493E+01 -0.78399222737E+02  0.11160887817E+03  0.00000000000E+00 0. -1.
        -12    1    3    3    0    0  0.60044611173E+01  0.34616790511E+02 -0.12385399401E+02  0.37252836897E+02  0.00000000000E+00 0.  1.
        -13    1    4    4    0    0  0.18960096975E+02  0.32895847254E+02 -0.17443565859E+02  0.41783968621E+02  0.00000000000E+00 0.  1.
         13    1    4    4    0    0  0.25387260519E+02 -0.49181036261E+02 -0.98517169686E+02  0.11299964623E+03  0.00000000000E+00 0. -1.
         21    1    1    2  502  501  0.28608456261E+02 -0.27013683753E+02 -0.78772987897E+02  0.88053202678E+02  0.00000000000E+00 0.  1.
<scales pt_clust_5="13000.00000" pt_clust_6="13000.00000" pt_clust_7="13000.00000" pt_clust_8="13000.00000" pt_clust_9="39.34696"></scales>
<clustering>
<clus scale="   39.347">  2  9  1 -1</clus>
<clus scale="   81.979">  5  6 -1 -1</clus>
<clus scale="   90.990">  7  8 -1 -1</clus>
<clus scale="  105.834">  1  5  2 -1</clus>
<clus scale="   39.347">  2  5  1 -1</clus>
</clustering>
</event>
<event>
 9    1  0.2674825E-005  0.1032914E+03  0.7546771E-02  0.1280242E+00
          1   -1    0    0  502    0  0.00000000000E+00  0.00000000000E+00  0.14613951417E+03  0.14613951417E+03  0.00000000000E+00 0. -1.
         -2   -1    0    0    0  501 -0.00000000000E+00 -0.00000000000E+00 -0.12438365884E+03  0.12438365884E+03  0.00000000000E+00 0.  1.
        -24    2    1    2    0    0  0.64608848572E+01 -0.40971969157E+02 -0.42918730237E+02  0.98935905059E+02  0.78904059560E+02 0.  0.
         23    2    1    2    0    0 -0.39089975228E+02  0.43711201940E+02  0.13380457002E+02  0.11073294551E+03  0.92973400785E+02 0.  0.
         11    1    3    3    0    0  0.35191818592E+02  0.42717492928E+01 -0.19349203909E+02  0.40386923994E+02  0.00000000000E+00 0. -1.
        -12    1    3    3    0    0 -0.28730933734E+02 -0.45243718450E+02 -0.23569526328E+02  0.58548981065E+02  0.00000000000E+00 0.  1.
        -13    1    4    4    0    0 -0.33313288908E+02 -0.21694251297E+02 -0.10071489076E+02  0.41010372461E+02  0.00000000000E+00 0.  1.
         13    1    4    4    0    0 -0.57766863205E+01  0.65405453236E+02  0.23451946077E+02  0.69722573050E+02  0.00000000000E+00 0. -1.
         21    1    1    2  502  501  0.32629090371E+02 -0.27392327823E+01  0.51294128566E+02  0.60854322444E+02  0.00000000000E+00 0. -1.
<scales pt_clust_5="13000.00000" pt_clust_6="13000.00000" pt_clust_7="13000.00000" pt_clust_8="13000.00000" pt_clust_9="32.74387"></scales>
<clustering>
<clus scale="   32.744">  1  9  2 -1</clus>
<clus scale="   78.904">  5  6 -1 -1</clus>
<clus scale="   90.834">  2  5  1 -1</clus>
<clus scale="   92.973">  7  8 -1 -1</clus>
<clus scale="   32.744">  1  5  2 -1</clus>
</clustering>
</event>
<event>
 9    1  0.2674825E-005  0.1007656E+03  0.7546771E-02  0.1282068E+00
         -2   -1    0    0    0  501 -0.00000000000E+00  0.00000000000E+00  0.27970938157E+03  0.27970938157E+03  0.00000000000E+00 0.  1.
          1   -1    0    0  502    0  0.00000000000E+00 -0.00000000000E+00 -0.56159551365E+02  0.56159551365E+02  0.00000000000E+00 0. -1.
        -24    2    1    2    0    0  0.39129754759E+02  0.98785451950E+01  0.99944968836E+02  0.13359723807E+03  0.78933528118E+02 0.  0.
         23    2    1    2    0    0 -0.67382054650E+02  0.77578276699E+01  0.12804740497E+03  0.16867154174E+03  0.86333225895E+02 0.  0.
         13    1    3    3    0    0 -0.72831493000E+01 -0.24405764349E+02  0.54465970072E+02  0.60126761871E+02  0.00000000000E+00 0. -1.
        -14    1    3    3    0    0  0.46412904059E+02  0.34284309544E+02  0.45478998764E+02  0.73470476198E+02  0.00000000000E+00 0.  1.
        -13    1    4    4    0    0 -0.49002849869E+02 -0.73144743874E+01  0.13039215674E+02  0.51232821279E+02  0.00000000000E+00 0. -1.
         13    1    4    4    0    0 -0.18379204781E+02  0.15072302057E+02  0.11500818929E+03  0.11743872046E+03  0.00000000000E+00 0.  1.
         21    1    1    2  502  501  0.28252299891E+02 -0.17636372865E+02 -0.44425435980E+01  0.33600153133E+02  0.00000000000E+00 0. -1.
<scales pt_clust_5="13000.00000" pt_clust_6="13000.00000" pt_clust_7="13000.00000" pt_clust_8="13000.00000" pt_clust_9="33.30517"></scales>
<clustering>
<clus scale="   33.305">  2  9  1 -1</clus>
<clus scale="   78.934">  5  6 -1 -1</clus>
<clus scale="   86.333">  7  8 -1 -1</clus>
<clus scale="   94.503">  1  5  2 -1</clus>
<clus scale="   33.305">  2  5  1 -1</clus>
</clustering>
</event>
<event>
 9    1  0.2674825E-005  0.9174772E+02  0.7546771E-02  0.1301557E+00
         -2   -1    0    0    0  501 -0.00000000000E+00  0.00000000000E+00  0.40981867689E+02  0.40981867689E+02  0.00000000000E+00 0.  1.
          1   -1    0    0  502    0  0.00000000000E+00 -0.00000000000E+00 -0.57542754937E+03  0.57542754937E+03  0.00000000000E+00 0. -1.
        -24    2    1    2    0    0 -0.26846800861E+02  0.20969508743E+02 -0.27498277821E+02  0.91151522839E+02  0.79949820633E+02 0.  0.
         23    2    1    2    0    0  0.46203241533E+01 -0.48869765659E+02 -0.41877835199E+03  0.43014626344E+03  0.85093468974E+02 0.  0.
         13    1    3    3    0    0  0.17220616546E+02  0.11386537310E+02 -0.39425470271E+02  0.44503601789E+02  0.00000000000E+00 0. -1.
        -14    1    3    3    0    0 -0.44067417408E+02  0.95829714332E+01  0.11927192450E+02  0.46647921049E+02  0.00000000000E+00 0.  1.
        -13    1    4    4    0    0 -0.36017730335E+02 -0.16472562914E+02 -0.10759824475E+03  0.11465602688E+03  0.00000000000E+00 0.  1.
         13    1    4    4    0    0  0.40638054488E+02 -0.32397202745E+02 -0.31118010724E+03  0.31549023656E+03  0.00000000000E+00 0. -1.
         21    1    1    2  502  501  0.22226476708E+02  0.27900256916E+02 -0.88169051864E+02  0.95111630779E+02  0.00000000000E+00 0. -1.
<scales pt_clust_5="13000.00000" pt_clust_6="13000.00000" pt_clust_7="13000.00000" pt_clust_8="13000.00000" pt_clust_9="35.67129"></scales>
<clustering>
<clus scale="   35.671">  2  9  1 -1</clus>
<clus scale="   79.950">  5  6 -1 -1</clus>
<clus scale="   85.093">  7  8 -1 -1</clus>
<clus scale="   86.998">  1  5  2 -1</clus>
<clus scale="   35.671">  2  5  1 -1</clus>
</clustering>
</event>
<event>
 9    1  0.2674825E-005  0.1905396E+03  0.7546771E-02  0.1159290E+00
          1   -1    0    0  502    0  0.00000000000E+00  0.00000000000E+00  0.55396322816E+03  0.55396322816E+03  0.00000000000E+00 0. -1.
         -2   -1    0    0    0  501 -0.00000000000E+00 -0.00000000000E+00 -0.24377071045E+03  0.24377071045E+03  0.00000000000E+00 0.  1.
        -24    2    1    2    0    0 -0.14553811805E+03 -0.81057312812E+02 -0.18202637028E+03  0.25924291734E+03  0.79508860788E+02 0.  0.
         23    2    1    2    0    0  0.13761658480E+03  0.10104700967E+03  0.46472585065E+03  0.50358821663E+03  0.92098605273E+02 0.  0.
         13    1    3    3    0    0 -0.46724126824E+02 -0.53332024253E+02 -0.11983441932E+03  0.13923985382E+03  0.00000000000E+00 0. -1.
        -14    1    3    3    0    0 -0.98813991231E+02 -0.27725288560E+02 -0.62191950964E+02  0.12000306352E+03  0.00000000000E+00 0.  1.
        -13    1    4    4    0    0  0.58311450034E+02  0.89945454948E+02  0.32875029581E+03  0.34578485662E+03  0.00000000000E+00 0. -1.
         13    1    4    4    0    0  0.79305134771E+02  0.11101554720E+02  0.13597555484E+03  0.15780336002E+03  0.00000000000E+00 0.  1.
         21    1    1    2  502  501  0.79215332499E+01 -0.19989696855E+02  0.27493037346E+02  0.34902804643E+02  0.00000000000E+00 0. -1.
<scales pt_clust_5="13000.00000" pt_clust_6="13000.00000" pt_clust_7="13000.00000" pt_clust_8="13000.00000" pt_clust_9="21.50206"></scales>
<clustering>
<clus scale="   21.502">  1  9  2 -1</clus>
<clus scale="   79.509">  5  6 -1 -1</clus>
<clus scale="   92.099">  7  8 -1 -1</clus>
<clus scale="  184.783">  2  5  1 -1</clus>
<clus scale="   21.502">  1  5  2 -1</clus>
</clustering>
</event>
<event>
 9    1  0.2674825E-005  0.1225347E+03  0.7546771E-02  0.1241427E+00
          1   -1    0    0  502    0  0.00000000000E+00  0.00000000000E+00  0.98776182213E+03  0.98776182213E+03  0.00000000000E+00 0. -1.
         -2   -1    0    0    0  501 -0.00000000000E+00 -0.00000000000E+00 -0.34924234439E+02  0.34924234439E+02  0.00000000000E+00 0.  1.
         23    2    1    2    0    0  0.32127493928E+02 -0.56152133108E+02  0.15048201349E+03  0.18874814897E+03  0.93785870128E+02 0.  0.
        -24    2    1    2    0    0 -0.87359413260E+02  0.71680498956E+02  0.34577883774E+03  0.37377053443E+03  0.85858294653E+02 0.  0.
         13    1    4    4    0    0 -0.10389679818E+03  0.64513456324E+02  0.31746667899E+03  0.34020820535E+03  0.00000000000E+00 0. -1.
        -14    1    4    4    0    0  0.16537384916E+02  0.71670426325E+01  0.28312158750E+02  0.33562329077E+02  0.00000000000E+00 0.  1.
        -11    1    3    3    0    0  0.39796087859E+02 -0.13860381572E+02  0.12098026817E+02  0.43842913214E+02  0.00000000000E+00 0.  1.
         11    1    3    3    0    0 -0.76685939312E+01 -0.42291751536E+02  0.13838398668E+03  0.14490523575E+03  0.00000000000E+00 0. -1.
         21    1    1    2  502  501  0.55231919332E+02 -0.15528365848E+02  0.45657673646E+03  0.46016737317E+03  0.00000000000E+00 0.  1.
<scales pt_clust_5="13000.00000" pt_clust_6="13000.00000" pt_clust_7="13000.00000" pt_clust_8="13000.00000" pt_clust_9="57.37330"></scales>
<clustering>
<clus scale="   57.373">  1  9  2 -1</clus>
<clus scale="   85.858">  5  6 -1 -1</clus>
<clus scale="   93.786">  7  8 -1 -1</clus>
<clus scale="  116.579">  1  5  2 -1</clus>
<clus scale="   57.373">  1  5  2 -1</clus>
</clustering>
</event>
<event>
 9    1  0.2674825E-005  0.9891152E+02  0.7546771E-02  0.1289697E+00
          1   -1    0    0  502    0  0.00000000000E+00  0.00000000000E+00  0.30137216570E+03  0.30137216570E+03  0.00000000000E+00 0. -1.
         -2   -1    0    0    0  501 -0.00000000000E+00 -0.00000000000E+00 -0.52019745560E+03  0.52019745560E+03  0.00000000000E+00 0.  1.
        -24    2    1    2    0    0  0.31499936312E+02  0.32361969289E+02 -0.46901484840E+03  0.47708723409E+03  0.74818165411E+02 0.  0.
         23    2    1    2    0    0  0.49373051908E+02 -0.54771329065E+02  0.47027126787E+02  0.12466975497E+03  0.88844810817E+02 0.  0.
         13    1    3    3    0    0  0.10007960663E+02  0.47268998078E+02 -0.16444238603E+03  0.17139374487E+03  0.00000000000E+00 0. -1.
        -14    1    3    3    0    0  0.21491975649E+02 -0.14907028789E+02 -0.30457246236E+03  0.30569348923E+03  0.00000000000E+00 0.  1.
        -13    1    4    4    0    0 -0.14393218001E+02 -0.28402679742E+02 -0.11836643834E+02  0.33970326437E+02  0.00000000000E+00 0. -1.
         13    1    4    4    0    0  0.63766269909E+02 -0.26368649323E+02  0.58863770621E+02  0.90699428537E+02  0.00000000000E+00 0.  1.
         21    1    1    2  502  501 -0.80872988220E+02  0.22409359777E+02  0.20316243171E+03  0.21981263223E+03  0.00000000000E+00 0. -1.
<scales pt_clust_5="13000.00000" pt_clust_6="13000.00000" pt_clust_7="13000.00000" pt_clust_8="13000.00000" pt_clust_9="83.92032"></scales>
<clustering>
<clus scale="   74.818">  5  6 -1 -1</clus>
<clus scale="   83.920">  1  9  2 -1</clus>
<clus scale="   86.532">  2  5  1 -1</clus>
<clus scale="   88.845">  7  8 -1 -1</clus>
<clus scale="   83.920">  1  5  2 -1</clus>
</clustering>
</event>
<event>
 9    1  0.2674825E-005  0.1057459E+03  0.7546771E-02  0.1278841E+00
         -2   -1    0    0    0  501 -0.00000000000E+00  0.00000000000E+00  0.68364938265E+02  0.68364938265E+02  0.00000000000E+00 0.  1.
          1   -1    0    0  502    0  0.00000000000E+00 -0.00000000000E+00 -0.30583051652E+03  0.30583051652E+03  0.00000000000E+00 0. -1.
        -24    2    1    2    0    0 -0.35931757478E+02 -0.28107571149E+02  0.51751599963E+01  0.90718005133E+02  0.78242235544E+02 0.  0.
         23    2    1    2    0    0 -0.33496899127E+01  0.63942190699E+01 -0.19050379547E+03  0.21468237301E+03  0.98715341934E+02 0.  0.
         11    1    3    3    0    0  0.23780138082E+02 -0.11170947539E+02 -0.75981477804E+01  0.27349897364E+02  0.00000000000E+00 0. -1.
        -12    1    3    3    0    0 -0.59711895560E+02 -0.16936623609E+02  0.12773307777E+02  0.63368107769E+02  0.00000000000E+00 0.  1.
        -11    1    4    4    0    0  0.32833821723E+01  0.50628486657E+02 -0.72525862610E+02  0.88510027720E+02  0.00000000000E+00 0. -1.
         11    1    4    4    0    0 -0.66330720850E+01 -0.44234267587E+02 -0.11797793286E+03  0.12617234529E+03  0.00000000000E+00 0.  1.
         21    1    1    2  502  501  0.39281447391E+02  0.21713352079E+02 -0.52136942786E+02  0.68795076645E+02  0.00000000000E+00 0. -1.
<scales pt_clust_5="13000.00000" pt_clust_6="13000.00000" pt_clust_7="13000.00000" pt_clust_8="13000.00000" pt_clust_9="44.88320"></scales>
<clustering>
<clus scale="   44.883">  2  9  1 -1</clus>
<clus scale="   78.242">  5  6 -1 -1</clus>
<clus scale="   86.944">  1  5  2 -1</clus>
<clus scale="   98.715">  7  8 -1 -1</clus>
<clus scale="   44.883">  2  5  1 -1</clus>
</clustering>
</event>
<event>
 9    1  0.2674825E-005  0.1004298E+03  0.7546771E-02  0.1286854E+00
         -2   -1    0    0    0  501 -0.00000000000E+00  0.00000000000E+00  0.13231064004E+03  0.13231064004E+03  0.00000000000E+00 0.  1.
          1   -1    0    0  502    0  0.00000000000E+00 -0.00000000000E+00 -0.10385655436E+03  0.10385655436E+03  0.00000000000E+00 0. -1.
        -24    2    1    2    0    0 -0.20901853433E+02 -0.41736371810E+02  0.43682251083E+02  0.10073012776E+03  0.77843479941E+02 0.  0.
         23    2    1    2    0    0 -0.13577714166E+02  0.31243347732E+02 -0.12552292040E+02  0.99296999764E+02  0.92422037563E+02 0.  0.
         13    1    3    3    0    0 -0.40358196207E+02 -0.53737403411E+02  0.37880616413E+02  0.77145535362E+02  0.00000000000E+00 0. -1.
        -14    1    3    3    0    0  0.19456342774E+02  0.12001031601E+02  0.58016346692E+01  0.23584592395E+02  0.00000000000E+00 0.  1.
        -13    1    4    4    0    0 -0.29370331129E+02  0.33814234634E+01 -0.44911479677E+02  0.53768870009E+02  0.00000000000E+00 0. -1.
         13    1    4    4    0    0  0.15792616963E+02  0.27861924268E+02  0.32359187637E+02  0.45528129755E+02  0.00000000000E+00 0.  1.
         21    1    1    2  502  501  0.34479567599E+02  0.10493024078E+02 -0.26758733670E+01  0.36140066884E+02  0.00000000000E+00 0.  1.
<scales pt_clust_5="13000.00000" pt_clust_6="13000.00000" pt_clust_7="13000.00000" pt_clust_8="13000.00000" pt_clust_9="36.04087"></scales>
<clustering>
<clus scale="   36.041">  2  9  1 -1</clus>
<clus scale="   77.843">  5  6 -1 -1</clus>
<clus scale="   87.200">  1  5  2 -1</clus>
<clus scale="   92.422">  7  8 -1 -1</clus>
<clus scale="   36.041">  2  5  1 -1</clus>
</clustering>
</event>
<event>
 9    1  0.2674825E-005  0.1877986E+03  0.7546771E-02  0.1161522E+00
         -2   -1    0    0    0  501 -0.00000000000E+00  0.00000000000E+00  0.67172245080E+03  0.67172245080E+03  0.00000000000E+00 0.  1.
          1   -1    0    0  502    0  0.00000000000E+00 -0.00000000000E+00 -0.63759386123E+03  0.63759386123E+03  0.00000000000E+00 0. -1.
         23    2    1    2    0    0 -0.51918264632E+02 -0.15281859576E+03  0.59581955036E+03  0.62389822617E+03  0.90548498683E+02 0.  0.
        -24    2    1    2    0    0  0.65357582922E+02  0.20187852620E+03 -0.15340816232E+03  0.27397873969E+03  0.80645722446E+02 0.  0.
         11    1    4    4    0    0  0.67154485605E+02  0.19793014498E+03 -0.16194079784E+03  0.26440667396E+03  0.00000000000E+00 0. -1.
        -12    1    4    4    0    0 -0.17969026837E+01  0.39483812170E+01  0.85326355161E+01  0.95720657300E+01  0.00000000000E+00 0.  1.
        -13    1    3    3    0    0  0.15201273210E+02 -0.69824037941E+02  0.32585302731E+03  0.33359656831E+03  0.00000000000E+00 0.  1.
         13    1    3    3    0    0 -0.67119537842E+02 -0.82994557824E+02  0.26996652305E+03  0.29030165786E+03  0.00000000000E+00 0. -1.
         21    1    1    2  502  501 -0.13439318290E+02 -0.49059930435E+02 -0.40828279847E+03  0.41143934617E+03  0.00000000000E+00 0.  1.
<scales pt_clust_5="13000.00000" pt_clust_6="13000.00000" pt_clust_7="13000.00000" pt_clust_8="13000.00000" pt_clust_9="50.86740"></scales>
<clustering>
<clus scale="   50.867">  2  9  1 -1</clus>
<clus scale="   80.646">  5  6 -1 -1</clus>
<clus scale="   90.548">  7  8 -1 -1</clus>
<clus scale="  183.229">  2  5  1 -1</clus>
<clus scale="   50.867">  2  5  1 -1</clus>
</clustering>
</event>
<event>
 9    1  0.2674825E-005  0.1150961E+03  0.7546771E-02  0.1256430E+00
          1   -1    0    0  502    0  0.00000000000E+00  0.00000000000E+00  0.65836623797E+03  0.65836623797E+03  0.00000000000E+00 0. -1.
         -2   -1    0    0    0  501 -0.00000000000E+00 -0.00000000000E+00 -0.69636765690E+02  0.69636765690E+02  0.00000000000E+00 0.  1.
         23    2    1    2    0    0 -0.48914982495E+02 -0.56864369835E+02  0.69450802822E+01  0.12244246706E+03  0.96528190343E+02 0.  0.
        -24    2    1    2    0    0  0.59408536742E+01 -0.11886464854E+02  0.35008064099E+03  0.36008124776E+03  0.83219396791E+02 0.  0.
         13    1    4    4    0    0 -0.36878377314E+02 -0.26702617475E+01  0.21262396936E+03  0.21581496093E+03  0.00000000000E+00 0. -1.
        -14    1    4    4    0    0  0.42819230988E+02 -0.92162031064E+01  0.13745667163E+03  0.14426628683E+03  0.00000000000E+00 0.  1.
        -11    1    3    3    0    0  0.18500773037E+02  0.12953943364E+02 -0.85696684308E+01  0.24156209733E+02  0.00000000000E+00 0. -1.
         11    1    3    3    0    0 -0.67415755532E+02 -0.69818313200E+02  0.15514748713E+02  0.98286257329E+02  0.00000000000E+00 0.  1.
         21    1    1    2  502  501  0.42974128821E+02  0.68750834689E+02  0.23170375101E+03  0.24547928884E+03  0.00000000000E+00 0. -1.
<scales pt_clust_5="13000.00000" pt_clust_6="13000.00000" pt_clust_7="13000.00000" pt_clust_8="13000.00000" pt_clust_9="81.07683"></scales>
<clustering>
<clus scale="   81.077">  1  9  2 -1</clus>
<clus scale="   83.219">  5  6 -1 -1</clus>
<clus scale="   96.528">  7  8 -1 -1</clus>
<clus scale="  104.187">  1  5  2 -1</clus>
<clus scale="   81.077">  1  5  2 -1</clus>
</clustering>
</event>
<event>
 9    1  0.2674825E-005  0.1118490E+03  0.7546771E-02  0.1261458E+00
         -2   -1    0    0    0  501 -0.00000000000E+00  0.00000000000E+00  0.18942057837E+03  0.18942057837E+03  0.00000000000E+00 0.  1.
          1   -1    0    0  502    0  0.00000000000E+00 -0.00000000000E+00 -0.56851685847E+03  0.56851685847E+03  0.00000000000E+00 0. -1.
         23    2    1    2    0    0  0.42910820949E+02  0.46810991918E+02  0.16254426822E+03  0.19725066011E+03  0.91948769769E+02 0.  0.
        -24    2    1    2    0    0 -0.21860473901E+02 -0.72328184240E+02 -0.44538036748E+03  0.45890138175E+03  0.80731405811E+02 0.  0.
         11    1    4    4    0    0 -0.42884826891E+02 -0.65793118384E+02 -0.40824135693E+03  0.41572689150E+03  0.00000000000E+00 0. -1.
        -12    1    4    4    0    0  0.21024352990E+02 -0.65350658562E+01 -0.37139010545E+02  0.43174490253E+02  0.00000000000E+00 0.  1.
        -11    1    3    3    0    0 -0.26826974683E+01  0.49279983440E+02  0.31671329590E+02  0.58641169425E+02  0.00000000000E+00 0. -1.
         11    1    3    3    0    0  0.45593518417E+02 -0.24689915225E+01  0.13087293863E+03  0.13860949068E+03  0.00000000000E+00 0.  1.
         21    1    1    2  502  501 -0.21050347047E+02  0.25517192322E+02 -0.96260180839E+02  0.10178539497E+03  0.00000000000E+00 0.  1.
<scales pt_clust_5="13000.00000" pt_clust_6="13000.00000" pt_clust_7="13000.00000" pt_clust_8="13000.00000" pt_clust_9="33.07936"></scales>
<clustering>
<clus scale="   33.079">  2  9  1 -1</clus>
<clus scale="   80.731">  5  6 -1 -1</clus>
<clus scale="   91.949">  7  8 -1 -1</clus>
<clus scale="  102.826">  2  5  1 -1</clus>
<clus scale="   33.079">  2  5  1 -1</clus>
</clustering>
</event>
<event>
 9    1  0.2674825E-005  0.1879144E+03  0.7546771E-02  0.1161572E+00
          1   -1    0    0  502    0  0.00000000000E+00  0.00000000000E+00  0.30048156108E+03  0.30048156108E+03  0.00000000000E+00 0. -1.
         -2   -1    0    0    0  501 -0.00000000000E+00 -0.00000000000E+00 -0.25415824046E+03  0.25415824046E+03  0.00000000000E+00 0.  1.
        -24    2    1    2    0    0  0.16205261938E+03 -0.62515112916E+02 -0.15455916958E+03  0.24593553564E+03  0.80165828135E+02 0.  0.
         23    2    1    2    0    0 -0.12073872081E+03  0.64414438373E+02  0.84159273444E+02  0.18487068814E+03  0.91473107814E+02 0.  0.
         13    1    3    3    0    0  0.39283743252E+02 -0.20221852484E+01  0.20406540219E+00  0.39336285536E+02  0.00000000000E+00 0. -1.
        -14    1    3    3    0    0  0.12276887613E+03 -0.60492927667E+02 -0.15476323498E+03  0.20659925011E+03  0.00000000000E+00 0.  1.
        -13    1    4    4    0    0 -0.34992682657E+02  0.37197250048E+02  0.79876197496E+02  0.94806804487E+02  0.00000000000E+00 0. -1.
         13    1    4    4    0    0 -0.85746038151E+02  0.27217188325E+02  0.42830759476E+01  0.90063883652E+02  0.00000000000E+00 0.  1.
         21    1    1    2  502  501 -0.41313898576E+02 -0.18993254573E+01  0.11672321675E+03  0.12383357776E+03  0.00000000000E+00 0. -1.
<scales pt_clust_5="13000.00000" pt_clust_6="13000.00000" pt_clust_7="13000.00000" pt_clust_8="13000.00000" pt_clust_9="41.35753"></scales>
<clustering>
<clus scale="   41.358">  1  9  2 -1</clus>
<clus scale="   80.166">  5  6 -1 -1</clus>
<clus scale="   91.473">  7  8 -1 -1</clus>
<clus scale="  182.677">  2  5  1 -1</clus>
<clus scale="   41.358">  1  5  2 -1</clus>
</clustering>
</event>
<event>
 9    1  0.2674825E-005  0.8957768E+02  0.7546771E-02  0.1308786E+00
         -2   -1    0    0    0  501 -0.00000000000E+00  0.00000000000E+00  0.39177642279E+03  0.39177642279E+03  0.00000000000E+00 0.  1.
          1   -1    0    0  502    0  0.00000000000E+00 -0.00000000000E+00 -0.12112218510E+03  0.12112218510E+03  0.00000000000E+00 0. -1.
        -24    2    1    2    0    0  0.11359698833E+01 -0.65019103186E+01  0.29495478967E+03  0.30812145615E+03  0.88864720359E+02 0.  0.
         23    2    1    2    0    0  0.60148993824E+02  0.60447724134E+02 -0.34122890472E+02  0.12254287702E+03  0.81120627732E+02 0.  0.
         11    1    3    3    0    0 -0.43082692403E+02 -0.80223623373E+01  0.12330290933E+03  0.13085902388E+03  0.00000000000E+00 0. -1.
        -12    1    3    3    0    0  0.44218662286E+02  0.15204520187E+01  0.17165188034E+03  0.17726243227E+03  0.00000000000E+00 0.  1.
        -13    1    4    4    0    0  0.45581930952E+02  0.77179269534E+02 -0.42019689835E+02  0.98994981736E+02  0.00000000000E+00 0. -1.
         13    1    4    4    0    0  0.14567062873E+02 -0.16731545400E+02  0.78967993629E+01  0.23547895286E+02  0.00000000000E+00 0.  1.
         21    1    1    2  502  501 -0.61284963708E+02 -0.53945813815E+02  0.98223384968E+01  0.82234274718E+02  0.00000000000E+00 0. -1.
<scales pt_clust_5="13000.00000" pt_clust_6="13000.00000" pt_clust_7="13000.00000" pt_clust_8="13000.00000" pt_clust_9="81.64556"></scales>
<clustering>
<clus scale="   81.121">  7  8 -1 -1</clus>
<clus scale="   81.646">  2  9  1 -1</clus>
<clus scale="   81.901">  2  7  1 -1</clus>
<clus scale="   88.865">  5  6 -1 -1</clus>
<clus scale="   81.646">  2  5  1 -1</clus>
</clustering>
</event>
<event>
 9    1  0.2674825E-005  0.1041911E+03  0.7546771E-02  0.1272094E+00
          1   -1    0    0  502    0  0.00000000000E+00  0.00000000000E+00  0.69376009373E+03  0.69376009373E+03  0.00000000000E+00 0. -1.
         -2   -1    0    0    0  501 -0.00000000000E+00 -0.00000000000E+00 -0.24769275585E+02  0.24769275585E+02  0.00000000000E+00 0.  1.
        -24    2    1    2    0    0  0.11874011562E+02  0.61370669465E+02  0.15855786333E+03  0.19175827461E+03  0.87882243008E+02 0.  0.
         23    2    1    2    0    0  0.96242115412E+01 -0.40265442580E+02  0.34566591671E+03  0.35927249458E+03  0.88757355029E+02 0.  0.
         13    1    3    3    0    0 -0.32278379839E+02  0.15748235035E+02  0.96545293310E+02  0.10300919557E+03  0.00000000000E+00 0. -1.
        -14    1    3    3    0    0  0.44152391401E+02  0.45622434431E+02  0.62012570020E+02  0.88749079039E+02  0.00000000000E+00 0.  1.
        -11    1    4    4    0    0  0.27208774206E+02  0.20735193381E+02  0.13339124916E+03  0.13770799174E+03  0.00000000000E+00 0.  1.
         11    1    4    4    0    0 -0.17584562665E+02 -0.61000635961E+02  0.21227466755E+03  0.22156450283E+03  0.00000000000E+00 0. -1.
         21    1    1    2  502  501 -0.21498223103E+02 -0.21105226885E+02  0.16476703811E+03  0.16749860013E+03  0.00000000000E+00 0. -1.
<scales pt_clust_5="13000.00000" pt_clust_6="13000.00000" pt_clust_7="13000.00000" pt_clust_8="13000.00000" pt_clust_9="30.12647"></scales>
<clustering>
<clus scale="   30.126">  1  9  2 -1</clus>
<clus scale="   87.882">  5  6 -1 -1</clus>
<clus scale="   88.757">  7  8 -1 -1</clus>
<clus scale="  103.447">  2  5  1 -1</clus>
<clus scale="   30.126">  1  5  2 -1</clus>
</clustering>
</event>
<event>
 9    1  0.2674825E-005  0.1141683E+03  0.7546771E-02  0.1256793E+00
          1   -1    0    0  502    0  0.00000000000E+00  0.00000000000E+00  0.23266723051E+03  0.23266723051E+03  0.00000000000E+00 0. -1.
         -2   -1    0    0    0  501 -0.00000000000E+00 -0.00000000000E+00 -0.14376386830E+03  0.14376386830E+03  0.00000000000E+00 0.  1.
        -24    2    1    2    0    0 -0.10752612412E+02  0.68352481707E+02 -0.92586925626E+02  0.14242309132E+03  0.83212485337E+02 0.  0.
         23    2    1    2    0    0 -0.16157794488E+02 -0.43023330144E+02  0.16107128782E+03  0.19178631307E+03  0.93412787462E+02 0.  0.
         11    1    3    3    0    0  0.35879509204E+02  0.21397559843E+02 -0.40779622946E+02  0.58379554602E+02  0.00000000000E+00 0. -1.
        -12    1    3    3    0    0 -0.46632121615E+02  0.46954921864E+02 -0.51807302680E+02  0.84043536721E+02  0.00000000000E+00 0.  1.
        -13    1    4    4    0    0  0.11407235086E+02 -0.23907555732E+02 -0.77442541905E+00  0.26500867309E+02  0.00000000000E+00 0.  1.
         13    1    4    4    0    0 -0.27565029574E+02 -0.19115774412E+02  0.16184571323E+03  0.16528544576E+03  0.00000000000E+00 0. -1.
         21    1    1    2  502  501  0.26910406900E+02 -0.25329151563E+02  0.20419000014E+02  0.42221694423E+02  0.00000000000E+00 0.  1.
<scales pt_clust_5="13000.00000" pt_clust_6="13000.00000" pt_clust_7="13000.00000" pt_clust_8="13000.00000" pt_clust_9="36.95586"></scales>
<clustering>
<clus scale="   36.956">  1  9  2 -1</clus>
<clus scale="   83.212">  5  6 -1 -1</clus>
<clus scale="   93.413">  7  8 -1 -1</clus>
<clus scale="  105.985">  2  5  1 -1</clus>
<clus scale="   36.956">  1  5  2 -1</clus>
</clustering>
</event>
<event>
 9    1  0.2674825E-005  0.1150227E+03  0.7546771E-02  0.1254912E+00
         -2   -1    0    0    0  501 -0.00000000000E+00  0.00000000000E+00  0.10513955990E+03  0.10513955990E+03  0.00000000000E+00 0.  1.
          1   -1    0    0  502    0  0.00000000000E+00 -0.00000000000E+00 -0.48348627352E+03  0.48348627352E+03  0.00000000000E+00 0. -1.
         23    2    1    2    0    0 -0.41620624629E+02  0.53562137487E+02  0.56120012450E+02  0.12683261799E+03  0.91301030779E+02 0.  0.
        -24    2    1    2    0    0  0.59374765786E+02 -0.73285884741E+02 -0.39491758479E+03  0.41416580410E+03  0.81714324286E+02 0.  0.
         11    1    4    4    0    0  0.25645971561E+02 -0.52626620984E+02 -0.34759418026E+03  0.35248970375E+03  0.00000000000E+00 0. -1.
        -12    1    4    4    0    0  0.33728794224E+02 -0.20659263757E+02 -0.47323404530E+02  0.61676100356E+02  0.00000000000E+00 0.  1.
        -13    1    3    3    0    0 -0.55447981577E+02 -0.19359954424E+01  0.36296973306E+02  0.66300052869E+02  0.00000000000E+00 0.  1.
         13    1    3    3    0    0  0.13827356948E+02  0.55498132930E+02  0.19823039143E+02  0.60532565118E+02  0.00000000000E+00 0. -1.
         21    1    1    2  502  501 -0.17754141157E+02  0.19723747254E+02 -0.39549141279E+02  0.47627411328E+02  0.00000000000E+00 0.  1.
<scales pt_clust_5="13000.00000" pt_clust_6="13000.00000" pt_clust_7="13000.00000" pt_clust_8="13000.00000" pt_clust_9="26.53744"></scales>
<clustering>
<clus scale="   26.537">  2  9  1 -1</clus>
<clus scale="   81.714">  5  6 -1 -1</clus>
<clus scale="   91.301">  7  8 -1 -1</clus>
<clus scale="  107.571">  2  5  1 -1</clus>
<clus scale="   26.537">  2  5  1 -1</clus>
</clustering>
</event>
<event>
 9    1  0.2674825E-005  0.1105246E+03  0.7546771E-02  0.1264382E+00
          1   -1    0    0  502    0  0.00000000000E+00  0.00000000000E+00  0.24161088791E+03  0.24161088791E+03  0.00000000000E+00 0. -1.
         -2   -1    0    0    0  501 -0.00000000000E+00 -0.00000000000E+00 -0.18990197511E+03  0.18990197511E+03  0.00000000000E+00 0.  1.
        -24    2    1    2    0    0 -0.67208830023E+02  0.74905609530E+00 -0.14485220152E+03  0.17804722242E+03  0.78746842526E+02 0.  0.
         23    2    1    2    0    0  0.57869567928E+02 -0.24046960049E+02  0.19962696745E+03  0.22817901171E+03  0.91036212966E+02 0.  0.
         13    1    3    3    0    0 -0.40097911953E+01  0.22279635792E+02 -0.51579988222E+01  0.23217785172E+02  0.00000000000E+00 0. -1.
        -14    1    3    3    0    0 -0.63199038828E+02 -0.21530579697E+02 -0.13969420269E+03  0.15482943724E+03  0.00000000000E+00 0.  1.
        -11    1    4    4    0    0  0.52862252416E+02  0.25812939603E+02  0.88400942612E+02  0.10618593238E+03  0.00000000000E+00 0.  1.
         11    1    4    4    0    0  0.50073155116E+01 -0.49859899652E+02  0.11122602484E+03  0.12199307933E+03  0.00000000000E+00 0. -1.
         21    1    1    2  502  501  0.93392620954E+01  0.23297903954E+02 -0.30658531331E+01  0.25286628889E+02  0.00000000000E+00 0. -1.
<scales pt_clust_5="13000.00000" pt_clust_6="13000.00000" pt_clust_7="13000.00000" pt_clust_8="13000.00000" pt_clust_9="25.10008"></scales>
<clustering>
<clus scale="   25.100">  2  9  1 -1</clus>
<clus scale="   78.747">  5  6 -1 -1</clus>
<clus scale="   91.036">  7  8 -1 -1</clus>
<clus scale="  100.644">  2  5  1 -1</clus>
<clus scale="  110.525">  1  5  2 -1</clus>
</clustering>
</event>
<event>
 9    1  0.2674825E-005  0.1269075E+03  0.7546771E-02  0.1232506E+00
         -2   -1    0    0    0  501 -0.00000000000E+00  0.00000000000E+00  0.11945876483E+03  0.11945876483E+03  0.00000000000E+00 0.  1.
          1   -1    0    0  502    0  0.00000000000E+00 -0.00000000000E+00 -0.22773566982E+03  0.22773566982E+03  0.00000000000E+00 0. -1.
        -24    2    1    2    0    0  0.93929052605E+02 -0.16815031272E+02  0.47181849367E+02  0.13780518331E+03  0.87514167073E+02 0.  0.
         23    2    1    2    0    0 -0.81379227592E+02 -0.73869878927E+00 -0.12670082025E+03  0.17343580475E+03  0.86045082128E+02 0.  0.
         13    1    3    3    0    0  0.36933874491E+02 -0.47767952111E+02  0.53291171055E+01  0.60615904042E+02  0.00000000000E+00 0. -1.
        -14    1    3    3    0    0  0.56995178115E+02  0.30952920838E+02  0.41852732262E+02  0.77189279272E+02  0.00000000000E+00 0.  1.
        -13    1    4    4    0    0 -0.40856726461E+02 -0.43319149117E+02 -0.67456459600E+02  0.89978857067E+02  0.00000000000E+00 0. -1.
         13    1    4    4    0    0 -0.40522501130E+02  0.42580450327E+02 -0.59244360646E+02  0.83456947681E+02  0.00000000000E+00 0.  1.
         21    1    1    2  502  501 -0.12549825014E+02  0.17553730062E+02 -0.28757934110E+02  0.35953446583E+02  0.00000000000E+00 0. -1.
<scales pt_clust_5="13000.00000" pt_clust_6="13000.00000" pt_clust_7="13000.00000" pt_clust_8="13000.00000" pt_clust_9="21.57850"></scales>
<clustering>
<clus scale="   21.578">  2  9  1 -1</clus>
<clus scale="   86.045">  7  8 -1 -1</clus>
<clus scale="   87.514">  5  6 -1 -1</clus>
<clus scale="  125.899">  2  7  1 -1</clus>
<clus scale="   21.578">  2  5  1 -1</clus>
</clustering>
</event>
<event>
 9    1  0.2674825E-005  0.1450757E+03  0.7546771E-02  0.1207926E+00
          1   -1    0    0  502    0  0.00000000000E+00  0.00000000000E+00  0.50689086974E+02  0.50689086974E+02  0.00000000000E+00 0. -1.
         -2   -1    0    0    0  501 -0.00000000000E+00 -0.00000000000E+00 -0.58416777585E+03  0.58416777585E+03  0.00000000000E+00 0.  1.
         23    2    1    2    0    0 -0.10753992524E+03 -0.34268451779E+02 -0.34544959749E+03  0.37451017540E+03  0.90461509834E+02 0.  0.
        -24    2    1    2    0    0  0.10359980087E+03 -0.38440628220E+01 -0.14317996964E+03  0.20135912882E+03  0.96422505118E+02 0.  0.
         11    1    4    4    0    0  0.29590020813E+02  0.42258826272E+02 -0.34667850990E+02  0.62154948491E+02  0.00000000000E+00 0. -1.
        -12    1    4    4    0    0  0.74009780060E+02 -0.46102889094E+02 -0.10851211865E+03  0.13920418033E+03  0.00000000000E+00 0.  1.
        -13    1    3    3    0    0 -0.59652420118E+02 -0.25717889760E+02 -0.30319516339E+03  0.31007600388E+03  0.00000000000E+00 0.  1.
         13    1    3    3    0    0 -0.47887505122E+02 -0.85505620188E+01 -0.42254434097E+02  0.64434171512E+02  0.00000000000E+00 0. -1.
         21    1    1    2  502  501  0.39401243674E+01  0.38112514601E+02 -0.44849121749E+02  0.58987558611E+02  0.00000000000E+00 0. -1.
<scales pt_clust_5="13000.00000" pt_clust_6="13000.00000" pt_clust_7="13000.00000" pt_clust_8="13000.00000" pt_clust_9="38.31564"></scales>
<clustering>
<clus scale="   38.316">  1  9  2 -1</clus>
<clus scale="   90.462">  7  8 -1 -1</clus>
<clus scale="   96.423">  5  6 -1 -1</clus>
<clus scale="  141.184">  2  7  1 -1</clus>
<clus scale="   38.316">  1  5  2 -1</clus>
</clustering>
</event>
<event>
 9    1  0.2674825E-005  0.1014519E+03  0.7546771E-02  0.1288328E+00
         -4   -1    0    0    0  501 -0.00000000000E+00  0.00000000000E+00  0.53838622620E+02  0.53838622620E+02  0.00000000000E+00 0.  1.
          3   -1    0    0  502    0  0.00000000000E+00 -0.00000000000E+00 -0.37802676803E+03  0.37802676803E+03  0.00000000000E+00 0. -1.
        -24    2    1    2    0    0 -0.17800898490E+01 -0.13880794707E+02 -0.75052353853E+01  0.81369222087E+02  0.79804614924E+02 0.  0.
         23    2    1    2    0    0  0.76241394609E+01  0.49394977930E+02 -0.20656480962E+03  0.23464537589E+03  0.99455721337E+02 0.  0.
         11    1    3    3    0    0  0.38685723537E+02 -0.25668625531E+01 -0.66891465786E+01  0.39343597585E+02  0.00000000000E+00 0. -1.
        -12    1    3    3    0    0 -0.40465813386E+02 -0.11313932154E+02 -0.81608880668E+00  0.42025624502E+02  0.00000000000E+00 0.  1.
        -11    1    4    4    0    0 -0.45514702233E+02  0.30295999553E+02 -0.10801213476E+03  0.12106220287E+03  0.00000000000E+00 0.  1.
         11    1    4    4    0    0  0.53138841694E+02  0.19098978378E+02 -0.98552674859E+02  0.11358317302E+03  0.00000000000E+00 0. -1.
         21    1    1    2  502  501 -0.58440496119E+01 -0.35514183224E+02 -0.11011810041E+03  0.11585079267E+03  0.00000000000E+00 0. -1.
<scales pt_clust_5="13000.00000" pt_clust_6="13000.00000" pt_clust_7="13000.00000" pt_clust_8="13000.00000" pt_clust_9="35.99181"></scales>
<clustering>
<clus scale="   35.992">  2  9  1 -1</clus>
<clus scale="   79.805">  5  6 -1 -1</clus>
<clus scale="   82.279">  1  5  2 -1</clus>
<clus scale="   99.456">  7  8 -1 -1</clus>
<clus scale="   35.992">  2  5  1 -1</clus>
</clustering>
</event>
<event>
 9    1  0.2674825E-005  0.9406269E+02  0.7546771E-02  0.1297415E+00
          1   -1    0    0  502    0  0.00000000000E+00  0.00000000000E+00  0.18237472276E+03  0.18237472276E+03  0.00000000000E+00 0. -1.
         -2   -1    0    0    0  501 -0.00000000000E+00 -0.00000000000E+00 -0.24464194704E+03  0.24464194704E+03  0.00000000000E+00 0.  1.
        -24    2    1    2    0    0 -0.68809305470E+01  0.33586025843E+02 -0.21518654867E+03  0.23221227327E+03  0.80261577328E+02 0.  0.
         23    2    1    2    0    0 -0.14174891289E+02 -0.30788226018E+02  0.14349315915E+03  0.17156589597E+03  0.87725295845E+02 0.  0.
         11    1    3    3    0    0  0.24534076980E+02 -0.84193673621E+01 -0.12686146999E+03  0.12948605812E+03  0.00000000000E+00 0. -1.
        -12    1    3    3    0    0 -0.31415007527E+02  0.42005393205E+02 -0.88325078676E+02  0.10272621515E+03  0.00000000000E+00 0.  1.
        -13    1    4    4    0    0  0.21884035904E+02  0.20220733554E+02  0.31707038905E+02  0.43510061009E+02  0.00000000000E+00 0.  1.
         13    1    4    4    0    0 -0.36058927193E+02 -0.51008959572E+02  0.11178612025E+03  0.12805583496E+03  0.00000000000E+00 0. -1.
         21    1    1    2  502  501  0.21055821836E+02 -0.27977998253E+01  0.94261652384E+01  0.23238500557E+02  0.00000000000E+00 0.  1.
<scales pt_clust_5="13000.00000" pt_clust_6="13000.00000" pt_clust_7="13000.00000" pt_clust_8="13000.00000" pt_clust_9="21.24089"></scales>
<clustering>
<clus scale="   21.241">  1  9  2 -1</clus>
<clus scale="   80.262">  5  6 -1 -1</clus>
<clus scale="   87.143">  2  5  1 -1</clus>
<clus scale="   87.725">  7  8 -1 -1</clus>
<clus scale="   21.241">  1  5  2 -1</clus>
</clustering>
</event>
<event>
 9    1  0.2674825E-005  0.9530436E+02  0.7546771E-02  0.1293438E+00
          1   -1    0    0  502    0  0.00000000000E+00  0.00000000000E+00  0.46744241329E+02  0.46744241329E+02  0.00000000000E+00 0. -1.
         -2   -1    0    0    0  501 -0.00000000000E+00 -0.00000000000E+00 -0.44657306789E+03  0.44657306789E+03  0.00000000000E+00 0.  1.
        -24    2    1    2    0    0 -0.10272892463E+02  0.12119474881E+02 -0.34576660224E+03  0.35716893690E+03  0.88106142090E+02 0.  0.
         23    2    1    2    0    0  0.29350311181E+02 -0.25435591434E+02 -0.49035417597E+02  0.11234636293E+03  0.93321074827E+02 0.  0.
         11    1    3    3    0    0 -0.18581185307E+02  0.48301264086E+02 -0.17970761533E+03  0.18701096109E+03  0.00000000000E+00 0. -1.
        -12    1    3    3    0    0  0.83082928438E+01 -0.36181789206E+02 -0.16605898691E+03  0.17015797581E+03  0.00000000000E+00 0.  1.
        -13    1    4    4    0    0 -0.29378986884E+02 -0.26796118122E+02 -0.32396808430E+02  0.51290447582E+02  0.00000000000E+00 0.  1.
         13    1    4    4    0    0  0.58729298065E+02  0.13605266874E+01 -0.16638609167E+02  0.61055915349E+02  0.00000000000E+00 0. -1.
         21    1    1    2  502  501 -0.19077418718E+02  0.13316116554E+02 -0.50268067291E+01  0.23802009388E+02  0.00000000000E+00 0. -1.
<scales pt_clust_5="13000.00000" pt_clust_6="13000.00000" pt_clust_7="13000.00000" pt_clust_8="13000.00000" pt_clust_9="23.26514"></scales>
<clustering>
<clus scale="   23.265">  1  9  2 -1</clus>
<clus scale="   88.106">  5  6 -1 -1</clus>
<clus scale="   90.204">  2  5  1 -1</clus>
<clus scale="   93.321">  7  8 -1 -1</clus>
<clus scale="   23.265">  1  5  2 -1</clus>
</clustering>
</event>
<event>
 9    1  0.2674825E-005  0.1473262E+03  0.7546771E-02  0.1208220E+00
          1   -1    0    0  502    0  0.00000000000E+00  0.00000000000E+00  0.16824558804E+03  0.16824558804E+03  0.00000000000E+00 0. -1.
         -2   -1    0    0    0  501 -0.00000000000E+00 -0.00000000000E+00 -0.34546968119E+03  0.34546968119E+03  0.00000000000E+00 0.  1.
         23    2    1    2    0    0  0.39485124162E+02 -0.12564565436E+03 -0.23766528619E+03  0.28964665828E+03  0.10032194627E+03 0.  0.
        -24    2    1    2    0    0 -0.57393974202E+02  0.48447160764E+02 -0.20034077210E+02  0.11112347629E+03  0.79409489815E+02 0.  0.
         13    1    4    4    0    0 -0.74277905637E+02  0.21200679245E+02 -0.14626781222E+02  0.78616911636E+02  0.00000000000E+00 0. -1.
        -14    1    4    4    0    0  0.16883931435E+02  0.27246481518E+02 -0.54072959887E+01  0.32506564656E+02  0.00000000000E+00 0.  1.
        -11    1    3    3    0    0  0.70145843096E+02 -0.57890528352E+02 -0.13850495388E+03  0.16569663492E+03  0.00000000000E+00 0.  1.
         11    1    3    3    0    0 -0.30660718935E+02 -0.67755126003E+02 -0.99160332310E+02  0.12395002335E+03  0.00000000000E+00 0. -1.
         21    1    1    2  502  501  0.17908850041E+02  0.77198493592E+02  0.80475270250E+02  0.11294513466E+03  0.00000000000E+00 0.  1.
<scales pt_clust_5="13000.00000" pt_clust_6="13000.00000" pt_clust_7="13000.00000" pt_clust_8="13000.00000" pt_clust_9="79.24856"></scales>
<clustering>
<clus scale="   79.249">  1  9  2 -1</clus>
<clus scale="   79.409">  5  6 -1 -1</clus>
<clus scale="  100.322">  7  8 -1 -1</clus>
<clus scale="  133.964">  1  5  2 -1</clus>
<clus scale="   79.249">  1  5  2 -1</clus>
</clustering>
</event>
<event>
 9    1  0.2674825E-005  0.1370908E+03  0.7546771E-02  0.1220243E+00
          1   -1    0    0  502    0  0.00000000000E+00  0.00000000000E+00  0.14272781756E+03  0.14272781756E+03  0.00000000000E+00 0. -1.
         -2   -1    0    0    0  501 -0.00000000000E+00 -0.00000000000E+00 -0.39005899587E+03  0.39005899587E+03  0.00000000000E+00 0.  1.
         23    2    1    2    0    0  0.88397245528E+02 -0.56191435629E+02 -0.31143964275E+03  0.34107541283E+03  0.91467129072E+02 0.  0.
        -24    2    1    2    0    0 -0.95006730939E+02  0.44581331410E+01  0.65199960774E+02  0.13954617035E+03  0.78587180248E+02 0.  0.
         13    1    4    4    0    0 -0.33877270923E+02  0.37571178737E+02  0.43490838831E+02  0.66713686895E+02  0.00000000000E+00 0. -1.
        -14    1    4    4    0    0 -0.61129460017E+02 -0.33113045596E+02  0.21709121943E+02  0.72832483454E+02  0.00000000000E+00 0.  1.
        -11    1    3    3    0    0  0.14333462252E+02 -0.15842827519E+02 -0.33200351672E+01  0.21620961067E+02  0.00000000000E+00 0. -1.
         11    1    3    3    0    0  0.74063783276E+02 -0.40348608110E+02 -0.30811960759E+03  0.31945445176E+03  0.00000000000E+00 0.  1.
         21    1    1    2  502  501  0.66094854113E+01  0.51733302488E+02 -0.10914963290E+01  0.52165230259E+02  0.00000000000E+00 0.  1.
<scales pt_clust_5="13000.00000" pt_clust_6="13000.00000" pt_clust_7="13000.00000" pt_clust_8="13000.00000" pt_clust_9="52.15381"></scales>
<clustering>
<clus scale="   52.154">  1  9  2 -1</clus>
<clus scale="   78.587">  5  6 -1 -1</clus>
<clus scale="   91.467">  7  8 -1 -1</clus>
<clus scale="  128.855">  1  5  2 -1</clus>
<clus scale="   52.154">  1  5  2 -1</clus>
</clustering>
</event>
<event>
 9    1  0.2674825E-005  0.1955614E+03  0.7546771E-02  0.1154630E+00
          3   -1    0    0  502    0  0.00000000000E+00  0.00000000000E+00  0.26538422889E+03  0.26538422889E+03  0.00000000000E+00 0. -1.
         -4   -1    0    0    0  501 -0.00000000000E+00 -0.00000000000E+00 -0.35097215685E+03  0.35097215685E+03  0.00000000000E+00 0.  1.
         23    2    1    2    0    0 -0.74022273857E+02 -0.17197803522E+03 -0.26231423650E+03  0.33505069470E+03  0.91621327904E+02 0.  0.
        -24    2    1    2    0    0  0.36257198542E+02  0.11592963853E+03  0.89696428143E+02  0.17111574700E+03  0.80503938493E+02 0.  0.
         13    1    4    4    0    0  0.56936978652E+02  0.10982712311E+03  0.71380879293E+02  0.14282523040E+03  0.00000000000E+00 0. -1.
        -14    1    4    4    0    0 -0.20679780110E+02  0.61025154174E+01  0.18315548850E+02  0.28290516600E+02  0.00000000000E+00 0.  1.
        -13    1    3    3    0    0 -0.68875247378E+02 -0.14830430728E+03 -0.26424563623E+03  0.31074704106E+03  0.00000000000E+00 0.  1.
         13    1    3    3    0    0 -0.51470264797E+01 -0.23673727931E+02  0.19313997253E+01  0.24303653648E+02  0.00000000000E+00 0. -1.
         21    1    1    2  502  501  0.37765075315E+02  0.56048396684E+02  0.87029880398E+02  0.11018994404E+03  0.00000000000E+00 0. -1.
<scales pt_clust_5="13000.00000" pt_clust_6="13000.00000" pt_clust_7="13000.00000" pt_clust_8="13000.00000" pt_clust_9="67.58420"></scales>
<clustering>
<clus scale="   67.584">  1  9  2 -1</clus>
<clus scale="   80.504">  5  6 -1 -1</clus>
<clus scale="   91.621">  7  8 -1 -1</clus>
<clus scale="  190.606">  1  5  2 -1</clus>
<clus scale="   67.584">  1  5  2 -1</clus>
</clustering>
</event>
<event>
 9    1  0.2674825E-005  0.1156603E+03  0.7546771E-02  0.1252464E+00
         -2   -1    0    0    0  501 -0.00000000000E+00  0.00000000000E+00  0.20839111136E+03  0.20839111136E+03  0.00000000000E+00 0.  1.
          1   -1    0    0  502    0  0.00000000000E+00 -0.00000000000E+00 -0.78182555948E+02  0.78182555948E+02  0.00000000000E+00 0. -1.
        -24    2    1    2    0    0  0.21290139340E+02 -0.61947633061E+02  0.57507928037E+02  0.11908105860E+03  0.81131729026E+02 0.  0.
         23    2    1    2    0    0 -0.39830563749E+02  0.79238048992E+02  0.67630195971E+02  0.14163888374E+03  0.87307432457E+02 0.  0.
         11    1    3    3    0    0  0.28904697997E+02 -0.50778094376E+02 -0.15965610045E+01  0.58450367336E+02  0.00000000000E+00 0. -1.
        -12    1    3    3    0    0 -0.76145586567E+01 -0.11169538685E+02  0.59104489042E+02  0.60630691262E+02  0.00000000000E+00 0.  1.
        -13    1    4    4    0    0  0.57081804511E+01  0.19314398438E+02  0.63103083769E+02  0.66239176416E+02  0.00000000000E+00 0.  1.
         13    1    4    4    0    0 -0.45538744200E+02  0.59923650554E+02  0.45271122018E+01  0.75399707320E+02  0.00000000000E+00 0. -1.
         21    1    1    2  502  501  0.18540424409E+02 -0.17290415931E+02  0.50704314002E+01  0.25853724972E+02  0.00000000000E+00 0.  1.
<scales pt_clust_5="13000.00000" pt_clust_6="13000.00000" pt_clust_7="13000.00000" pt_clust_8="13000.00000" pt_clust_9="25.35164"></scales>
<clustering>
<clus scale="   25.352">  2  9  1 -1</clus>
<clus scale="   81.132">  5  6 -1 -1</clus>
<clus scale="   87.307">  7  8 -1 -1</clus>
<clus scale="  111.072">  1  5  2 -1</clus>
<clus scale="   25.352">  2  5  1 -1</clus>
</clustering>
</event>
<event>
 9    1  0.2674825E-005  0.8139176E+02  0.7546771E-02  0.1325357E+00
          1   -1    0    0  502    0  0.00000000000E+00  0.00000000000E+00  0.18748438240E+03  0.18748438240E+03  0.00000000000E+00 0. -1.
         -2   -1    0    0    0  501 -0.00000000000E+00 -0.00000000000E+00 -0.13710484512E+03  0.13710484512E+03  0.00000000000E+00 0.  1.
        -24    2    1    2    0    0 -0.27140945838E+02 -0.15201641807E+02 -0.92168261751E+02  0.12227295772E+03  0.74080813037E+02 0.  0.
         23    2    1    2    0    0  0.64545544871E+02  0.11832138099E+01  0.12458500924E+03  0.15851807156E+03  0.73749760175E+02 0.  0.
         13    1    3    3    0    0  0.29401909302E+01 -0.35236880307E+02 -0.73569516769E+02  0.81625708292E+02  0.00000000000E+00 0. -1.
        -14    1    3    3    0    0 -0.30081136768E+02  0.20035238500E+02 -0.18598744982E+02  0.40647249426E+02  0.00000000000E+00 0.  1.
        -11    1    4    4    0    0  0.48872473452E+02  0.16254872205E+02  0.12660495684E+03  0.13668048372E+03  0.00000000000E+00 0. -1.
         11    1    4    4    0    0  0.15673071418E+02 -0.15071658395E+02 -0.20199476033E+01  0.21837587842E+02  0.00000000000E+00 0.  1.
         21    1    1    2  502  501 -0.37404599033E+02  0.14018427997E+02  0.17962789787E+02  0.43798198242E+02  0.00000000000E+00 0.  1.
<scales pt_clust_5="13000.00000" pt_clust_6="13000.00000" pt_clust_7="13000.00000" pt_clust_8="13000.00000" pt_clust_9="39.94522"></scales>
<clustering>
<clus scale="   39.945">  1  9  2 -1</clus>
<clus scale="   73.750">  7  8 -1 -1</clus>
<clus scale="   74.081">  5  6 -1 -1</clus>
<clus scale="   81.091">  1  7  2 -1</clus>
<clus scale="   39.945">  1  5  2 -1</clus>
</clustering>
</event>
<event>
 9    1  0.2674825E-005  0.9633248E+02  0.7546771E-02  0.1297190E+00
          1   -1    0    0  502    0  0.00000000000E+00  0.00000000000E+00  0.50020206907E+03  0.50020206907E+03  0.00000000000E+00 0. -1.
         -2   -1    0    0    0  501 -0.00000000000E+00 -0.00000000000E+00 -0.31932983941E+02  0.31932983941E+02  0.00000000000E+00 0.  1.
        -24    2    1    2    0    0  0.16167332848E+02 -0.14183670730E+02  0.54893494231E+02  0.97991649864E+02  0.78272016503E+02 0.  0.
         23    2    1    2    0    0 -0.37206296715E+02 -0.81372842967E+01  0.29425115126E+03  0.31113326067E+03  0.93646366533E+02 0.  0.
         13    1    3    3    0    0  0.87039829671E+01 -0.19145746825E+02  0.73976945972E+02  0.76908435664E+02  0.00000000000E+00 0. -1.
        -14    1    3    3    0    0  0.74633498804E+01  0.49620760951E+01 -0.19083451741E+02  0.21083214199E+02  0.00000000000E+00 0.  1.
        -11    1    4    4    0    0  0.28287431875E+02 -0.70850012189E+01  0.46651016445E+02  0.55015392207E+02  0.00000000000E+00 0.  1.
         11    1    4    4    0    0 -0.65493728590E+02 -0.10522830778E+01  0.24760013482E+03  0.25611786846E+03  0.00000000000E+00 0. -1.
         21    1    1    2  502  501  0.21038963868E+02  0.22320955027E+02  0.11912443964E+03  0.12301014248E+03  0.00000000000E+00 0. -1.
<scales pt_clust_5="13000.00000" pt_clust_6="13000.00000" pt_clust_7="13000.00000" pt_clust_8="13000.00000" pt_clust_9="30.67349"></scales>
<clustering>
<clus scale="   30.673">  1  9  2 -1</clus>
<clus scale="   78.272">  5  6 -1 -1</clus>
<clus scale="   81.467">  2  5  1 -1</clus>
<clus scale="   93.646">  7  8 -1 -1</clus>
<clus scale="   30.673">  1  5  2 -1</clus>
</clustering>
</event>
<event>
 9    1  0.2674825E-005  0.1156995E+03  0.7546771E-02  0.1254148E+00
         -2   -1    0    0    0  501 -0.00000000000E+00  0.00000000000E+00  0.68024411315E+02  0.68024411315E+02  0.00000000000E+00 0.  1.
          1   -1    0    0  502    0  0.00000000000E+00 -0.00000000000E+00 -0.56310050804E+03  0.56310050804E+03  0.00000000000E+00 0. -1.
        -24    2    1    2    0    0  0.57034229939E+02 -0.39091398698E+02 -0.40319809789E+00  0.10586392513E+03  0.80162130948E+02 0.  0.
         23    2    1    2    0    0 -0.93084174447E+02  0.13198503088E+02 -0.33943694898E+03  0.36380437279E+03  0.91089600468E+02 0.  0.
         13    1    3    3    0    0 -0.19315665155E+02 -0.12276520699E+02 -0.87723708051E+01  0.24510454308E+02  0.00000000000E+00 0. -1.
        -14    1    3    3    0    0  0.76349895093E+02 -0.26814877999E+02  0.83691727072E+01  0.81353470821E+02  0.00000000000E+00 0.  1.
        -11    1    4    4    0    0 -0.14013199562E+02  0.36001690860E+02 -0.18309846640E+03  0.18712974084E+03  0.00000000000E+00 0.  1.
         11    1    4    4    0    0 -0.79070974885E+02 -0.22803187772E+02 -0.15633848258E+03  0.17667463195E+03  0.00000000000E+00 0. -1.
         21    1    1    2  502  501  0.36049944508E+02  0.25892895610E+02 -0.15523594965E+03  0.16145662144E+03  0.00000000000E+00 0. -1.
<scales pt_clust_5="13000.00000" pt_clust_6="13000.00000" pt_clust_7="13000.00000" pt_clust_8="13000.00000" pt_clust_9="44.38514"></scales>
<clustering>
<clus scale="   44.385">  2  9  1 -1</clus>
<clus scale="   80.162">  5  6 -1 -1</clus>
<clus scale="   91.090">  7  8 -1 -1</clus>
<clus scale="  107.308">  1  5  2 -1</clus>
<clus scale="   44.385">  2  5  1 -1</clus>
</clustering>
</event>
<event>
 9    1  0.2674825E-005  0.9936671E+02  0.7546771E-02  0.1287143E+00
          1   -1    0    0  502    0  0.00000000000E+00  0.00000000000E+00  0.44489270403E+03  0.44489270403E+03  0.00000000000E+00 0. -1.
         -2   -1    0    0    0  501 -0.00000000000E+00 -0.00000000000E+00 -0.11720296498E+03  0.11720296498E+03  0.00000000000E+00 0.  1.
        -24    2    1    2    0    0 -0.55765930748E+02 -0.25997761157E+02 -0.43804594140E+02  0.10953284303E+03  0.79327666157E+02 0.  0.
         23    2    1    2    0    0  0.92947212357E+01 -0.45271752642E+02  0.37860968521E+02  0.10825171822E+03  0.90272133738E+02 0.  0.
         13    1    3    3    0    0 -0.20275970304E+02 -0.19184906849E+02  0.21272209476E+02  0.35095334713E+02  0.00000000000E+00 0. -1.
        -14    1    3    3    0    0 -0.35489960444E+02 -0.68128543071E+01 -0.65076803616E+02  0.74437508320E+02  0.00000000000E+00 0.  1.
        -13    1    4    4    0    0  0.13752891730E+02  0.25482561078E+02  0.19842643187E+02  0.35103182743E+02  0.00000000000E+00 0. -1.
         13    1    4    4    0    0 -0.44581704940E+01 -0.70754313721E+02  0.18018325335E+02  0.73148535475E+02  0.00000000000E+00 0.  1.
         21    1    1    2  502  501  0.46471209512E+02  0.71269513799E+02  0.33363336466E+03  0.34431110776E+03  0.00000000000E+00 0. -1.
<scales pt_clust_5="13000.00000" pt_clust_6="13000.00000" pt_clust_7="13000.00000" pt_clust_8="13000.00000" pt_clust_9="85.08182"></scales>
<clustering>
<clus scale="   79.328">  5  6 -1 -1</clus>
<clus scale="   85.082">  1  9  2 -1</clus>
<clus scale="   89.541">  2  5  1 -1</clus>
<clus scale="   90.272">  7  8 -1 -1</clus>
<clus scale="   85.082">  1  5  2 -1</clus>
</clustering>
</event>
<event>
 9    1  0.2674825E-005  0.1218447E+03  0.7546771E-02  0.1243065E+00
         -2   -1    0    0    0  501 -0.00000000000E+00  0.00000000000E+00  0.76702638023E+02  0.76702638023E+02  0.00000000000E+00 0.  1.
          1   -1    0    0  502    0  0.00000000000E+00 -0.00000000000E+00 -0.44856603277E+03  0.44856603277E+03  0.00000000000E+00 0. -1.
        -24    2    1    2    0    0  0.75812017765E+02  0.40044080011E+02 -0.15884422181E+01  0.11838601523E+03  0.81619452775E+02 0.  0.
         23    2    1    2    0    0 -0.70777142515E+02  0.76270316360E+01 -0.21294827456E+03  0.24241512547E+03  0.91381343310E+02 0.  0.
         11    1    3    3    0    0  0.17319977088E+02  0.44545936853E+02 -0.26501497448E+02  0.54650264989E+02  0.00000000000E+00 0. -1.
        -12    1    3    3    0    0  0.58492040677E+02 -0.45018568416E+01  0.24913055230E+02  0.63735750238E+02  0.00000000000E+00 0.  1.
        -13    1    4    4    0    0  0.17784034980E+02 -0.16274301876E+02 -0.44542085214E+02  0.50647035026E+02  0.00000000000E+00 0. -1.
         13    1    4    4    0    0 -0.88561177495E+02  0.23901333512E+02 -0.16840618935E+03  0.19176809045E+03  0.00000000000E+00 0.  1.
         21    1    1    2  502  501 -0.50348752505E+01 -0.47671111647E+02 -0.15732667797E+03  0.16446753009E+03  0.00000000000E+00 0. -1.
<scales pt_clust_5="13000.00000" pt_clust_6="13000.00000" pt_clust_7="13000.00000" pt_clust_8="13000.00000" pt_clust_9="47.93626"></scales>
<clustering>
<clus scale="   47.936">  2  9  1 -1</clus>
<clus scale="   81.619">  5  6 -1 -1</clus>
<clus scale="   91.381">  7  8 -1 -1</clus>
<clus scale="  114.705">  1  5  2 -1</clus>
<clus scale="   47.936">  2  5  1 -1</clus>
</clustering>
</event>
<event>
 9    1  0.2674825E-005  0.9272270E+02  0.7546771E-02  0.1302971E+00
          1   -1    0    0  502    0  0.00000000000E+00  0.00000000000E+00  0.12533369657E+03  0.12533369657E+03  0.00000000000E+00 0. -1.
         -2   -1    0    0    0  501 -0.00000000000E+00 -0.00000000000E+00 -0.28883052067E+03  0.28883052067E+03  0.00000000000E+00 0.  1.
        -24    2    1    2    0    0 -0.25233419673E+02  0.11623874570E+02 -0.18867954732E+03  0.20695354030E+03  0.80361410742E+02 0.  0.
         23    2    1    2    0    0 -0.14204537380E+02 -0.49110241944E+00 -0.61804144702E+02  0.11105452133E+03  0.91166574693E+02 0.  0.
         11    1    3    3    0    0 -0.48372245089E+02 -0.45814539681E+01 -0.15775708224E+03  0.16507016935E+03  0.00000000000E+00 0. -1.
        -12    1    3    3    0    0  0.23138825416E+02  0.16205328538E+02 -0.30922465087E+02  0.41883370945E+02  0.00000000000E+00 0.  1.
        -13    1    4    4    0    0 -0.77574467040E+01  0.23188649598E+02  0.16166388736E+02  0.29312856809E+02  0.00000000000E+00 0. -1.
         13    1    4    4    0    0 -0.64470906762E+01 -0.23679752017E+02 -0.77970533438E+02  0.81741664519E+02  0.00000000000E+00 0.  1.
         21    1    1    2  502  501  0.39437957053E+02 -0.11132772150E+02  0.86986867917E+02  0.96156155613E+02  0.00000000000E+00 0. -1.
<scales pt_clust_5="13000.00000" pt_clust_6="13000.00000" pt_clust_7="13000.00000" pt_clust_8="13000.00000" pt_clust_9="40.97915"></scales>
<clustering>
<clus scale="   40.979">  1  9  2 -1</clus>
<clus scale="   80.361">  5  6 -1 -1</clus>
<clus scale="   82.123">  2  5  1 -1</clus>
<clus scale="   91.167">  7  8 -1 -1</clus>
<clus scale="   40.979">  1  5  2 -1</clus>
</clustering>
</event>
<event>
 9    1  0.2674825E-005  0.1210982E+03  0.7546771E-02  0.1243443E+00
         -2   -1    0    0    0  501 -0.00000000000E+00  0.00000000000E+00  0.69131556566E+02  0.69131556566E+02  0.00000000000E+00 0.  1.
          1   -1    0    0  502    0  0.00000000000E+00 -0.00000000000E+00 -0.36200481806E+03  0.36200481806E+03  0.00000000000E+00 0. -1.
         23    2    1    2    0    0 -0.12621416371E+01 -0.88525683042E+02 -0.20471961524E+02  0.12732948377E+03  0.89192525861E+02 0.  0.
        -24    2    1    2    0    0  0.15337137855E+02  0.60953359192E+02 -0.21625863954E+03  0.23969498181E+03  0.82069149714E+02 0.  0.
         11    1    4    4    0    0  0.22199222581E+02  0.43418311187E+02 -0.21539419104E+03  0.22084522355E+03  0.00000000000E+00 0. -1.
        -12    1    4    4    0    0 -0.68620847257E+01  0.17535048005E+02 -0.86444849816E+00  0.18849758262E+02  0.00000000000E+00 0.  1.
        -13    1    3    3    0    0 -0.10206537177E+02 -0.37800309958E+02 -0.53384802240E+02  0.66204032689E+02  0.00000000000E+00 0. -1.
         13    1    3    3    0    0  0.89443955403E+01 -0.50725373084E+02  0.32912840716E+02  0.61125451083E+02  0.00000000000E+00 0.  1.
         21    1    1    2  502  501 -0.14074996218E+02  0.27572323850E+02 -0.56142660431E+02  0.64111909044E+02  0.00000000000E+00 0. -1.
<scales pt_clust_5="13000.00000" pt_clust_6="13000.00000" pt_clust_7="13000.00000" pt_clust_8="13000.00000" pt_clust_9="30.95704"></scales>
<clustering>
<clus scale="   30.957">  2  9  1 -1</clus>
<clus scale="   82.069">  5  6 -1 -1</clus>
<clus scale="   89.193">  7  8 -1 -1</clus>
<clus scale="  115.952">  2  5  1 -1</clus>
<clus scale="   30.957">  2  5  1 -1</clus>
</clustering>
</event>
<event>
 9    1  0.2674825E-005  0.1421990E+03  0.7546771E-02  0.1212839E+00
         -2   -1    0    0    0  501 -0.00000000000E+00  0.00000000000E+00  0.73560018437E+02  0.73560018437E+02  0.00000000000E+00 0.  1.
          1   -1    0    0  502    0  0.00000000000E+00 -0.00000000000E+00 -0.95452895299E+03  0.95452895299E+03  0.00000000000E+00 0. -1.
        -24    2    1    2    0    0  0.76015622160E+01 -0.10753802460E+03 -0.21439402020E+02  0.13534271351E+03  0.78967028938E+02 0.  0.
         23    2    1    2    0    0 -0.70298781965E+02  0.11909881095E+03 -0.72836058356E+03  0.74690426698E+03  0.90721545599E+02 0.  0.
         11    1    3    3    0    0  0.34005236690E+02 -0.26921871817E+02  0.10625826422E+02  0.44654803679E+02  0.00000000000E+00 0. -1.
        -12    1    3    3    0    0 -0.26403674473E+02 -0.80616152779E+02 -0.32065228442E+02  0.90687909831E+02  0.00000000000E+00 0.  1.
        -13    1    4    4    0    0  0.71340819131E+01  0.43902510641E+02 -0.10148279458E+03  0.11080199980E+03  0.00000000000E+00 0.  1.
         13    1    4    4    0    0 -0.77432863878E+02  0.75196300305E+02 -0.62687778899E+03  0.63610226718E+03  0.00000000000E+00 0. -1.
         21    1    1    2  502  501  0.62697219749E+02 -0.11560786349E+02 -0.13116894897E+03  0.14584199093E+03  0.00000000000E+00 0.  1.
<scales pt_clust_5="13000.00000" pt_clust_6="13000.00000" pt_clust_7="13000.00000" pt_clust_8="13000.00000" pt_clust_9="63.75416"></scales>
<clustering>
<clus scale="   63.754">  2  9  1 -1</clus>
<clus scale="   78.967">  5  6 -1 -1</clus>
<clus scale="   90.722">  7  8 -1 -1</clus>
<clus scale="  135.003">  1  5  2 -1</clus>
<clus scale="   63.754">  2  5  1 -1</clus>
</clustering>
</event>
<event>
 9    1  0.2674825E-005  0.1123672E+03  0.7546771E-02  0.1259626E+00
          1   -1    0    0  502    0  0.00000000000E+00  0.00000000000E+00  0.23634658210E+03  0.23634658210E+03  0.00000000000E+00 0. -1.
         -2   -1    0    0    0  501 -0.00000000000E+00 -0.00000000000E+00 -0.18625980802E+03  0.18625980802E+03  0.00000000000E+00 0.  1.
         23    2    1    2    0    0  0.52181829422E+02  0.44647987166E+02 -0.15180835865E+03  0.18951532716E+03  0.90298922420E+02 0.  0.
        -24    2    1    2    0    0 -0.32126373864E+02 -0.38465074466E+02  0.16996882939E+03  0.19488453796E+03  0.81110506852E+02 0.  0.
         11    1    4    4    0    0 -0.52719435663E+02 -0.47826842458E+02  0.14258966913E+03  0.15936925518E+03  0.00000000000E+00 0. -1.
        -12    1    4    4    0    0  0.20593061799E+02  0.93617679927E+01  0.27379160259E+02  0.35515282776E+02  0.00000000000E+00 0.  1.
        -11    1    3    3    0    0 -0.15972545427E+02 -0.15206975370E+02 -0.38538866909E+02  0.44402911728E+02  0.00000000000E+00 0. -1.
         11    1    3    3    0    0  0.68154374848E+02  0.59854962537E+02 -0.11326949174E+03  0.14511241543E+03  0.00000000000E+00 0.  1.
         21    1    1    2  502  501 -0.20055455558E+02 -0.61829127007E+01  0.31926303350E+02  0.38206525001E+02  0.00000000000E+00 0.  1.
<scales pt_clust_5="13000.00000" pt_clust_6="13000.00000" pt_clust_7="13000.00000" pt_clust_8="13000.00000" pt_clust_9="20.98689"></scales>
<clustering>
<clus scale="   20.987">  1  9  2 -1</clus>
<clus scale="   81.111">  5  6 -1 -1</clus>
<clus scale="   90.299">  7  8 -1 -1</clus>
<clus scale="  105.126">  1  5  2 -1</clus>
<clus scale="   20.987">  1  5  2 -1</clus>
</clustering>
</event>
<event>
 9    1  0.2674825E-005  0.1138158E+03  0.7546771E-02  0.1257544E+00
         -2   -1    0    0    0  501 -0.00000000000E+00  0.00000000000E+00  0.28479453610E+03  0.28479453610E+03  0.00000000000E+00 0.  1.
          1   -1    0    0  502    0  0.00000000000E+00 -0.00000000000E+00 -0.11754618808E+03  0.11754618808E+03  0.00000000000E+00 0. -1.
         23    2    1    2    0    0  0.61074098686E+02 -0.98706696329E+01  0.14933132519E+03  0.18580890327E+03  0.91638573764E+02 0.  0.
        -24    2    1    2    0    0 -0.66100329795E+02  0.47354941164E+02  0.82758585666E+02  0.14146676991E+03  0.80945163144E+02 0.  0.
         13    1    4    4    0    0 -0.24010239019E+02 -0.88130878084E+01 -0.79409575451E+01  0.26780980214E+02  0.00000000000E+00 0. -1.
        -14    1    4    4    0    0 -0.42090090775E+02  0.56168028972E+02  0.90699543211E+02  0.11468578970E+03  0.00000000000E+00 0.  1.
        -13    1    3    3    0    0  0.33037288452E+02  0.15350761010E+02  0.14300246010E+03  0.14756968485E+03  0.00000000000E+00 0.  1.
         13    1    3    3    0    0  0.28036810234E+02 -0.25221430643E+02  0.63288650868E+01  0.38239218416E+02  0.00000000000E+00 0. -1.
         21    1    1    2  502  501  0.50262311081E+01 -0.37484271531E+02 -0.64841562835E+02  0.75065051004E+02  0.00000000000E+00 0. -1.
<scales pt_clust_5="13000.00000" pt_clust_6="13000.00000" pt_clust_7="13000.00000" pt_clust_8="13000.00000" pt_clust_9="37.81975"></scales>
<clustering>
<clus scale="   37.820">  2  9  1 -1</clus>
<clus scale="   80.945">  5  6 -1 -1</clus>
<clus scale="   91.639">  7  8 -1 -1</clus>
<clus scale="  105.397">  2  5  1 -1</clus>
<clus scale="   37.820">  2  5  1 -1</clus>
</clustering>
</event>
<event>
 9    1  0.2674825E-005  0.2313597E+03  0.7546771E-02  0.1126355E+00
          3   -1    0    0  502    0  0.00000000000E+00  0.00000000000E+00  0.15167931785E+03  0.15167931785E+03  0.00000000000E+00 0. -1.
         -4   -1    0    0    0  501 -0.00000000000E+00 -0.00000000000E+00 -0.69610220612E+03  0.69610220612E+03  0.00000000000E+00 0.  1.
         23    2    1    2    0    0 -0.83927445103E+02 -0.19629149729E+03 -0.42079081813E+03  0.48057447743E+03  0.91174271494E+02 0.  0.
        -24    2    1    2    0    0  0.62882606708E+02  0.20231459381E+03 -0.19089345779E+03  0.29647334042E+03  0.81059930026E+02 0.  0.
         13    1    4    4    0    0  0.56554566624E+02  0.79262324455E+02 -0.50527599848E+02  0.10969946869E+03  0.00000000000E+00 0. -1.
        -14    1    4    4    0    0  0.63280400848E+01  0.12305226936E+03 -0.14036585794E+03  0.18677387173E+03  0.00000000000E+00 0.  1.
        -11    1    3    3    0    0 -0.42755242775E+02 -0.12752916307E+03 -0.34489627068E+03  0.37019607744E+03  0.00000000000E+00 0.  1.
         11    1    3    3    0    0 -0.41172202327E+02 -0.68762334227E+02 -0.75894547443E+02  0.11037839999E+03  0.00000000000E+00 0. -1.
         21    1    1    2  502  501  0.21044838394E+02 -0.60230965194E+01  0.67261387641E+02  0.70733706125E+02  0.00000000000E+00 0. -1.
<scales pt_clust_5="13000.00000" pt_clust_6="13000.00000" pt_clust_7="13000.00000" pt_clust_8="13000.00000" pt_clust_9="21.88979"></scales>
<clustering>
<clus scale="   21.890">  1  9  2 -1</clus>
<clus scale="   81.060">  5  6 -1 -1</clus>
<clus scale="   91.174">  7  8 -1 -1</clus>
<clus scale="  227.564">  1  5  2 -1</clus>
<clus scale="   21.890">  1  5  2 -1</clus>
</clustering>
</event>
<event>
 9    1  0.2674825E-005  0.1174400E+03  0.7546771E-02  0.1250654E+00
          1   -1    0    0  502    0  0.00000000000E+00  0.00000000000E+00  0.12250936553E+03  0.12250936553E+03  0.00000000000E+00 0. -1.
         -2   -1    0    0    0  501 -0.00000000000E+00 -0.00000000000E+00 -0.21951216455E+03  0.21951216455E+03  0.00000000000E+00 0.  1.
        -24    2    1    2    0    0 -0.64575175841E+02  0.43394804755E+02 -0.15839595817E+03  0.19438583432E+03  0.81507733410E+02 0.  0.
         23    2    1    2    0    0  0.52795073155E+02 -0.23935039906E+02  0.37059041957E+02  0.11432499887E+03  0.91305130692E+02 0.  0.
         13    1    3    3    0    0 -0.28215224134E+02 -0.23365576982E+02 -0.53454245364E+02  0.64802819445E+02  0.00000000000E+00 0. -1.
        -14    1    3    3    0    0 -0.36359951706E+02  0.66760381737E+02 -0.10494171281E+03  0.12958301488E+03  0.00000000000E+00 0.  1.
        -11    1    4    4    0    0 -0.19151605138E+01  0.23868271409E+02 -0.11877015693E+02  0.26728743360E+02  0.00000000000E+00 0.  1.
         11    1    4    4    0    0  0.54710233669E+02 -0.47803311315E+02  0.48936057650E+02  0.87596255508E+02  0.00000000000E+00 0. -1.
         21    1    1    2  502  501  0.11780102685E+02 -0.19459764849E+02  0.24334117203E+02  0.33310696890E+02  0.00000000000E+00 0. -1.
<scales pt_clust_5="13000.00000" pt_clust_6="13000.00000" pt_clust_7="13000.00000" pt_clust_8="13000.00000" pt_clust_9="22.74760"></scales>
<clustering>
<clus scale="   22.748">  1  9  2 -1</clus>
<clus scale="   81.508">  5  6 -1 -1</clus>
<clus scale="   91.305">  7  8 -1 -1</clus>
<clus scale="  109.996">  2  5  1 -1</clus>
<clus scale="   22.748">  1  5  2 -1</clus>
</clustering>
</event>
<event>
 9    1  0.2674825E-005  0.1137737E+03  0.7546771E-02  0.1261839E+00
         -2   -1    0    0    0  501 -0.00000000000E+00  0.00000000000E+00  0.61202720243E+03  0.61202720243E+03  0.00000000000E+00 0.  1.
          1   -1    0    0  502    0  0.00000000000E+00 -0.00000000000E+00 -0.33277598413E+02  0.33277598413E+02  0.00000000000E+00 0. -1.
        -24    2    1    2    0    0  0.56816329283E+01  0.66874276501E+02  0.39383934769E+03  0.40728094971E+03  0.79144743319E+02 0.  0.
         23    2    1    2    0    0  0.20720227911E+02 -0.49938841250E+02  0.11352726223E+03  0.16005334986E+03  0.99022319816E+02 0.  0.
         13    1    3    3    0    0  0.15156867656E+02  0.21115499033E+02  0.27002372342E+02  0.37479635119E+02  0.00000000000E+00 0. -1.
        -14    1    3    3    0    0 -0.94752347281E+01  0.45758777468E+02  0.36683697535E+03  0.36980131459E+03  0.00000000000E+00 0.  1.
        -13    1    4    4    0    0 -0.32017299466E+02  0.58884995565E+01  0.53302295526E+02  0.62457318230E+02  0.00000000000E+00 0.  1.
         13    1    4    4    0    0  0.52737527377E+02 -0.55827340806E+02  0.60224966702E+02  0.97596031628E+02  0.00000000000E+00 0. -1.
         21    1    1    2  502  501 -0.26401860839E+02 -0.16935435252E+02  0.71382994099E+02  0.77970501278E+02  0.00000000000E+00 0. -1.
<scales pt_clust_5="13000.00000" pt_clust_6="13000.00000" pt_clust_7="13000.00000" pt_clust_8="13000.00000" pt_clust_9="31.36666"></scales>
<clustering>
<clus scale="   31.367">  1  9  2 -1</clus>
<clus scale="   79.145">  5  6 -1 -1</clus>
<clus scale="   96.969">  1  5  2 -1</clus>
<clus scale="   99.022">  7  8 -1 -1</clus>
<clus scale="  113.774">  2  5  1 -1</clus>
</clustering>
</event>
<event>
 9    1  0.2674825E-005  0.1562630E+03  0.7546771E-02  0.1194740E+00
          1   -1    0    0  502    0  0.00000000000E+00  0.00000000000E+00  0.28037467575E+03  0.28037467575E+03  0.00000000000E+00 0. -1.
         -2   -1    0    0    0  501 -0.00000000000E+00 -0.00000000000E+00 -0.14217243256E+03  0.14217243256E+03  0.00000000000E+00 0.  1.
        -24    2    1    2    0    0 -0.13595033027E+02 -0.11870952244E+03 -0.15534990168E+02  0.14554857613E+03  0.81647268489E+02 0.  0.
         23    2    1    2    0    0 -0.28150832195E+02  0.14185623711E+03  0.80092124272E+02  0.18923698163E+03  0.92088139772E+02 0.  0.
         13    1    3    3    0    0  0.26649029329E+02 -0.79143180264E+02  0.90329082044E+01  0.83996471218E+02  0.00000000000E+00 0. -1.
        -14    1    3    3    0    0 -0.40244062356E+02 -0.39566342176E+02 -0.24567898372E+02  0.61552104908E+02  0.00000000000E+00 0.  1.
        -11    1    4    4    0    0 -0.12466997730E+02  0.85057583446E+02 -0.45700871040E+01  0.86087770503E+02  0.00000000000E+00 0.  1.
         11    1    4    4    0    0 -0.15683834465E+02  0.56798653667E+02  0.84662211376E+02  0.10314921113E+03  0.00000000000E+00 0. -1.
         21    1    1    2  502  501  0.41745865221E+02 -0.23146714673E+02  0.73645109081E+02  0.87761550549E+02  0.00000000000E+00 0. -1.
<scales pt_clust_5="13000.00000" pt_clust_6="13000.00000" pt_clust_7="13000.00000" pt_clust_8="13000.00000" pt_clust_9="47.73351"></scales>
<clustering>
<clus scale="   47.734">  1  9  2 -1</clus>
<clus scale="   81.647">  5  6 -1 -1</clus>
<clus scale="   92.088">  7  8 -1 -1</clus>
<clus scale="  150.347">  2  5  1 -1</clus>
<clus scale="   47.734">  1  5  2 -1</clus>
</clustering>
</event>
<event>
 9    1  0.2674825E-005  0.1480958E+03  0.7546771E-02  0.1216430E+00
          1   -1    0    0  502    0  0.00000000000E+00  0.00000000000E+00  0.60387931478E+03  0.60387931478E+03  0.00000000000E+00 0. -1.
         -2   -1    0    0    0  501 -0.00000000000E+00 -0.00000000000E+00 -0.50462344126E+02  0.50462344126E+02  0.00000000000E+00 0.  1.
        -24    2    1    2    0    0 -0.50032171081E+02  0.65416823179E+02  0.56040492093E+02  0.12773290070E+03  0.79953600734E+02 0.  0.
         23    2    1    2    0    0  0.40096370624E+02 -0.31861643155E+02  0.42016804497E+03  0.44183958660E+03  0.12672076005E+03 0.  0.
         11    1    3    3    0    0 -0.30881761094E+02  0.83130210541E+02  0.44183111009E+02  0.99078062008E+02  0.00000000000E+00 0. -1.
        -12    1    3    3    0    0 -0.19150409987E+02 -0.17713387362E+02  0.11857381084E+02  0.28654838696E+02  0.00000000000E+00 0.  1.
        -13    1    4    4    0    0 -0.13559605495E+02  0.36388244035E+02  0.60871326876E+02  0.72203086089E+02  0.00000000000E+00 0.  1.
         13    1    4    4    0    0  0.53655976119E+02 -0.68249887189E+02  0.35929671809E+03  0.36963650051E+03  0.00000000000E+00 0. -1.
         21    1    1    2  502  501  0.99358004566E+01 -0.33555180024E+02  0.77208433594E+02  0.84769171608E+02  0.00000000000E+00 0. -1.
<scales pt_clust_5="13000.00000" pt_clust_6="13000.00000" pt_clust_7="13000.00000" pt_clust_8="13000.00000" pt_clust_9="34.99529"></scales>
<clustering>
<clus scale="   34.995">  1  9  2 -1</clus>
<clus scale="   79.954">  5  6 -1 -1</clus>
<clus scale="  110.756">  2  5  1 -1</clus>
<clus scale="  126.721">  7  8 -1 -1</clus>
<clus scale="   34.995">  1  5  2 -1</clus>
</clustering>
</event>
<event>
 9    1  0.2674825E-005  0.9002070E+02  0.7546771E-02  0.1308909E+00
          1   -1    0    0  502    0  0.00000000000E+00  0.00000000000E+00  0.73011311530E+03  0.73011311530E+03  0.00000000000E+00 0. -1.
         -2   -1    0    0    0  501 -0.00000000000E+00 -0.00000000000E+00 -0.10451883027E+03  0.10451883027E+03  0.00000000000E+00 0.  1.
         23    2    1    2    0    0  0.12984913646E+02 -0.18767349778E+02 -0.80621363737E+02  0.11411592112E+03  0.77471399643E+02 0.  0.
        -24    2    1    2    0    0  0.12969974023E+02 -0.52748776553E+01  0.63360137910E+03  0.63974154176E+03  0.87306861698E+02 0.  0.
         11    1    4    4    0    0  0.47778863234E+02 -0.11499266970E+02  0.27097731647E+03  0.27539745634E+03  0.00000000000E+00 0. -1.
        -12    1    4    4    0    0 -0.34808889211E+02  0.62243893149E+01  0.36262406262E+03  0.36434408542E+03  0.00000000000E+00 0.  1.
        -13    1    3    3    0    0  0.28213398382E+02 -0.37572134959E+02 -0.76194240390E+02  0.89516609868E+02  0.00000000000E+00 0.  1.
         13    1    3    3    0    0 -0.15228484735E+02  0.18804785181E+02 -0.44271233472E+01  0.24599311254E+02  0.00000000000E+00 0. -1.
         21    1    1    2  502  501 -0.25954887669E+02  0.24042227433E+02  0.72614269674E+02  0.80774482692E+02  0.00000000000E+00 0. -1.
<scales pt_clust_5="13000.00000" pt_clust_6="13000.00000" pt_clust_7="13000.00000" pt_clust_8="13000.00000" pt_clust_9="35.37916"></scales>
<clustering>
<clus scale="   35.379">  1  9  2 -1</clus>
<clus scale="   77.471">  7  8 -1 -1</clus>
<clus scale="   80.517">  2  7  1 -1</clus>
<clus scale="   87.307">  5  6 -1 -1</clus>
<clus scale="   35.379">  1  5  2 -1</clus>
</clustering>
</event>
<event>
 9    1  0.2674825E-005  0.1361026E+03  0.7546771E-02  0.1221953E+00
          1   -1    0    0  502    0  0.00000000000E+00  0.00000000000E+00  0.42756420824E+03  0.42756420824E+03  0.00000000000E+00 0. -1.
         -2   -1    0    0    0  501 -0.00000000000E+00 -0.00000000000E+00 -0.38097128178E+03  0.38097128178E+03  0.00000000000E+00 0.  1.
         23    2    1    2    0    0  0.78455851194E+02 -0.58785404156E+02 -0.35081844973E+03  0.37627391665E+03  0.94326196530E+02 0.  0.
        -24    2    1    2    0    0 -0.66927459056E+02  0.76718145496E+02  0.23555826362E+03  0.26901048735E+03  0.80709281497E+02 0.  0.
         11    1    4    4    0    0 -0.84268485732E+02  0.53376403626E+02  0.19589901942E+03  0.21983321851E+03  0.00000000000E+00 0. -1.
        -12    1    4    4    0    0  0.17341026676E+02  0.23341741870E+02  0.39659244197E+02  0.49177268834E+02  0.00000000000E+00 0.  1.
        -11    1    3    3    0    0  0.77578732596E+02 -0.32761299861E+02 -0.33583367843E+03  0.34623116857E+03  0.00000000000E+00 0.  1.
         11    1    3    3    0    0  0.87711859814E+00 -0.26024104295E+02 -0.14984771298E+02  0.30042748080E+02  0.00000000000E+00 0. -1.
         21    1    1    2  502  501 -0.11528392138E+02 -0.17932741340E+02  0.16185311258E+03  0.16325108603E+03  0.00000000000E+00 0.  1.
<scales pt_clust_5="13000.00000" pt_clust_6="13000.00000" pt_clust_7="13000.00000" pt_clust_8="13000.00000" pt_clust_9="21.31870"></scales>
<clustering>
<clus scale="   21.319">  1  9  2 -1</clus>
<clus scale="   80.709">  5  6 -1 -1</clus>
<clus scale="   94.326">  7  8 -1 -1</clus>
<clus scale="  127.045">  1  5  2 -1</clus>
<clus scale="   21.319">  1  5  2 -1</clus>
</clustering>
</event>
<event>
 9    1  0.2674825E-005  0.1085159E+03  0.7546771E-02  0.1267444E+00
         -2   -1    0    0    0  501 -0.00000000000E+00  0.00000000000E+00  0.20794388255E+03  0.20794388255E+03  0.00000000000E+00 0.  1.
          1   -1    0    0  502    0  0.00000000000E+00 -0.00000000000E+00 -0.15507855539E+03  0.15507855539E+03  0.00000000000E+00 0. -1.
        -24    2    1    2    0    0 -0.51758172733E+02  0.34398852415E+02  0.15073258797E+03  0.18210315116E+03  0.81111374637E+02 0.  0.
         23    2    1    2    0    0  0.43614797939E+02 -0.15064446217E+02 -0.25184965452E+02  0.10526976678E+03  0.91204458079E+02 0.  0.
         13    1    3    3    0    0 -0.31962222324E+02  0.30441611452E+02  0.17713571227E+02  0.47560971072E+02  0.00000000000E+00 0. -1.
        -14    1    3    3    0    0 -0.19795950410E+02  0.39572409633E+01  0.13301901674E+03  0.13454218009E+03  0.00000000000E+00 0.  1.
        -13    1    4    4    0    0  0.42699655954E+02  0.28288392684E+02  0.64073035905E+01  0.51619253370E+02  0.00000000000E+00 0.  1.
         13    1    4    4    0    0  0.91514198524E+00 -0.43352838901E+02 -0.31592269043E+02  0.53650513408E+02  0.00000000000E+00 0. -1.
         21    1    1    2  502  501  0.81433747939E+01 -0.19334406198E+02 -0.72682295360E+02  0.75649519991E+02  0.00000000000E+00 0.  1.
<scales pt_clust_5="13000.00000" pt_clust_6="13000.00000" pt_clust_7="13000.00000" pt_clust_8="13000.00000" pt_clust_9="20.97937"></scales>
<clustering>
<clus scale="   20.979">  2  9  1 -1</clus>
<clus scale="   81.111">  5  6 -1 -1</clus>
<clus scale="   91.204">  7  8 -1 -1</clus>
<clus scale="  100.182">  1  5  2 -1</clus>
<clus scale="   20.979">  2  5  1 -1</clus>
</clustering>
</event>
<event>
 9    1  0.2674825E-005  0.1264764E+03  0.7546771E-02  0.1239870E+00
          3   -1    0    0  502    0  0.00000000000E+00  0.00000000000E+00  0.63168946748E+03  0.63168946748E+03  0.00000000000E+00 0. -1.
         -4   -1    0    0    0  501 -0.00000000000E+00 -0.00000000000E+00 -0.69760402353E+02  0.69760402353E+02  0.00000000000E+00 0.  1.
        -24    2    1    2    0    0  0.74066485935E+02 -0.29664696191E+02 -0.11150208323E+02  0.11154905477E+03  0.77155854832E+02 0.  0.
         23    2    1    2    0    0 -0.55239412043E+02  0.18422635484E+02  0.43557102440E+03  0.45065512861E+03  0.99885642131E+02 0.  0.
         11    1    3    3    0    0  0.43605345527E+02 -0.33503712509E+02  0.28070647821E+02  0.61740474403E+02  0.00000000000E+00 0. -1.
        -12    1    3    3    0    0  0.30461140407E+02  0.38390163179E+01 -0.39220856144E+02  0.49808580364E+02  0.00000000000E+00 0.  1.
        -13    1    4    4    0    0  0.12631967865E+02  0.41124480197E+02  0.13539181411E+03  0.14206242575E+03  0.00000000000E+00 0.  1.
         13    1    4    4    0    0 -0.67871379908E+02 -0.22701844713E+02  0.30017921030E+03  0.30859270286E+03  0.00000000000E+00 0. -1.
         21    1    1    2  502  501 -0.18827073892E+02  0.11242060707E+02  0.13750824904E+03  0.13924568645E+03  0.00000000000E+00 0.  1.
<scales pt_clust_5="13000.00000" pt_clust_6="13000.00000" pt_clust_7="13000.00000" pt_clust_8="13000.00000" pt_clust_9="21.92812"></scales>
<clustering>
<clus scale="   21.928">  1  9  2 -1</clus>
<clus scale="   77.156">  5  6 -1 -1</clus>
<clus scale="   99.886">  7  8 -1 -1</clus>
<clus scale="  109.417">  2  5  1 -1</clus>
<clus scale="   21.928">  1  5  2 -1</clus>
</clustering>
</event>
<event>
 9    1  0.2674825E-005  0.1245800E+03  0.7546771E-02  0.1238343E+00
          1   -1    0    0  502    0  0.00000000000E+00  0.00000000000E+00  0.18633909062E+03  0.18633909062E+03  0.00000000000E+00 0. -1.
         -2   -1    0    0    0  501 -0.00000000000E+00 -0.00000000000E+00 -0.38512544127E+03  0.38512544127E+03  0.00000000000E+00 0.  1.
         23    2    1    2    0    0  0.44204495422E+02  0.74501959030E+02 -0.33713624260E+03  0.35931788463E+03  0.89128653231E+02 0.  0.
        -24    2    1    2    0    0 -0.27878819976E+02 -0.89019688555E+02  0.72083939217E+02  0.14237223474E+03  0.79824967141E+02 0.  0.
         13    1    4    4    0    0  0.55848948655E+01 -0.88574849275E+02  0.58249515442E+02  0.10615884807E+03  0.00000000000E+00 0. -1.
        -14    1    4    4    0    0 -0.33463714841E+02 -0.44483927912E+00  0.13834423776E+02  0.36213386671E+02  0.00000000000E+00 0.  1.
        -11    1    3    3    0    0 -0.76644952710E+01  0.71764508171E+02 -0.18647931152E+03  0.19995855257E+03  0.00000000000E+00 0.  1.
         11    1    3    3    0    0  0.51868990693E+02  0.27374508586E+01 -0.15065693108E+03  0.15935933206E+03  0.00000000000E+00 0. -1.
         21    1    1    2  502  501 -0.16325675447E+02  0.14517729525E+02  0.66265952735E+02  0.69774412511E+02  0.00000000000E+00 0. -1.
<scales pt_clust_5="13000.00000" pt_clust_6="13000.00000" pt_clust_7="13000.00000" pt_clust_8="13000.00000" pt_clust_9="21.84702"></scales>
<clustering>
<clus scale="   21.847">  1  9  2 -1</clus>
<clus scale="   79.825">  5  6 -1 -1</clus>
<clus scale="   89.129">  7  8 -1 -1</clus>
<clus scale="  118.103">  1  5  2 -1</clus>
<clus scale="   21.847">  1  5  2 -1</clus>
</clustering>
</event>
<event>
 9    1  0.2674825E-005  0.9482036E+02  0.7546771E-02  0.1295742E+00
          1   -1    0    0  502    0  0.00000000000E+00  0.00000000000E+00  0.21483652670E+03  0.21483652670E+03  0.00000000000E+00 0. -1.
         -2   -1    0    0    0  501 -0.00000000000E+00 -0.00000000000E+00 -0.48792486898E+03  0.48792486898E+03  0.00000000000E+00 0.  1.
        -24    2    1    2    0    0  0.37784746438E+02 -0.19816679426E+02 -0.30409169226E+03  0.31825756656E+03  0.83640501713E+02 0.  0.
         23    2    1    2    0    0 -0.24695336280E+02 -0.95047951425E+01  0.19530374496E+03  0.21709504403E+03  0.91030239931E+02 0.  0.
         13    1    3    3    0    0  0.41173048524E+02 -0.47169196939E+02 -0.24770327477E+03  0.25549376782E+03  0.00000000000E+00 0. -1.
        -14    1    3    3    0    0 -0.33883020869E+01  0.27352517513E+02 -0.56388417488E+02  0.62763798739E+02  0.00000000000E+00 0.  1.
        -11    1    4    4    0    0 -0.28627314448E+02  0.24549198382E+02  0.17091060184E+03  0.17502177035E+03  0.00000000000E+00 0. -1.
         11    1    4    4    0    0  0.39319781680E+01 -0.34053993525E+02  0.24393143125E+02  0.42073273688E+02  0.00000000000E+00 0.  1.
         21    1    1    2  502  501 -0.13089410158E+02  0.29321474569E+02 -0.16430039499E+03  0.16740878508E+03  0.00000000000E+00 0. -1.
<scales pt_clust_5="13000.00000" pt_clust_6="13000.00000" pt_clust_7="13000.00000" pt_clust_8="13000.00000" pt_clust_9="32.11046"></scales>
<clustering>
<clus scale="   32.110">  2  9  1 -1</clus>
<clus scale="   83.641">  5  6 -1 -1</clus>
<clus scale="   87.750">  2  5  1 -1</clus>
<clus scale="   91.030">  7  8 -1 -1</clus>
<clus scale="   94.820">  1  5  2 -1</clus>
</clustering>
</event>
<event>
 9    1  0.2674825E-005  0.2995064E+03  0.7546771E-02  0.1085567E+00
         -2   -1    0    0    0  501 -0.00000000000E+00  0.00000000000E+00  0.36345405463E+03  0.36345405463E+03  0.00000000000E+00 0.  1.
          1   -1    0    0  502    0  0.00000000000E+00 -0.00000000000E+00 -0.30359156534E+03  0.30359156534E+03  0.00000000000E+00 0. -1.
        -24    2    1    2    0    0 -0.23047297549E+03  0.17968572152E+03  0.13529381645E+03  0.33222108338E+03  0.81619118604E+02 0.  0.
         23    2    1    2    0    0  0.23612591139E+03 -0.16042870956E+03 -0.89030956214E+02  0.31058122609E+03  0.83912871193E+02 0.  0.
         13    1    3    3    0    0 -0.12507276233E+03  0.13425267587E+03  0.52982953467E+02  0.19098212014E+03  0.00000000000E+00 0. -1.
        -14    1    3    3    0    0 -0.10540021316E+03  0.45433045647E+02  0.82310862981E+02  0.14123896324E+03  0.00000000000E+00 0.  1.
        -11    1    4    4    0    0  0.18635651726E+03 -0.10261861288E+03 -0.97136825257E+02  0.23386939530E+03  0.00000000000E+00 0.  1.
         11    1    4    4    0    0  0.49769394133E+02 -0.57810096684E+02  0.81058690430E+01  0.76711830795E+02  0.00000000000E+00 0. -1.
         21    1    1    2  502  501 -0.56529359055E+01 -0.19257011955E+02  0.13599629057E+02  0.24243310506E+02  0.00000000000E+00 0. -1.
<scales pt_clust_5="13000.00000" pt_clust_6="13000.00000" pt_clust_7="13000.00000" pt_clust_8="13000.00000" pt_clust_9="20.06958"></scales>
<clustering>
<clus scale="   20.070">  1  9  2 -1</clus>
<clus scale="   81.619">  5  6 -1 -1</clus>
<clus scale="   83.913">  7  8 -1 -1</clus>
<clus scale="  298.872">  1  5  2 -1</clus>
<clus scale="  299.506">  2  5  1 -1</clus>
</clustering>
</event>
<event>
 9    1  0.2674825E-005  0.1040919E+03  0.7546771E-02  0.1275678E+00
         -4   -1    0    0    0  501 -0.00000000000E+00  0.00000000000E+00  0.29042116374E+03  0.29042116374E+03  0.00000000000E+00 0.  1.
          3   -1    0    0  502    0  0.00000000000E+00 -0.00000000000E+00 -0.90002256556E+02  0.90002256556E+02  0.00000000000E+00 0. -1.
        -24    2    1    2    0    0 -0.50973101691E+02  0.15021876896E+02  0.22329580730E+03  0.24394554588E+03  0.82610519388E+02 0.  0.
         23    2    1    2    0    0  0.41284814115E+02  0.16224297713E+02 -0.11735713154E+02  0.10191904934E+03  0.91006054427E+02 0.  0.
         11    1    3    3    0    0 -0.45447841599E+02  0.18560276251E+02  0.48440494755E+02  0.68967178372E+02  0.00000000000E+00 0. -1.
        -12    1    3    3    0    0 -0.55252600919E+01 -0.35383993543E+01  0.17485531255E+03  0.17497836751E+03  0.00000000000E+00 0.  1.
        -11    1    4    4    0    0  0.40003735731E+02  0.47212075404E+02  0.11786634987E+02  0.62993679847E+02  0.00000000000E+00 0. -1.
         11    1    4    4    0    0  0.12810783848E+01 -0.30987777692E+02 -0.23522348141E+02  0.38925369493E+02  0.00000000000E+00 0.  1.
         21    1    1    2  502  501  0.96882875753E+01 -0.31246174609E+02 -0.11141186964E+02  0.34558825078E+02  0.00000000000E+00 0. -1.
<scales pt_clust_5="13000.00000" pt_clust_6="13000.00000" pt_clust_7="13000.00000" pt_clust_8="13000.00000" pt_clust_9="32.71370"></scales>
<clustering>
<clus scale="   32.714">  2  9  1 -1</clus>
<clus scale="   82.611">  5  6 -1 -1</clus>
<clus scale="   91.006">  7  8 -1 -1</clus>
<clus scale="   96.838">  1  5  2 -1</clus>
<clus scale="   32.714">  2  5  1 -1</clus>
</clustering>
</event>
<event>
 9    1  0.2674825E-005  0.1349494E+03  0.7546771E-02  0.1222946E+00
         -2   -1    0    0    0  501 -0.00000000000E+00  0.00000000000E+00  0.12234351060E+03  0.12234351060E+03  0.00000000000E+00 0.  1.
          1   -1    0    0  502    0  0.00000000000E+00 -0.00000000000E+00 -0.54151101205E+03  0.54151101205E+03  0.00000000000E+00 0. -1.
        -24    2    1    2    0    0 -0.15904905274E+02 -0.71797083839E+02  0.14283052902E+02  0.11158920309E+03  0.82706453117E+02 0.  0.
         23    2    1    2    0    0  0.15477783784E+02  0.99709654583E+02 -0.47925668571E+03  0.49862302554E+03  0.93575497806E+02 0.  0.
         13    1    3    3    0    0 -0.28251656840E+02 -0.32606811268E+01  0.28775445354E+02  0.40457563087E+02  0.00000000000E+00 0. -1.
        -14    1    3    3    0    0  0.12346751566E+02 -0.68536402712E+02 -0.14492392452E+02  0.71131640006E+02  0.00000000000E+00 0.  1.
        -11    1    4    4    0    0  0.35198732165E+02  0.50180151819E+01 -0.19883933014E+03  0.20199309501E+03  0.00000000000E+00 0.  1.
         11    1    4    4    0    0 -0.19720948382E+02  0.94691639402E+02 -0.28041735557E+03  0.29662993052E+03  0.00000000000E+00 0. -1.
         21    1    1    2  502  501  0.42712149083E+00 -0.27912570745E+02  0.45806131357E+02  0.53642294025E+02  0.00000000000E+00 0.  1.
<scales pt_clust_5="13000.00000" pt_clust_6="13000.00000" pt_clust_7="13000.00000" pt_clust_8="13000.00000" pt_clust_9="27.91584"></scales>
<clustering>
<clus scale="   27.916">  1  9  2 -1</clus>
<clus scale="   82.706">  5  6 -1 -1</clus>
<clus scale="   93.575">  7  8 -1 -1</clus>
<clus scale="  127.653">  1  5  2 -1</clus>
<clus scale="  134.949">  2  5  1 -1</clus>
</clustering>
</event>
<event>
 9    1  0.2674825E-005  0.1090026E+03  0.7546771E-02  0.1267121E+00
          1   -1    0    0  502    0  0.00000000000E+00  0.00000000000E+00  0.19609373674E+03  0.19609373674E+03  0.00000000000E+00 0. -1.
         -2   -1    0    0    0  501 -0.00000000000E+00 -0.00000000000E+00 -0.37488522014E+03  0.37488522014E+03  0.00000000000E+00 0.  1.
         23    2    1    2    0    0  0.58109284739E+02 -0.42859131596E+01 -0.34235845686E+03  0.35926425761E+03  0.92013237047E+02 0.  0.
        -24    2    1    2    0    0 -0.58819494861E+02  0.33412346743E+02  0.13200975221E+03  0.16876459165E+03  0.80490961148E+02 0.  0.
         11    1    4    4    0    0 -0.72246886165E+02  0.34418493348E+02  0.13304635861E+03  0.15525971398E+03  0.00000000000E+00 0. -1.
        -12    1    4    4    0    0  0.13427391304E+02 -0.10061466050E+01 -0.10366063983E+01  0.13504877677E+02  0.00000000000E+00 0.  1.
        -11    1    3    3    0    0  0.24116632228E+02  0.43799764956E+02 -0.15355770032E+03  0.16149302985E+03  0.00000000000E+00 0. -1.
         11    1    3    3    0    0  0.33992652510E+02 -0.48085678116E+02 -0.18880075653E+03  0.19777122777E+03  0.00000000000E+00 0.  1.
         21    1    1    2  502  501  0.71021012225E+00 -0.29126433583E+02  0.31557221248E+02  0.42950107620E+02  0.00000000000E+00 0.  1.
<scales pt_clust_5="13000.00000" pt_clust_6="13000.00000" pt_clust_7="13000.00000" pt_clust_8="13000.00000" pt_clust_9="29.13509"></scales>
<clustering>
<clus scale="   29.135">  1  9  2 -1</clus>
<clus scale="   80.491">  5  6 -1 -1</clus>
<clus scale="   92.013">  7  8 -1 -1</clus>
<clus scale="   99.468">  1  5  2 -1</clus>
<clus scale="   29.135">  1  5  2 -1</clus>
</clustering>
</event>
<event>
 9    1  0.2674825E-005  0.9401953E+02  0.7546771E-02  0.1297103E+00
          1   -1    0    0  502    0  0.00000000000E+00  0.00000000000E+00  0.85184869884E+02  0.85184869884E+02  0.00000000000E+00 0. -1.
         -2   -1    0    0    0  501 -0.00000000000E+00 -0.00000000000E+00 -0.19805728580E+03  0.19805728580E+03  0.00000000000E+00 0.  1.
         23    2    1    2    0    0  0.24334915351E+02 -0.58624412930E+01 -0.13816250086E+03  0.16672572337E+03  0.89900132732E+02 0.  0.
        -24    2    1    2    0    0 -0.30969359826E+02  0.25741630136E+02  0.17776451813E+02  0.94253173678E+02  0.83342220629E+02 0.  0.
         11    1    4    4    0    0 -0.39452976683E+02  0.47246428637E+02  0.29585485608E+02  0.68293948098E+02  0.00000000000E+00 0. -1.
        -12    1    4    4    0    0  0.84836168571E+01 -0.21504798502E+02 -0.11809033795E+02  0.25959225581E+02  0.00000000000E+00 0.  1.
        -13    1    3    3    0    0  0.43939347053E+02 -0.20687787963E+02 -0.32969958209E+02  0.58699820567E+02  0.00000000000E+00 0. -1.
         13    1    3    3    0    0 -0.19604431702E+02  0.14825346671E+02 -0.10519254265E+03  0.10802590280E+03  0.00000000000E+00 0.  1.
         21    1    1    2  502  501  0.66344444748E+01 -0.19879188843E+02  0.75136331286E+01  0.22263258641E+02  0.00000000000E+00 0.  1.
<scales pt_clust_5="13000.00000" pt_clust_6="13000.00000" pt_clust_7="13000.00000" pt_clust_8="13000.00000" pt_clust_9="20.95705"></scales>
<clustering>
<clus scale="   20.957">  1  9  2 -1</clus>
<clus scale="   83.342">  5  6 -1 -1</clus>
<clus scale="   87.770">  1  5  2 -1</clus>
<clus scale="   89.900">  7  8 -1 -1</clus>
<clus scale="   20.957">  1  5  2 -1</clus>
</clustering>
</event>
<event>
 9    1  0.2674825E-005  0.1061493E+03  0.7546771E-02  0.1272665E+00
          1   -1    0    0  502    0  0.00000000000E+00  0.00000000000E+00  0.33825442654E+03  0.33825442654E+03  0.00000000000E+00 0. -1.
         -2   -1    0    0    0  501 -0.00000000000E+00 -0.00000000000E+00 -0.17089276126E+03  0.17089276126E+03  0.00000000000E+00 0.  1.
         23    2    1    2    0    0 -0.40707319329E+01 -0.53603488600E+02 -0.14123661192E+03  0.17744887744E+03  0.93007627151E+02 0.  0.
        -24    2    1    2    0    0  0.14157840072E+02  0.19722883964E+02  0.20241047877E+03  0.21978095845E+03  0.82123268299E+02 0.  0.
         13    1    4    4    0    0 -0.15570061169E+02  0.35375809299E+02  0.16514006016E+03  0.16960281294E+03  0.00000000000E+00 0. -1.
        -14    1    4    4    0    0  0.29727901240E+02 -0.15652925335E+02  0.37270418609E+02  0.50178145512E+02  0.00000000000E+00 0.  1.
        -11    1    3    3    0    0 -0.22130087108E+02  0.13758196079E+02 -0.83322903964E+01  0.27357919841E+02  0.00000000000E+00 0. -1.
         11    1    3    3    0    0  0.18059355176E+02 -0.67361684680E+02 -0.13290432153E+03  0.15009095760E+03  0.00000000000E+00 0.  1.
         21    1    1    2  502  501 -0.10087108139E+02  0.33880604637E+02  0.10618779843E+03  0.11191735190E+03  0.00000000000E+00 0. -1.
<scales pt_clust_5="13000.00000" pt_clust_6="13000.00000" pt_clust_7="13000.00000" pt_clust_8="13000.00000" pt_clust_9="35.35032"></scales>
<clustering>
<clus scale="   35.350">  1  9  2 -1</clus>
<clus scale="   82.123">  5  6 -1 -1</clus>
<clus scale="   93.008">  7  8 -1 -1</clus>
<clus scale="   96.755">  1  5  2 -1</clus>
<clus scale="   35.350">  1  5  2 -1</clus>
</clustering>
</event>
<event>
 9    1  0.2674825E-005  0.1027625E+03  0.7546771E-02  0.1282786E+00
         -2   -1    0    0    0  501 -0.00000000000E+00  0.00000000000E+00  0.94946792190E+03  0.94946792190E+03  0.00000000000E+00 0.  1.
          1   -1    0    0  502    0  0.00000000000E+00 -0.00000000000E+00 -0.15784724022E+02  0.15784724022E+02  0.00000000000E+00 0. -1.
        -24    2    1    2    0    0 -0.37373532574E+02 -0.30313568397E+02  0.65854421631E+03  0.66461368506E+03  0.75598757733E+02 0.  0.
         23    2    1    2    0    0  0.17154516328E+02  0.32388385626E+02  0.24353531720E+03  0.26306363536E+03  0.92464807218E+02 0.  0.
         11    1    3    3    0    0 -0.16699757921E+02  0.13350000618E+02  0.53063948773E+02  0.57209152157E+02  0.00000000000E+00 0. -1.
        -12    1    3    3    0    0 -0.20673774653E+02 -0.43663569014E+02  0.60548026754E+03  0.60740453290E+03  0.00000000000E+00 0.  1.
        -11    1    4    4    0    0 -0.14777256972E+02  0.38433624880E+02  0.21766357228E+03  0.22152413309E+03  0.00000000000E+00 0.  1.
         11    1    4    4    0    0  0.31931773300E+02 -0.60452392541E+01  0.25871744918E+02  0.41539502270E+02  0.00000000000E+00 0. -1.
         21    1    1    2  502  501  0.20219016246E+02 -0.20748172295E+01  0.31603664367E+02  0.37575325493E+02  0.00000000000E+00 0. -1.
<scales pt_clust_5="13000.00000" pt_clust_6="13000.00000" pt_clust_7="13000.00000" pt_clust_8="13000.00000" pt_clust_9="20.32519"></scales>
<clustering>
<clus scale="   20.325">  2  9  1 -1</clus>
<clus scale="   75.599">  5  6 -1 -1</clus>
<clus scale="   87.895">  1  5  2 -1</clus>
<clus scale="   92.465">  7  8 -1 -1</clus>
<clus scale="   20.325">  2  5  1 -1</clus>
</clustering>
</event>
<event>
 9    1  0.2674825E-005  0.1051097E+03  0.7546771E-02  0.1276948E+00
          1   -1    0    0  502    0  0.00000000000E+00  0.00000000000E+00  0.50492765186E+03  0.50492765186E+03  0.00000000000E+00 0. -1.
         -2   -1    0    0    0  501 -0.00000000000E+00 -0.00000000000E+00 -0.11075324732E+03  0.11075324732E+03  0.00000000000E+00 0.  1.
         23    2    1    2    0    0  0.20466638037E+02 -0.39242456199E+02 -0.72602634604E+02  0.12751082770E+03  0.95021129169E+02 0.  0.
        -24    2    1    2    0    0  0.44855580148E+01  0.63416500763E+02  0.40050785505E+03  0.41334626993E+03  0.80042639338E+02 0.  0.
         13    1    4    4    0    0 -0.25632275498E+02  0.66915784067E+02  0.26807618682E+03  0.27748797748E+03  0.00000000000E+00 0. -1.
        -14    1    4    4    0    0  0.30117833513E+02 -0.34992833040E+01  0.13243166823E+03  0.13585829246E+03  0.00000000000E+00 0.  1.
        -11    1    3    3    0    0  0.28194549833E+02 -0.67218131865E+02 -0.37527979298E+02  0.81985115246E+02  0.00000000000E+00 0.  1.
         11    1    3    3    0    0 -0.77279117965E+01  0.27975675666E+02 -0.35074655306E+02  0.45525712455E+02  0.00000000000E+00 0. -1.
         21    1    1    2  502  501 -0.24952196051E+02 -0.24174044564E+02  0.66269184088E+02  0.74823801548E+02  0.00000000000E+00 0.  1.
<scales pt_clust_5="13000.00000" pt_clust_6="13000.00000" pt_clust_7="13000.00000" pt_clust_8="13000.00000" pt_clust_9="34.74186"></scales>
<clustering>
<clus scale="   34.742">  1  9  2 -1</clus>
<clus scale="   80.043">  5  6 -1 -1</clus>
<clus scale="   91.792">  1  5  2 -1</clus>
<clus scale="   95.021">  7  8 -1 -1</clus>
<clus scale="   34.742">  1  5  2 -1</clus>
</clustering>
</event>
<event>
 9    1  0.2674825E-005  0.1154467E+03  0.7546771E-02  0.1264498E+00
          1   -1    0    0  502    0  0.00000000000E+00  0.00000000000E+00  0.39293101493E+03  0.39293101493E+03  0.00000000000E+00 0. -1.
         -2   -1    0    0    0  501 -0.00000000000E+00 -0.00000000000E+00 -0.11848684776E+03  0.11848684776E+03  0.00000000000E+00 0.  1.
         23    2    1    2    0    0  0.35116020702E+02  0.17817231330E+02 -0.59417538489E+02  0.13357708362E+03  0.11296815810E+03 0.  0.
        -24    2    1    2    0    0  0.36909667964E+02  0.97455108473E+01  0.12982461965E+03  0.15971572995E+03  0.84837397156E+02 0.  0.
         11    1    4    4    0    0 -0.12007817932E+02 -0.28275986690E+02  0.36640091636E+02  0.47814385177E+02  0.00000000000E+00 0. -1.
        -12    1    4    4    0    0  0.48917485896E+02  0.38021497538E+02  0.93184528010E+02  0.11190134477E+03  0.00000000000E+00 0.  1.
        -13    1    3    3    0    0  0.90837681037E+01  0.49114073519E+02  0.12003536974E+02  0.51369173251E+02  0.00000000000E+00 0.  1.
         13    1    3    3    0    0  0.26032252599E+02 -0.31296842189E+02 -0.71421075463E+02  0.82207910366E+02  0.00000000000E+00 0. -1.
         21    1    1    2  502  501 -0.72025688666E+02 -0.27562742177E+02  0.20403708602E+03  0.21812504912E+03  0.00000000000E+00 0. -1.
<scales pt_clust_5="13000.00000" pt_clust_6="13000.00000" pt_clust_7="13000.00000" pt_clust_8="13000.00000" pt_clust_9="77.11942"></scales>
<clustering>
<clus scale="   77.119">  1  9  2 -1</clus>
<clus scale="   84.837">  5  6 -1 -1</clus>
<clus scale="   88.111">  1  5  2 -1</clus>
<clus scale="  112.968">  7  8 -1 -1</clus>
<clus scale="   77.119">  1  5  2 -1</clus>
</clustering>
</event>
<event>
 9    1  0.2674825E-005  0.1303771E+03  0.7546771E-02  0.1241997E+00
         -2   -1    0    0    0  501 -0.00000000000E+00  0.00000000000E+00  0.34134786269E+02  0.34134786269E+02  0.00000000000E+00 0.  1.
          1   -1    0    0  502    0  0.00000000000E+00 -0.00000000000E+00 -0.13379890361E+04  0.13379890361E+04  0.00000000000E+00 0. -1.
         23    2    1    2    0    0 -0.79909756090E+01 -0.31845859418E+02 -0.81143346308E+02  0.12544771828E+03  0.89860296680E+02 0.  0.
        -24    2    1    2    0    0 -0.90694248800E+02 -0.25392252316E+02 -0.75845024621E+03  0.76860400400E+03  0.81456281190E+02 0.  0.
         11    1    4    4    0    0 -0.77177802449E+02 -0.40004007694E+02 -0.38797530838E+03  0.39759473555E+03  0.00000000000E+00 0. -1.
        -12    1    4    4    0    0 -0.13516446350E+02  0.14611755378E+02 -0.37047493783E+03  0.37100926846E+03  0.00000000000E+00 0.  1.
        -13    1    3    3    0    0 -0.42910462234E+02 -0.38020496850E+01 -0.15095118015E+02  0.45646751679E+02  0.00000000000E+00 0. -1.
         13    1    3    3    0    0  0.34919486625E+02 -0.28043809733E+02 -0.66048228293E+02  0.79800966605E+02  0.00000000000E+00 0.  1.
         21    1    1    2  502  501  0.98685224409E+02  0.57238111734E+02 -0.46426065731E+03  0.47807210009E+03  0.00000000000E+00 0.  1.
<scales pt_clust_5="13000.00000" pt_clust_6="13000.00000" pt_clust_7="13000.00000" pt_clust_8="13000.00000" pt_clust_9="101.79917"></scales>
<clustering>
<clus scale="   81.456">  5  6 -1 -1</clus>
<clus scale="   89.860">  7  8 -1 -1</clus>
<clus scale="   95.671">  1  7  2 -1</clus>
<clus scale="  101.799">  1  9  2 -1</clus>
<clus scale="  130.377">  2  5  1 -1</clus>
</clustering>
</event>
<event>
 9    1  0.2674825E-005  0.1361982E+03  0.7546771E-02  0.1220738E+00
         -2   -1    0    0    0  501 -0.00000000000E+00  0.00000000000E+00  0.31962058981E+03  0.31962058981E+03  0.00000000000E+00 0.  1.
          1   -1    0    0  502    0  0.00000000000E+00 -0.00000000000E+00 -0.41971705253E+03  0.41971705253E+03  0.00000000000E+00 0. -1.
         23    2    1    2    0    0 -0.92248080401E+02  0.51877780296E+02  0.28512160416E+03  0.31687138871E+03  0.88950184909E+02 0.  0.
        -24    2    1    2    0    0  0.53060719771E+02 -0.54170747851E+02 -0.16072624568E+03  0.19456828365E+03  0.79208465751E+02 0.  0.
         11    1    4    4    0    0  0.53334200858E+02 -0.12078356101E+02 -0.13394432511E+03  0.14467724734E+03  0.00000000000E+00 0. -1.
        -12    1    4    4    0    0 -0.27348108696E+00 -0.42092391751E+02 -0.26781920572E+02  0.49891036316E+02  0.00000000000E+00 0.  1.
        -11    1    3    3    0    0 -0.37665176655E+02 -0.64253973839E+01  0.18445609113E+03  0.18837197462E+03  0.00000000000E+00 0.  1.
         11    1    3    3    0    0 -0.54582903746E+02  0.58303177680E+02  0.10066551303E+03  0.12849941409E+03  0.00000000000E+00 0. -1.
         21    1    1    2  502  501  0.39187360630E+02  0.22929675554E+01 -0.22449182120E+03  0.22789796998E+03  0.00000000000E+00 0. -1.
<scales pt_clust_5="13000.00000" pt_clust_6="13000.00000" pt_clust_7="13000.00000" pt_clust_8="13000.00000" pt_clust_9="39.25439"></scales>
<clustering>
<clus scale="   39.254">  2  9  1 -1</clus>
<clus scale="   79.208">  5  6 -1 -1</clus>
<clus scale="   88.950">  7  8 -1 -1</clus>
<clus scale="  130.045">  2  5  1 -1</clus>
<clus scale="   39.254">  2  5  1 -1</clus>
</clustering>
</event>
<event>
 9    1  0.2674825E-005  0.1184257E+03  0.7546771E-02  0.1249234E+00
          1   -1    0    0  502    0  0.00000000000E+00  0.00000000000E+00  0.21314224399E+03  0.21314224399E+03  0.00000000000E+00 0. -1.
         -2   -1    0    0    0  501 -0.00000000000E+00 -0.00000000000E+00 -0.26984580194E+03  0.26984580194E+03  0.00000000000E+00 0.  1.
        -24    2    1    2    0    0  0.60002140857E+02 -0.45082348180E+02 -0.22037348711E+03  0.24620487805E+03  0.80122987537E+02 0.  0.
         23    2    1    2    0    0 -0.51945141727E+02  0.68767233190E+02  0.78078388385E+02  0.14761029720E+03  0.90913887810E+02 0.  0.
         13    1    3    3    0    0  0.55866292791E+02 -0.62104169912E+02 -0.13273488433E+03  0.15683277753E+03  0.00000000000E+00 0. -1.
        -14    1    3    3    0    0  0.41358480654E+01  0.17021821733E+02 -0.87638602776E+02  0.89372100517E+02  0.00000000000E+00 0.  1.
        -11    1    4    4    0    0  0.79778160782E+01  0.60471427672E+02  0.57184469756E+02  0.83609226138E+02  0.00000000000E+00 0. -1.
         11    1    4    4    0    0 -0.59922957805E+02  0.82958055179E+01  0.20893918628E+02  0.64001071061E+02  0.00000000000E+00 0.  1.
         21    1    1    2  502  501 -0.80569991303E+01 -0.23684885010E+02  0.85591540774E+02  0.89172870678E+02  0.00000000000E+00 0.  1.
<scales pt_clust_5="13000.00000" pt_clust_6="13000.00000" pt_clust_7="13000.00000" pt_clust_8="13000.00000" pt_clust_9="25.01777"></scales>
<clustering>
<clus scale="   25.018">  1  9  2 -1</clus>
<clus scale="   80.123">  5  6 -1 -1</clus>
<clus scale="   90.914">  7  8 -1 -1</clus>
<clus scale="  110.358">  2  5  1 -1</clus>
<clus scale="   25.018">  1  5  2 -1</clus>
</clustering>
</event>
<event>
 9    1  0.2674825E-005  0.9993093E+02  0.7546771E-02  0.1286220E+00
         -2   -1    0    0    0  501 -0.00000000000E+00  0.00000000000E+00  0.90267498327E+02  0.90267498327E+02  0.00000000000E+00 0.  1.
          1   -1    0    0  502    0  0.00000000000E+00 -0.00000000000E+00 -0.35130728244E+03  0.35130728244E+03  0.00000000000E+00 0. -1.
         23    2    1    2    0    0  0.48664103432E+02  0.84318161106E+01  0.38996769660E+02  0.11097133418E+03  0.91403492715E+02 0.  0.
        -24    2    1    2    0    0  0.53844439303E+01  0.11862751393E+02 -0.18135816070E+03  0.19862740359E+03  0.79952147547E+02 0.  0.
         13    1    4    4    0    0  0.31927986891E+02  0.31227307606E+02 -0.13185153042E+03  0.13920979549E+03  0.00000000000E+00 0. -1.
        -14    1    4    4    0    0 -0.26543542961E+02 -0.19364556213E+02 -0.49506630284E+02  0.59417608100E+02  0.00000000000E+00 0.  1.
        -13    1    3    3    0    0  0.63936843060E+02  0.30339272518E+02  0.98703468150E+01  0.71454986556E+02  0.00000000000E+00 0.  1.
         13    1    3    3    0    0 -0.15272739628E+02 -0.21907456407E+02  0.29126422845E+02  0.39516347626E+02  0.00000000000E+00 0. -1.
         21    1    1    2  502  501 -0.54048547363E+02 -0.20294567504E+02 -0.11867839307E+03  0.13197604299E+03  0.00000000000E+00 0. -1.
<scales pt_clust_5="13000.00000" pt_clust_6="13000.00000" pt_clust_7="13000.00000" pt_clust_8="13000.00000" pt_clust_9="57.73314"></scales>
<clustering>
<clus scale="   57.733">  2  9  1 -1</clus>
<clus scale="   79.952">  5  6 -1 -1</clus>
<clus scale="   89.576">  2  5  1 -1</clus>
<clus scale="   91.403">  7  8 -1 -1</clus>
<clus scale="   57.733">  2  5  1 -1</clus>
</clustering>
</event>
<event>
 9    1  0.2674825E-005  0.1573123E+03  0.7546771E-02  0.1193475E+00
          1   -1    0    0  502    0  0.00000000000E+00  0.00000000000E+00  0.14464585128E+03  0.14464585128E+03  0.00000000000E+00 0. -1.
         -2   -1    0    0    0  501 -0.00000000000E+00 -0.00000000000E+00 -0.41149654760E+03  0.41149654760E+03  0.00000000000E+00 0.  1.
         23    2    1    2    0    0 -0.96607008618E+02  0.26816734714E+02 -0.31763464458E+03  0.34530433854E+03  0.91056396833E+02 0.  0.
        -24    2    1    2    0    0  0.12889034396E+03 -0.30482781369E+02  0.73105177656E+02  0.17141863720E+03  0.80610554215E+02 0.  0.
         11    1    4    4    0    0  0.68086908160E+02  0.21870337913E+02  0.16982411524E+02  0.73501979867E+02  0.00000000000E+00 0. -1.
        -12    1    4    4    0    0  0.60803435804E+02 -0.52353119282E+02  0.56122766132E+02  0.97916657329E+02  0.00000000000E+00 0.  1.
        -13    1    3    3    0    0 -0.47607430069E+02  0.22922153479E+02 -0.27562564335E+03  0.28064459337E+03  0.00000000000E+00 0.  1.
         13    1    3    3    0    0 -0.48999578549E+02  0.38945812358E+01 -0.42009001230E+02  0.64659745169E+02  0.00000000000E+00 0. -1.
         21    1    1    2  502  501 -0.32283335346E+02  0.36660466549E+01 -0.22321229403E+02  0.39419423147E+02  0.00000000000E+00 0. -1.
<scales pt_clust_5="13000.00000" pt_clust_6="13000.00000" pt_clust_7="13000.00000" pt_clust_8="13000.00000" pt_clust_9="32.49082"></scales>
<clustering>
<clus scale="   32.491">  2  9  1 -1</clus>
<clus scale="   80.611">  5  6 -1 -1</clus>
<clus scale="   91.056">  7  8 -1 -1</clus>
<clus scale="  151.506">  1  5  2 -1</clus>
<clus scale="  151.506">  1  5  2 -1</clus>
</clustering>
</event>
<event>
 9    1  0.2674825E-005  0.4260517E+03  0.7546771E-02  0.1035305E+00
         -2   -1    0    0    0  501 -0.00000000000E+00  0.00000000000E+00  0.44129025975E+03  0.44129025975E+03  0.00000000000E+00 0.  1.
          1   -1    0    0  502    0  0.00000000000E+00 -0.00000000000E+00 -0.84648662471E+03  0.84648662471E+03  0.00000000000E+00 0. -1.
         23    2    1    2    0    0  0.11682953222E+03  0.40018876245E+03  0.24872675218E+03  0.49427263365E+03  0.92952966230E+02 0.  0.
        -24    2    1    2    0    0 -0.14348845219E+03 -0.38478396414E+03 -0.60616376607E+03  0.73668029952E+03  0.81337060720E+02 0.  0.
         13    1    4    4    0    0 -0.51282339868E+02 -0.24743524037E+03 -0.38417007105E+03  0.45982683702E+03  0.00000000000E+00 0. -1.
        -14    1    4    4    0    0 -0.92206112323E+02 -0.13734872377E+03 -0.22199369502E+03  0.27685346250E+03  0.00000000000E+00 0.  1.
        -11    1    3    3    0    0  0.40729455282E+02  0.29217888497E+03  0.17160487508E+03  0.34128525093E+03  0.00000000000E+00 0.  1.
         11    1    3    3    0    0  0.76100076942E+02  0.10800987749E+03  0.77121877103E+02  0.15298738272E+03  0.00000000000E+00 0. -1.
         21    1    1    2  502  501  0.26658919968E+02 -0.15404798315E+02 -0.47759351070E+02  0.56823951284E+02  0.00000000000E+00 0. -1.
<scales pt_clust_5="13000.00000" pt_clust_6="13000.00000" pt_clust_7="13000.00000" pt_clust_8="13000.00000" pt_clust_9="30.78970"></scales>
<clustering>
<clus scale="   30.790">  2  9  1 -1</clus>
<clus scale="   81.337">  5  6 -1 -1</clus>
<clus scale="   92.953">  7  8 -1 -1</clus>
<clus scale="  423.669">  2  5  1 -1</clus>
<clus scale="   30.790">  2  5  1 -1</clus>
</clustering>
</event>
<event>
 9    1  0.2674825E-005  0.2173014E+03  0.7546771E-02  0.1136707E+00
          1   -1    0    0  502    0  0.00000000000E+00  0.00000000000E+00  0.50110843041E+03  0.50110843041E+03  0.00000000000E+00 0. -1.
         -2   -1    0    0    0  501 -0.00000000000E+00 -0.00000000000E+00 -0.17633739210E+03  0.17633739210E+03  0.00000000000E+00 0.  1.
         23    2    1    2    0    0 -0.60643184723E+02  0.19548211360E+03 -0.53458248072E+02  0.22883824905E+03  0.87282915582E+02 0.  0.
        -24    2    1    2    0    0  0.86113434483E+02 -0.15885020876E+03  0.29696024886E+03  0.35589680529E+03  0.76342872569E+02 0.  0.
         11    1    4    4    0    0  0.82400975962E+02 -0.72605542246E+02  0.16771694496E+03  0.20047558263E+03  0.00000000000E+00 0. -1.
        -12    1    4    4    0    0  0.37124585211E+01 -0.86244666515E+02  0.12924330390E+03  0.15542122266E+03  0.00000000000E+00 0.  1.
        -13    1    3    3    0    0 -0.44516318629E+02  0.13814826599E+03 -0.77584733762E+02  0.16457836107E+03  0.00000000000E+00 0.  1.
         13    1    3    3    0    0 -0.16126866094E+02  0.57333847608E+02  0.24126485690E+02  0.64259887981E+02  0.00000000000E+00 0. -1.
         21    1    1    2  502  501 -0.25470249760E+02 -0.36631904837E+02  0.81269037516E+02  0.92710768164E+02  0.00000000000E+00 0.  1.
<scales pt_clust_5="13000.00000" pt_clust_6="13000.00000" pt_clust_7="13000.00000" pt_clust_8="13000.00000" pt_clust_9="44.61648"></scales>
<clustering>
<clus scale="   44.616">  1  9  2 -1</clus>
<clus scale="   76.343">  5  6 -1 -1</clus>
<clus scale="   87.283">  7  8 -1 -1</clus>
<clus scale="  213.143">  1  5  2 -1</clus>
<clus scale="   44.616">  1  5  2 -1</clus>
</clustering>
</event>
<event>
 9    1  0.2674825E-005  0.1033330E+03  0.7546771E-02  0.1279442E+00
          1   -1    0    0  502    0  0.00000000000E+00  0.00000000000E+00  0.57312282885E+02  0.57312282885E+02  0.00000000000E+00 0. -1.
         -2   -1    0    0    0  501 -0.00000000000E+00 -0.00000000000E+00 -0.27171422879E+03  0.27171422879E+03  0.00000000000E+00 0.  1.
        -24    2    1    2    0    0  0.42715008806E+02 -0.52257771587E+02 -0.12786479728E+03  0.15524852375E+03  0.56544239974E+02 0.  0.
         23    2    1    2    0    0 -0.32225634735E+02  0.78935128722E+02 -0.91079289166E+02  0.14475490414E+03  0.73411846976E+02 0.  0.
         11    1    3    3    0    0  0.29631026672E+02  0.11709750166E+01 -0.25809923537E+02  0.39313115841E+02  0.00000000000E+00 0. -1.
        -12    1    3    3    0    0  0.13083982134E+02 -0.53428746604E+02 -0.10205487374E+03  0.11593540791E+03  0.00000000000E+00 0.  1.
        -11    1    4    4    0    0 -0.29877222893E+02  0.52106675782E+02 -0.12047930015E+02  0.61260972294E+02  0.00000000000E+00 0. -1.
         11    1    4    4    0    0 -0.23484118422E+01  0.26828452941E+02 -0.79031359151E+02  0.83493931843E+02  0.00000000000E+00 0.  1.
         21    1    1    2  502  501 -0.10489374071E+02 -0.26677357135E+02  0.45421405377E+01  0.29023083792E+02  0.00000000000E+00 0.  1.
<scales pt_clust_5="13000.00000" pt_clust_6="13000.00000" pt_clust_7="13000.00000" pt_clust_8="13000.00000" pt_clust_9="28.66546"></scales>
<clustering>
<clus scale="   28.665">  1  9  2 -1</clus>
<clus scale="   56.544">  5  6 -1 -1</clus>
<clus scale="   73.412">  7  8 -1 -1</clus>
<clus scale="   92.118">  2  5  1 -1</clus>
<clus scale="   28.665">  1  5  2 -1</clus>
</clustering>
</event>
<event>
 9    1  0.2674825E-005  0.1125090E+03  0.7546771E-02  0.1259612E+00
         -2   -1    0    0    0  501 -0.00000000000E+00  0.00000000000E+00  0.64657225733E+03  0.64657225733E+03  0.00000000000E+00 0.  1.
          1   -1    0    0  502    0  0.00000000000E+00 -0.00000000000E+00 -0.32583754755E+02  0.32583754755E+02  0.00000000000E+00 0. -1.
         23    2    1    2    0    0  0.59999738462E+02 -0.29756038303E+02  0.47945273230E+03  0.49327972432E+03  0.94681431567E+02 0.  0.
        -24    2    1    2    0    0 -0.41925879669E+02  0.72050265970E+01  0.81287441767E+02  0.12529083580E+03  0.85325573852E+02 0.  0.
         13    1    4    4    0    0 -0.13427887614E+02  0.17332967095E+02 -0.13531587251E+02  0.25765165779E+02  0.00000000000E+00 0. -1.
        -14    1    4    4    0    0 -0.28497992056E+02 -0.10127940498E+02  0.94819029018E+02  0.99525670025E+02  0.00000000000E+00 0.  1.
        -11    1    3    3    0    0 -0.18256957691E+02 -0.32825431524E+02  0.16495184388E+03  0.16917427776E+03  0.00000000000E+00 0. -1.
         11    1    3    3    0    0  0.78256696152E+02  0.30693932207E+01  0.31450088842E+03  0.32410544655E+03  0.00000000000E+00 0.  1.
         21    1    1    2  502  501 -0.18073858792E+02  0.22551011706E+02  0.53248328513E+02  0.60585451967E+02  0.00000000000E+00 0.  1.
<scales pt_clust_5="13000.00000" pt_clust_6="13000.00000" pt_clust_7="13000.00000" pt_clust_8="13000.00000" pt_clust_9="28.90004"></scales>
<clustering>
<clus scale="   28.900">  2  9  1 -1</clus>
<clus scale="   85.326">  5  6 -1 -1</clus>
<clus scale="   94.681">  7  8 -1 -1</clus>
<clus scale="  104.758">  2  5  1 -1</clus>
<clus scale="   28.900">  2  5  1 -1</clus>
</clustering>
</event>
<event>
 9    1  0.2674825E-005  0.1304026E+03  0.7546771E-02  0.1229721E+00
         -2   -1    0    0    0  501 -0.00000000000E+00  0.00000000000E+00  0.43937857938E+02  0.43937857938E+02  0.00000000000E+00 0.  1.
          1   -1    0    0  502    0  0.00000000000E+00 -0.00000000000E+00 -0.10705900327E+04  0.10705900327E+04  0.00000000000E+00 0. -1.
        -24    2    1    2    0    0 -0.27627509922E+02  0.10695194863E+03 -0.12008586635E+03  0.18170145556E+03  0.79955018824E+02 0.  0.
         23    2    1    2    0    0 -0.47767823483E+02 -0.36200232049E+02 -0.58418617121E+03  0.59427183895E+03  0.91067635138E+02 0.  0.
         13    1    3    3    0    0 -0.41596082948E+02  0.10656746787E+03 -0.12240039548E+03  0.16753720822E+03  0.00000000000E+00 0. -1.
        -14    1    3    3    0    0  0.13968573027E+02  0.38448076702E+00  0.23145291233E+01  0.14164247347E+02  0.00000000000E+00 0.  1.
        -11    1    4    4    0    0 -0.48686691236E+02  0.19929020737E+02 -0.30379667539E+03  0.30831798479E+03  0.00000000000E+00 0. -1.
         11    1    4    4    0    0  0.91886775242E+00 -0.56129252786E+02 -0.28038949583E+03  0.28595385415E+03  0.00000000000E+00 0.  1.
         21    1    1    2  502  501  0.75395333405E+02 -0.70751716583E+02 -0.32238013715E+03  0.33855459608E+03  0.00000000000E+00 0.  1.
<scales pt_clust_5="13000.00000" pt_clust_6="13000.00000" pt_clust_7="13000.00000" pt_clust_8="13000.00000" pt_clust_9="103.39372"></scales>
<clustering>
<clus scale="   79.955">  5  6 -1 -1</clus>
<clus scale="   91.068">  7  8 -1 -1</clus>
<clus scale="  103.394">  2  9  1 -1</clus>
<clus scale="  122.900">  1  5  2 -1</clus>
<clus scale="  103.394">  2  5  1 -1</clus>
</clustering>
</event>
<event>
 9    1  0.2674825E-005  0.9857127E+02  0.7546771E-02  0.1290852E+00
          1   -1    0    0  502    0  0.00000000000E+00  0.00000000000E+00  0.87757985210E+02  0.87757985210E+02  0.00000000000E+00 0. -1.
         -2   -1    0    0    0  501 -0.00000000000E+00 -0.00000000000E+00 -0.21097778477E+03  0.21097778477E+03  0.00000000000E+00 0.  1.
        -24    2    1    2    0    0  0.32055952773E+02 -0.14196138403E+02 -0.13800530928E+03  0.16332007216E+03  0.79992912993E+02 0.  0.
         23    2    1    2    0    0  0.31558408446E+01  0.25574449889E+02  0.15035320302E+02  0.98410309196E+02  0.93779082320E+02 0.  0.
         13    1    3    3    0    0 -0.23171068798E+01  0.30611814719E+02 -0.53477495605E+02  0.61662749865E+02  0.00000000000E+00 0. -1.
        -14    1    3    3    0    0  0.34373059652E+02 -0.44807953122E+02 -0.84527813671E+02  0.10165732230E+03  0.00000000000E+00 0.  1.
        -11    1    4    4    0    0 -0.17375320990E+02  0.34630404632E+02 -0.29395823168E+02  0.48634155943E+02  0.00000000000E+00 0.  1.
         11    1    4    4    0    0  0.20531161835E+02 -0.90559547433E+01  0.44431143470E+02  0.49776153253E+02  0.00000000000E+00 0. -1.
         21    1    1    2  502  501 -0.35211793617E+02 -0.11378311486E+02 -0.24981059056E+00  0.37005388626E+02  0.00000000000E+00 0. -1.
<scales pt_clust_5="13000.00000" pt_clust_6="13000.00000" pt_clust_7="13000.00000" pt_clust_8="13000.00000" pt_clust_9="37.00455"></scales>
<clustering>
<clus scale="   37.005">  1  9  2 -1</clus>
<clus scale="   79.993">  5  6 -1 -1</clus>
<clus scale="   85.561">  2  5  1 -1</clus>
<clus scale="   93.779">  7  8 -1 -1</clus>
<clus scale="   37.005">  1  5  2 -1</clus>
</clustering>
</event>
<event>
 9    1  0.2674825E-005  0.1166598E+03  0.7546771E-02  0.1252630E+00
         -2   -1    0    0    0  501 -0.00000000000E+00  0.00000000000E+00  0.13742981329E+03  0.13742981329E+03  0.00000000000E+00 0.  1.
          1   -1    0    0  502    0  0.00000000000E+00 -0.00000000000E+00 -0.26598356731E+03  0.26598356731E+03  0.00000000000E+00 0. -1.
         23    2    1    2    0    0 -0.64430296383E+01 -0.76281466865E+02  0.89976145632E+02  0.15006178129E+03  0.92533543126E+02 0.  0.
        -24    2    1    2    0    0  0.96973563571E+01  0.38903666190E+02 -0.15932443819E+03  0.18325896565E+03  0.81191366071E+02 0.  0.
         13    1    4    4    0    0  0.25052392445E+01  0.27672908350E+02 -0.16602494956E+03  0.16833404278E+03  0.00000000000E+00 0. -1.
        -14    1    4    4    0    0  0.71921171125E+01  0.11230757840E+02  0.67005113723E+01  0.14924922877E+02  0.00000000000E+00 0.  1.
        -13    1    3    3    0    0 -0.42855344166E+02 -0.47533868286E+02  0.80275935022E+02  0.10266584097E+03  0.00000000000E+00 0. -1.
         13    1    3    3    0    0  0.36412314527E+02 -0.28747598579E+02  0.97002106100E+01  0.47395940324E+02  0.00000000000E+00 0.  1.
         21    1    1    2  502  501 -0.32543267187E+01  0.37377800675E+02 -0.59205461465E+02  0.70092633657E+02  0.00000000000E+00 0.  1.
<scales pt_clust_5="13000.00000" pt_clust_6="13000.00000" pt_clust_7="13000.00000" pt_clust_8="13000.00000" pt_clust_9="37.51920"></scales>
<clustering>
<clus scale="   37.519">  2  9  1 -1</clus>
<clus scale="   81.191">  5  6 -1 -1</clus>
<clus scale="   92.534">  7  8 -1 -1</clus>
<clus scale="  107.885">  2  5  1 -1</clus>
<clus scale="   37.519">  2  5  1 -1</clus>
</clustering>
</event>
<event>
 9    1  0.2674825E-005  0.1186190E+03  0.7546771E-02  0.1248316E+00
          3   -1    0    0  502    0  0.00000000000E+00  0.00000000000E+00  0.52902242056E+03  0.52902242056E+03  0.00000000000E+00 0. -1.
         -4   -1    0    0    0  501 -0.00000000000E+00 -0.00000000000E+00 -0.41913269802E+02  0.41913269802E+02  0.00000000000E+00 0.  1.
         23    2    1    2    0    0 -0.32325918964E+02  0.84513073767E+02  0.10607229120E+03  0.16592930353E+03  0.89965427438E+02 0.  0.
        -24    2    1    2    0    0  0.12054038530E+02 -0.47973677180E+02  0.28256797826E+03  0.29803818023E+03  0.80841332204E+02 0.  0.
         11    1    4    4    0    0  0.52978879011E+01 -0.62556369526E+02  0.27115114378E+03  0.27832410920E+03  0.00000000000E+00 0. -1.
        -12    1    4    4    0    0  0.67561506289E+01  0.14582692346E+02  0.11416834471E+02  0.19714071033E+02  0.00000000000E+00 0.  1.
        -11    1    3    3    0    0 -0.58272380234E+02  0.38927295722E+02  0.37146620285E+02  0.79315043018E+02  0.00000000000E+00 0.  1.
         11    1    3    3    0    0  0.25946461270E+02  0.45585778045E+02  0.68925670915E+02  0.86614260509E+02  0.00000000000E+00 0. -1.
         21    1    1    2  502  501  0.20271880434E+02 -0.36539396587E+02  0.98468881300E+02  0.10696820660E+03  0.00000000000E+00 0.  1.
<scales pt_clust_5="13000.00000" pt_clust_6="13000.00000" pt_clust_7="13000.00000" pt_clust_8="13000.00000" pt_clust_9="41.78608"></scales>
<clustering>
<clus scale="   41.786">  1  9  2 -1</clus>
<clus scale="   80.841">  5  6 -1 -1</clus>
<clus scale="   89.965">  7  8 -1 -1</clus>
<clus scale="  111.857">  1  5  2 -1</clus>
<clus scale="   41.786">  1  5  2 -1</clus>
</clustering>
</event>
<event>
 9    1  0.2674825E-005  0.1005685E+03  0.7546771E-02  0.1284497E+00
          1   -1    0    0  502    0  0.00000000000E+00  0.00000000000E+00  0.65065046187E+03  0.65065046187E+03  0.00000000000E+00 0. -1.
         -2   -1    0    0    0  501 -0.00000000000E+00 -0.00000000000E+00 -0.62267556757E+02  0.62267556757E+02  0.00000000000E+00 0.  1.
        -24    2    1    2    0    0 -0.95810210261E+01  0.38690707959E+02 -0.32480177432E+01  0.89403651762E+02  0.79960593312E+02 0.  0.
         23    2    1    2    0    0 -0.15766358791E+02 -0.86080959993E+02  0.51285907725E+03  0.52815541704E+03  0.90913154657E+02 0.  0.
         11    1    3    3    0    0  0.31441295939E+02  0.31154304712E+02  0.10494120094E+02  0.45489255314E+02  0.00000000000E+00 0. -1.
        -12    1    3    3    0    0 -0.41022316965E+02  0.75364032468E+01 -0.13742137837E+02  0.43914396448E+02  0.00000000000E+00 0.  1.
        -13    1    4    4    0    0  0.20323948571E+02 -0.73077249446E+02  0.43260325157E+03  0.43920259624E+03  0.00000000000E+00 0. -1.
         13    1    4    4    0    0 -0.36090307362E+02 -0.13003710547E+02  0.80255825676E+02  0.88952820801E+02  0.00000000000E+00 0.  1.
         21    1    1    2  502  501  0.25347379817E+02  0.47390252033E+02  0.78771845605E+02  0.95358949824E+02  0.00000000000E+00 0.  1.
<scales pt_clust_5="13000.00000" pt_clust_6="13000.00000" pt_clust_7="13000.00000" pt_clust_8="13000.00000" pt_clust_9="53.74315"></scales>
<clustering>
<clus scale="   53.743">  1  9  2 -1</clus>
<clus scale="   79.961">  5  6 -1 -1</clus>
<clus scale="   90.788">  2  5  1 -1</clus>
<clus scale="   90.913">  7  8 -1 -1</clus>
<clus scale="   53.743">  1  5  2 -1</clus>
</clustering>
</event>
<event>
 9    1  0.2674825E-005  0.9754317E+02  0.7546771E-02  0.1291034E+00
          1   -1    0    0  502    0  0.00000000000E+00  0.00000000000E+00  0.42455717029E+03  0.42455717029E+03  0.00000000000E+00 0. -1.
         -2   -1    0    0    0  501 -0.00000000000E+00 -0.00000000000E+00 -0.82053927795E+02  0.82053927795E+02  0.00000000000E+00 0.  1.
        -24    2    1    2    0    0  0.48554161050E+02 -0.31186879155E+02 -0.20717103479E+02  0.10131180000E+03  0.80652057974E+02 0.  0.
         23    2    1    2    0    0 -0.31676478314E+02 -0.15889305946E+02  0.33265914579E+03  0.34669033687E+03  0.90973694454E+02 0.  0.
         11    1    3    3    0    0  0.27223362742E+02 -0.52040623484E+02  0.87520102517E+01  0.59379589549E+02  0.00000000000E+00 0. -1.
        -12    1    3    3    0    0  0.21330798308E+02  0.20853744329E+02 -0.29469113730E+02  0.41932210448E+02  0.00000000000E+00 0.  1.
        -11    1    4    4    0    0 -0.18122320118E+02  0.36305990145E+02  0.18743672458E+03  0.19177869832E+03  0.00000000000E+00 0.  1.
         11    1    4    4    0    0 -0.13554158197E+02 -0.52195296091E+02  0.14522242120E+03  0.15491163855E+03  0.00000000000E+00 0. -1.
         21    1    1    2  502  501 -0.16877682735E+02  0.47076185101E+02  0.30561200191E+02  0.58608961220E+02  0.00000000000E+00 0.  1.
<scales pt_clust_5="13000.00000" pt_clust_6="13000.00000" pt_clust_7="13000.00000" pt_clust_8="13000.00000" pt_clust_9="50.01023"></scales>
<clustering>
<clus scale="   50.010">  2  9  1 -1</clus>
<clus scale="   80.652">  5  6 -1 -1</clus>
<clus scale="   87.996">  2  5  1 -1</clus>
<clus scale="   90.974">  7  8 -1 -1</clus>
<clus scale="   97.543">  1  5  2 -1</clus>
</clustering>
</event>
<event>
 9    1  0.2674825E-005  0.2031297E+03  0.7546771E-02  0.1148006E+00
          1   -1    0    0  502    0  0.00000000000E+00  0.00000000000E+00  0.53423681303E+03  0.53423681303E+03  0.00000000000E+00 0. -1.
         -2   -1    0    0    0  501 -0.00000000000E+00 -0.00000000000E+00 -0.10842238283E+03  0.10842238283E+03  0.00000000000E+00 0.  1.
        -24    2    1    2    0    0 -0.18685941837E+03 -0.32283557077E+02  0.52769412750E+02  0.21236840717E+03  0.79731167992E+02 0.  0.
         23    2    1    2    0    0  0.15981597056E+03  0.34542270257E+02  0.31219299453E+03  0.36366182692E+03  0.89728176435E+02 0.  0.
         11    1    3    3    0    0 -0.60544137321E+02  0.24755284584E+02  0.43367763371E+01  0.65553217372E+02  0.00000000000E+00 0. -1.
        -12    1    3    3    0    0 -0.12631528105E+03 -0.57038841662E+02  0.48432636413E+02  0.14681518979E+03  0.00000000000E+00 0.  1.
        -13    1    4    4    0    0  0.11583709792E+02  0.22904626558E+02  0.10837068114E+03  0.11136879627E+03  0.00000000000E+00 0. -1.
         13    1    4    4    0    0  0.14823226077E+03  0.11637643699E+02  0.20382231339E+03  0.25229303066E+03  0.00000000000E+00 0.  1.
         21    1    1    2  502  501  0.27043447806E+02 -0.22587131800E+01  0.60852022917E+02  0.66628961777E+02  0.00000000000E+00 0.  1.
<scales pt_clust_5="13000.00000" pt_clust_6="13000.00000" pt_clust_7="13000.00000" pt_clust_8="13000.00000" pt_clust_9="27.13761"></scales>
<clustering>
<clus scale="   27.138">  1  9  2 -1</clus>
<clus scale="   79.731">  5  6 -1 -1</clus>
<clus scale="   89.728">  7  8 -1 -1</clus>
<clus scale="  198.916">  2  5  1 -1</clus>
<clus scale="   27.138">  1  5  2 -1</clus>
</clustering>
</event>
<event>
 9    1  0.2674825E-005  0.1065458E+03  0.7546771E-02  0.1270522E+00
          1   -1    0    0  502    0  0.00000000000E+00  0.00000000000E+00  0.30095072135E+03  0.30095072135E+03  0.00000000000E+00 0. -1.
         -2   -1    0    0    0  501 -0.00000000000E+00 -0.00000000000E+00 -0.62412026363E+02  0.62412026363E+02  0.00000000000E+00 0.  1.
        -24    2    1    2    0    0 -0.62012799715E+02 -0.30035319051E+02  0.30720874017E+02  0.11045397137E+03  0.80675894616E+02 0.  0.
         23    2    1    2    0    0  0.44112291328E+02 -0.52855719520E+01  0.11525774549E+03  0.15223424572E+03  0.88978009415E+02 0.  0.
         11    1    3    3    0    0 -0.45082268224E+02 -0.57633295396E+02  0.16064211662E+02  0.74913727332E+02  0.00000000000E+00 0. -1.
        -12    1    3    3    0    0 -0.16930531491E+02  0.27597976345E+02  0.14656662354E+02  0.35540244038E+02  0.00000000000E+00 0.  1.
        -13    1    4    4    0    0  0.48751671502E+02  0.28064201501E+02  0.37795277122E+02  0.67770257878E+02  0.00000000000E+00 0.  1.
         13    1    4    4    0    0 -0.46393801744E+01 -0.33349773453E+02  0.77462468363E+02  0.84463987844E+02  0.00000000000E+00 0. -1.
         21    1    1    2  502  501  0.17900508387E+02  0.35320891003E+02  0.92560075487E+02  0.10067453062E+03  0.00000000000E+00 0.  1.
<scales pt_clust_5="13000.00000" pt_clust_6="13000.00000" pt_clust_7="13000.00000" pt_clust_8="13000.00000" pt_clust_9="39.59790"></scales>
<clustering>
<clus scale="   39.598">  1  9  2 -1</clus>
<clus scale="   80.676">  5  6 -1 -1</clus>
<clus scale="   88.978">  7  8 -1 -1</clus>
<clus scale="   99.717">  2  5  1 -1</clus>
<clus scale="   39.598">  1  5  2 -1</clus>
</clustering>
</event>
<event>
 9    1  0.2674825E-005  0.9179832E+02  0.7546771E-02  0.1305739E+00
          1   -1    0    0  502    0  0.00000000000E+00  0.00000000000E+00  0.38071664365E+03  0.38071664365E+03  0.00000000000E+00 0. -1.
         -2   -1    0    0    0  501 -0.00000000000E+00 -0.00000000000E+00 -0.70556718031E+02  0.70556718031E+02  0.00000000000E+00 0.  1.
         23    2    1    2    0    0 -0.68371279098E+01  0.22244090499E+01 -0.25354145140E+02  0.95202686176E+02  0.91482372431E+02 0.  0.
        -24    2    1    2    0    0  0.13225228575E+02  0.27730297147E+02  0.27768658102E+03  0.29063283612E+03  0.80085779664E+02 0.  0.
         13    1    4    4    0    0  0.67384839606E+01 -0.26076498857E+02  0.14183860456E+03  0.14437306086E+03  0.00000000000E+00 0. -1.
        -14    1    4    4    0    0  0.64867446142E+01  0.53806796004E+02  0.13584797646E+03  0.14625977526E+03  0.00000000000E+00 0.  1.
        -13    1    3    3    0    0 -0.48610663974E+02 -0.15363355473E+01 -0.59782340478E+01  0.49000982247E+02  0.00000000000E+00 0.  1.
         13    1    3    3    0    0  0.41773536064E+02  0.37607445972E+01 -0.19375911092E+02  0.46201703928E+02  0.00000000000E+00 0. -1.
         21    1    1    2  502  501 -0.63881006650E+01 -0.29954706196E+02  0.57827489739E+02  0.65437839382E+02  0.00000000000E+00 0.  1.
<scales pt_clust_5="13000.00000" pt_clust_6="13000.00000" pt_clust_7="13000.00000" pt_clust_8="13000.00000" pt_clust_9="30.62829"></scales>
<clustering>
<clus scale="   30.628">  1  9  2 -1</clus>
<clus scale="   80.086">  5  6 -1 -1</clus>
<clus scale="   80.447">  1  5  2 -1</clus>
<clus scale="   91.482">  7  8 -1 -1</clus>
<clus scale="   30.628">  1  5  2 -1</clus>
</clustering>
</event>
<event>
 9    1  0.2674825E-005  0.9354121E+02  0.7546771E-02  0.1299332E+00
         -2   -1    0    0    0  501 -0.00000000000E+00  0.00000000000E+00  0.52933450385E+02  0.52933450385E+02  0.00000000000E+00 0.  1.
          1   -1    0    0  502    0  0.00000000000E+00 -0.00000000000E+00 -0.50351005314E+03  0.50351005314E+03  0.00000000000E+00 0. -1.
        -24    2    1    2    0    0  0.20455180290E+01  0.15391529816E+02 -0.34554323463E+01  0.84735816853E+02  0.83229413737E+02 0.  0.
         23    2    1    2    0    0  0.17223162827E+02 -0.53301472875E+02 -0.33744882394E+03  0.35407916366E+03  0.91447586163E+02 0.  0.
         11    1    3    3    0    0  0.24488224469E+02 -0.95137396438E+01 -0.31506871954E+02  0.41022766362E+02  0.00000000000E+00 0. -1.
        -12    1    3    3    0    0 -0.22442706440E+02  0.24905269459E+02  0.28051439608E+02  0.43713050491E+02  0.00000000000E+00 0.  1.
        -13    1    4    4    0    0  0.18298732081E+02 -0.77409659610E+02 -0.29176131874E+03  0.30240993057E+03  0.00000000000E+00 0.  1.
         13    1    4    4    0    0 -0.10755692539E+01  0.24108186735E+02 -0.45687505202E+02  0.51669233093E+02  0.00000000000E+00 0. -1.
         21    1    1    2  502  501 -0.19268680856E+02  0.37909943059E+02 -0.10967234647E+03  0.11762852301E+03  0.00000000000E+00 0. -1.
<scales pt_clust_5="13000.00000" pt_clust_6="13000.00000" pt_clust_7="13000.00000" pt_clust_8="13000.00000" pt_clust_9="42.52583"></scales>
<clustering>
<clus scale="   42.526">  2  9  1 -1</clus>
<clus scale="   83.229">  5  6 -1 -1</clus>
<clus scale="   85.524">  1  5  2 -1</clus>
<clus scale="   91.448">  7  8 -1 -1</clus>
<clus scale="   42.526">  2  5  1 -1</clus>
</clustering>
</event>
<event>
 9    1  0.2674825E-005  0.1765502E+03  0.7546771E-02  0.1172670E+00
          1   -1    0    0  502    0  0.00000000000E+00  0.00000000000E+00  0.77474041592E+03  0.77474041592E+03  0.00000000000E+00 0. -1.
         -2   -1    0    0    0  501 -0.00000000000E+00 -0.00000000000E+00 -0.13439633019E+03  0.13439633019E+03  0.00000000000E+00 0.  1.
         23    2    1    2    0    0 -0.10164288222E+03 -0.10558263979E+03 -0.40921184199E+02  0.17775420600E+03  0.91886044122E+02 0.  0.
        -24    2    1    2    0    0  0.16077538666E+03  0.10162459926E+03  0.54673339130E+03  0.58437524256E+03  0.80004617526E+02 0.  0.
         13    1    4    4    0    0  0.45618860507E+02  0.64958989713E+02  0.28919428873E+03  0.29989012556E+03  0.00000000000E+00 0. -1.
        -14    1    4    4    0    0  0.11515652615E+03  0.36665609549E+02  0.25753910258E+03  0.28448511700E+03  0.00000000000E+00 0.  1.
        -11    1    3    3    0    0 -0.31338058714E+02 -0.44991035150E+02 -0.61806100637E+02  0.82621191251E+02  0.00000000000E+00 0.  1.
         11    1    3    3    0    0 -0.70304823504E+02 -0.60591604641E+02  0.20884916438E+02  0.95133014750E+02  0.00000000000E+00 0. -1.
         21    1    1    2  502  501 -0.59132504439E+02  0.39580405286E+01  0.13453187862E+03  0.14700729755E+03  0.00000000000E+00 0. -1.
<scales pt_clust_5="13000.00000" pt_clust_6="13000.00000" pt_clust_7="13000.00000" pt_clust_8="13000.00000" pt_clust_9="59.26482"></scales>
<clustering>
<clus scale="   59.265">  1  9  2 -1</clus>
<clus scale="   80.005">  5  6 -1 -1</clus>
<clus scale="   91.886">  7  8 -1 -1</clus>
<clus scale="  170.668">  1  5  2 -1</clus>
<clus scale="   59.265">  1  5  2 -1</clus>
</clustering>
</event>
<event>
 9    1  0.2674825E-005  0.9726187E+02  0.7546771E-02  0.1291363E+00
          1   -1    0    0  502    0  0.00000000000E+00  0.00000000000E+00  0.23531090115E+03  0.23531090115E+03  0.00000000000E+00 0. -1.
         -2   -1    0    0    0  501 -0.00000000000E+00 -0.00000000000E+00 -0.23712078837E+03  0.23712078837E+03  0.00000000000E+00 0.  1.
         23    2    1    2    0    0 -0.92868643805E+01  0.33783061017E+02 -0.20031178351E+03  0.22246870732E+03  0.90221804808E+02 0.  0.
        -24    2    1    2    0    0  0.37415041831E+02 -0.38078070777E+02  0.72263508421E+02  0.12055752617E+03  0.80388292920E+02 0.  0.
         13    1    4    4    0    0  0.30799694003E+02 -0.63127210428E+02  0.48106503310E+02  0.85134608168E+02  0.00000000000E+00 0. -1.
        -14    1    4    4    0    0  0.66153478279E+01  0.25049139651E+02  0.24157005111E+02  0.35422918006E+02  0.00000000000E+00 0.  1.
        -13    1    3    3    0    0 -0.43775278229E+02  0.20891930942E+02 -0.16294026469E+03  0.17000669875E+03  0.00000000000E+00 0.  1.
         13    1    3    3    0    0  0.34488413848E+02  0.12891130075E+02 -0.37371518815E+02  0.52462008567E+02  0.00000000000E+00 0. -1.
         21    1    1    2  502  501 -0.28128177450E+02  0.42950097601E+01  0.12623838787E+03  0.12940545602E+03  0.00000000000E+00 0. -1.
<scales pt_clust_5="13000.00000" pt_clust_6="13000.00000" pt_clust_7="13000.00000" pt_clust_8="13000.00000" pt_clust_9="28.45420"></scales>
<clustering>
<clus scale="   28.454">  1  9  2 -1</clus>
<clus scale="   80.388">  5  6 -1 -1</clus>
<clus scale="   88.217">  1  5  2 -1</clus>
<clus scale="   90.222">  7  8 -1 -1</clus>
<clus scale="   28.454">  1  5  2 -1</clus>
</clustering>
</event>
<event>
 9    1  0.2674825E-005  0.9556713E+02  0.7546771E-02  0.1293845E+00
          1   -1    0    0  502    0  0.00000000000E+00  0.00000000000E+00  0.58507132133E+02  0.58507132133E+02  0.00000000000E+00 0. -1.
         -2   -1    0    0    0  501 -0.00000000000E+00 -0.00000000000E+00 -0.26591672114E+03  0.26591672114E+03  0.00000000000E+00 0.  1.
         23    2    1    2    0    0 -0.37172302620E+01 -0.37377921832E+02 -0.18494924323E+03  0.20895104277E+03  0.89684942235E+02 0.  0.
        -24    2    1    2    0    0  0.20182947544E+02  0.16943916860E+02 -0.21733803173E+02  0.89220262644E+02  0.82422383949E+02 0.  0.
         13    1    4    4    0    0 -0.21135671695E+02  0.53665859771E+01  0.19834551647E+02  0.29477555904E+02  0.00000000000E+00 0. -1.
        -14    1    4    4    0    0  0.41318619239E+02  0.11577330883E+02 -0.41568354820E+02  0.59742706740E+02  0.00000000000E+00 0.  1.
        -13    1    3    3    0    0 -0.11169649944E+02  0.28510576170E+02 -0.50957818255E+02  0.59450090620E+02  0.00000000000E+00 0. -1.
         13    1    3    3    0    0  0.74524196824E+01 -0.65888498002E+02 -0.13399142498E+03  0.14950095215E+03  0.00000000000E+00 0.  1.
         21    1    1    2  502  501 -0.16465717282E+02  0.20434004971E+02 -0.72654260476E+00  0.26252547856E+02  0.00000000000E+00 0. -1.
<scales pt_clust_5="13000.00000" pt_clust_6="13000.00000" pt_clust_7="13000.00000" pt_clust_8="13000.00000" pt_clust_9="26.24249"></scales>
<clustering>
<clus scale="   26.242">  1  9  2 -1</clus>
<clus scale="   82.422">  5  6 -1 -1</clus>
<clus scale="   88.787">  1  5  2 -1</clus>
<clus scale="   89.685">  7  8 -1 -1</clus>
<clus scale="   26.242">  1  5  2 -1</clus>
</clustering>
</event>
<event>
 9    1  0.2674825E-005  0.3866946E+03  0.7546771E-02  0.1085795E+00
         -2   -1    0    0    0  501 -0.00000000000E+00  0.00000000000E+00  0.80397451556E+03  0.80397451556E+03  0.00000000000E+00 0.  1.
          1   -1    0    0  502    0  0.00000000000E+00 -0.00000000000E+00 -0.49296827855E+03  0.49296827855E+03  0.00000000000E+00 0. -1.
        -24    2    1    2    0    0 -0.40410600658E+03 -0.49412486287E+02  0.58285398596E+03  0.71564369340E+03  0.81754930122E+02 0.  0.
         23    2    1    2    0    0  0.10257314621E+03  0.13726655152E+02 -0.23886496571E+03  0.27587577413E+03  0.91330715099E+02 0.  0.
         11    1    3    3    0    0 -0.33863387886E+03 -0.52433631461E+02  0.53146160260E+03  0.63235561567E+03  0.00000000000E+00 0. -1.
        -12    1    3    3    0    0 -0.65472127715E+02  0.30211451736E+01  0.51392383362E+02  0.83288077738E+02  0.00000000000E+00 0.  1.
        -13    1    4    4    0    0  0.12250929063E+02  0.20571194443E+02 -0.13901262398E+03  0.14105945176E+03  0.00000000000E+00 0.  1.
         13    1    4    4    0    0  0.90322217145E+02 -0.68445392909E+01 -0.99852341730E+02  0.13481632237E+03  0.00000000000E+00 0. -1.
         21    1    1    2  502  501  0.30153286037E+03  0.35685831135E+02 -0.32982783249E+02  0.30542332658E+03  0.00000000000E+00 0.  1.
<scales pt_clust_5="13000.00000" pt_clust_6="13000.00000" pt_clust_7="13000.00000" pt_clust_8="13000.00000" pt_clust_9="377.95354"></scales>
<clustering>
<clus scale="   81.755">  5  6 -1 -1</clus>
<clus scale="   91.331">  7  8 -1 -1</clus>
<clus scale="  138.025">  2  7  1 -1</clus>
<clus scale="  377.954">  2  9  1 -1</clus>
<clus scale="  138.025">  2  5  1 -1</clus>
</clustering>
</event>
<event>
 9    1  0.2674825E-005  0.9514074E+02  0.7546771E-02  0.1296582E+00
         -2   -1    0    0    0  501 -0.00000000000E+00  0.00000000000E+00  0.32043257497E+03  0.32043257497E+03  0.00000000000E+00 0.  1.
          1   -1    0    0  502    0  0.00000000000E+00 -0.00000000000E+00 -0.44875342947E+02  0.44875342947E+02  0.00000000000E+00 0. -1.
        -24    2    1    2    0    0 -0.18465660118E+02 -0.20279325332E+02  0.19531505214E+03  0.21395514785E+03  0.82925292034E+02 0.  0.
         23    2    1    2    0    0 -0.62761739337E+01  0.12370734938E+02  0.82935229526E+02  0.12523846996E+03  0.92811618982E+02 0.  0.
         11    1    3    3    0    0 -0.10068770818E+02  0.23260173163E+02  0.14365853957E+03  0.14587731761E+03  0.00000000000E+00 0. -1.
        -12    1    3    3    0    0 -0.83968893002E+01 -0.43539498495E+02  0.51656512566E+02  0.68077830236E+02  0.00000000000E+00 0.  1.
        -11    1    4    4    0    0  0.21308528986E+00 -0.36146641152E+02  0.10187119132E+02  0.37555325430E+02  0.00000000000E+00 0. -1.
         11    1    4    4    0    0 -0.64892592235E+01  0.48517376091E+02  0.72748110394E+02  0.87683144526E+02  0.00000000000E+00 0.  1.
         21    1    1    2  502  501  0.24741834052E+02  0.79085903936E+01 -0.26930496386E+01  0.26114300118E+02  0.00000000000E+00 0. -1.
<scales pt_clust_5="13000.00000" pt_clust_6="13000.00000" pt_clust_7="13000.00000" pt_clust_8="13000.00000" pt_clust_9="25.97507"></scales>
<clustering>
<clus scale="   25.975">  2  9  1 -1</clus>
<clus scale="   82.925">  5  6 -1 -1</clus>
<clus scale="   85.524">  1  5  2 -1</clus>
<clus scale="   92.812">  7  8 -1 -1</clus>
<clus scale="   25.975">  2  5  1 -1</clus>
</clustering>
</event>
<event>
 9    1  0.2674825E-005  0.1320182E+03  0.7546771E-02  0.1225117E+00
         -2   -1    0    0    0  501 -0.00000000000E+00  0.00000000000E+00  0.24974438085E+03  0.24974438085E+03  0.00000000000E+00 0.  1.
          1   -1    0    0  502    0  0.00000000000E+00 -0.00000000000E+00 -0.17526992122E+03  0.17526992122E+03  0.00000000000E+00 0. -1.
        -24    2    1    2    0    0 -0.10474154816E+03  0.87264238629E+02  0.73115203531E+02  0.17442440419E+03  0.80574192748E+02 0.  0.
         23    2    1    2    0    0  0.10050403963E+03  0.17565861275E+02 -0.40238828099E+02  0.13772844772E+03  0.83308706385E+02 0.  0.
         11    1    3    3    0    0 -0.33559563364E+02 -0.11667672695E+02  0.87401551549E+01  0.36589195010E+02  0.00000000000E+00 0. -1.
        -12    1    3    3    0    0 -0.71181984792E+02  0.98931911324E+02  0.64375048376E+02  0.13783520918E+03  0.00000000000E+00 0.  1.
        -11    1    4    4    0    0  0.19304737956E+02  0.39358928211E+02  0.15016180022E+01  0.43864028475E+02  0.00000000000E+00 0.  1.
         11    1    4    4    0    0  0.81199301677E+02 -0.21793066936E+02 -0.41740446102E+02  0.93864419244E+02  0.00000000000E+00 0. -1.
         21    1    1    2  502  501  0.42375085237E+01 -0.10483009990E+03  0.41598084197E+02  0.11286145016E+03  0.00000000000E+00 0. -1.
<scales pt_clust_5="13000.00000" pt_clust_6="13000.00000" pt_clust_7="13000.00000" pt_clust_8="13000.00000" pt_clust_9="104.91571"></scales>
<clustering>
<clus scale="   80.574">  5  6 -1 -1</clus>
<clus scale="   83.309">  7  8 -1 -1</clus>
<clus scale="  104.916">  1  9  2 -1</clus>
<clus scale="  130.310">  1  5  2 -1</clus>
<clus scale="  132.018">  2  5  1 -1</clus>
</clustering>
</event>
<event>
 9    1  0.2674825E-005  0.9498679E+02  0.7546771E-02  0.1299047E+00
         -2   -1    0    0    0  501 -0.00000000000E+00  0.00000000000E+00  0.12273609891E+03  0.12273609891E+03  0.00000000000E+00 0.  1.
          1   -1    0    0  502    0  0.00000000000E+00 -0.00000000000E+00 -0.15365476788E+03  0.15365476788E+03  0.00000000000E+00 0. -1.
        -24    2    1    2    0    0 -0.30646657330E+02 -0.18590530378E+02  0.69998236685E+02  0.10816217871E+03  0.74259533659E+02 0.  0.
         23    2    1    2    0    0  0.60094032109E+01  0.44262657297E+02 -0.71777036096E+02  0.12223755427E+03  0.88288056985E+02 0.  0.
         11    1    3    3    0    0 -0.16494432585E+02 -0.39284664230E+02  0.10919302275E+02  0.43983886960E+02  0.00000000000E+00 0. -1.
        -12    1    3    3    0    0 -0.14152224745E+02  0.20694133852E+02  0.59078934409E+02  0.64178291751E+02  0.00000000000E+00 0.  1.
        -11    1    4    4    0    0  0.17961660751E+02  0.69040107829E+02 -0.49345995954E+02  0.86742060517E+02  0.00000000000E+00 0.  1.
         11    1    4    4    0    0 -0.11952257540E+02 -0.24777450532E+02 -0.22431040141E+02  0.35495493756E+02  0.00000000000E+00 0. -1.
         21    1    1    2  502  501  0.24637254119E+02 -0.25672126919E+02 -0.29139869555E+02  0.45991133806E+02  0.00000000000E+00 0. -1.
<scales pt_clust_5="13000.00000" pt_clust_6="13000.00000" pt_clust_7="13000.00000" pt_clust_8="13000.00000" pt_clust_9="35.58163"></scales>
<clustering>
<clus scale="   35.582">  2  9  1 -1</clus>
<clus scale="   74.260">  5  6 -1 -1</clus>
<clus scale="   82.111">  1  5  2 -1</clus>
<clus scale="   88.288">  7  8 -1 -1</clus>
<clus scale="   35.582">  2  5  1 -1</clus>
</clustering>
</event>
<event>
 9    1  0.2674825E-005  0.1211708E+03  0.7546771E-02  0.1245738E+00
          3   -1    0    0  502    0  0.00000000000E+00  0.00000000000E+00  0.35818381701E+03  0.35818381701E+03  0.00000000000E+00 0. -1.
         -4   -1    0    0    0  501 -0.00000000000E+00 -0.00000000000E+00 -0.59967465356E+02  0.59967465356E+02  0.00000000000E+00 0.  1.
        -24    2    1    2    0    0  0.68956381408E+02  0.43153643564E+02  0.37779729445E+02  0.11833091092E+03  0.77185989874E+02 0.  0.
         23    2    1    2    0    0 -0.50345938169E+02 -0.56478743750E+02  0.17671488077E+03  0.21302614997E+03  0.91801032119E+02 0.  0.
         11    1    3    3    0    0  0.37035080262E+02  0.20268544680E+02  0.59877064299E+02  0.73264410886E+02  0.00000000000E+00 0. -1.
        -12    1    3    3    0    0  0.31921301146E+02  0.22885098884E+02 -0.22097334854E+02  0.45066500035E+02  0.00000000000E+00 0.  1.
        -11    1    4    4    0    0 -0.33491246576E+02 -0.37528297498E+01  0.68771771948E+01  0.34395390600E+02  0.00000000000E+00 0.  1.
         11    1    4    4    0    0 -0.16854691593E+02 -0.52725914000E+02  0.16983770358E+03  0.17863075937E+03  0.00000000000E+00 0. -1.
         21    1    1    2  502  501 -0.18610443239E+02  0.13325100186E+02  0.83721741439E+02  0.86794221479E+02  0.00000000000E+00 0. -1.
<scales pt_clust_5="13000.00000" pt_clust_6="13000.00000" pt_clust_7="13000.00000" pt_clust_8="13000.00000" pt_clust_9="22.88901"></scales>
<clustering>
<clus scale="   22.889">  1  9  2 -1</clus>
<clus scale="   77.186">  5  6 -1 -1</clus>
<clus scale="   91.801">  7  8 -1 -1</clus>
<clus scale="  110.511">  2  5  1 -1</clus>
<clus scale="   22.889">  1  5  2 -1</clus>
</clustering>
</event>
<event>
 9    1  0.2674825E-005  0.2308574E+03  0.7546771E-02  0.1126424E+00
          1   -1    0    0  502    0  0.00000000000E+00  0.00000000000E+00  0.35325053877E+03  0.35325053877E+03  0.00000000000E+00 0. -1.
         -2   -1    0    0    0  501 -0.00000000000E+00 -0.00000000000E+00 -0.56288562436E+03  0.56288562436E+03  0.00000000000E+00 0.  1.
         23    2    1    2    0    0  0.45303849661E+02 -0.20615010363E+03 -0.45952598611E+03  0.51299877588E+03  0.86332543839E+02 0.  0.
        -24    2    1    2    0    0 -0.93607408439E+02  0.23062332417E+03  0.21658317605E+03  0.33956399012E+03  0.80286777684E+02 0.  0.
         13    1    4    4    0    0 -0.19945166979E+02  0.78508754651E+02  0.12036368427E+03  0.14508222060E+03  0.00000000000E+00 0. -1.
        -14    1    4    4    0    0 -0.73662241460E+02  0.15211456952E+03  0.96219491780E+02  0.19448176952E+03  0.00000000000E+00 0.  1.
        -13    1    3    3    0    0  0.47115403141E+02 -0.67352270342E+02 -0.11323263007E+03  0.13992075631E+03  0.00000000000E+00 0.  1.
         13    1    3    3    0    0 -0.18115534798E+01 -0.13879783329E+03 -0.34629335604E+03  0.37307801958E+03  0.00000000000E+00 0. -1.
         21    1    1    2  502  501  0.48303558778E+02 -0.24473220537E+02  0.33307724463E+02  0.63573397133E+02  0.00000000000E+00 0. -1.
<scales pt_clust_5="13000.00000" pt_clust_6="13000.00000" pt_clust_7="13000.00000" pt_clust_8="13000.00000" pt_clust_9="54.14954"></scales>
<clustering>
<clus scale="   54.150">  1  9  2 -1</clus>
<clus scale="   80.287">  5  6 -1 -1</clus>
<clus scale="   86.333">  7  8 -1 -1</clus>
<clus scale="  228.665">  1  5  2 -1</clus>
<clus scale="   54.150">  1  5  2 -1</clus>
</clustering>
</event>
<event>
 9    1  0.2674825E-005  0.1289516E+03  0.7546771E-02  0.1232098E+00
          3   -1    0    0  502    0  0.00000000000E+00  0.00000000000E+00  0.33034562777E+03  0.33034562777E+03  0.00000000000E+00 0. -1.
         -4   -1    0    0    0  501 -0.00000000000E+00 -0.00000000000E+00 -0.18374760559E+03  0.18374760559E+03  0.00000000000E+00 0.  1.
         23    2    1    2    0    0 -0.55128751236E+02  0.97388848352E+02 -0.11098441775E+03  0.18177592803E+03  0.90560366769E+02 0.  0.
        -24    2    1    2    0    0  0.58786320335E+02 -0.12775607810E+02  0.56544496161E+02  0.11416819779E+03  0.78854611322E+02 0.  0.
         13    1    4    4    0    0  0.34574088323E+02 -0.45901077038E+02  0.26315554309E+02  0.63204310416E+02  0.00000000000E+00 0. -1.
        -14    1    4    4    0    0  0.24212232012E+02  0.33125469228E+02  0.30228941853E+02  0.50963887373E+02  0.00000000000E+00 0.  1.
        -13    1    3    3    0    0 -0.63618065112E+01  0.60738568033E+02 -0.10368932286E+03  0.12033753323E+03  0.00000000000E+00 0.  1.
         13    1    3    3    0    0 -0.48766944725E+02  0.36650280319E+02 -0.72950948910E+01  0.61438394793E+02  0.00000000000E+00 0. -1.
         21    1    1    2  502  501 -0.36575690989E+01 -0.84613240543E+02  0.20103794377E+03  0.21814910754E+03  0.00000000000E+00 0. -1.
<scales pt_clust_5="13000.00000" pt_clust_6="13000.00000" pt_clust_7="13000.00000" pt_clust_8="13000.00000" pt_clust_9="84.69226"></scales>
<clustering>
<clus scale="   78.855">  5  6 -1 -1</clus>
<clus scale="   84.692">  1  9  2 -1</clus>
<clus scale="   90.560">  7  8 -1 -1</clus>
<clus scale="  121.018">  1  5  2 -1</clus>
<clus scale="   84.692">  1  5  2 -1</clus>
</clustering>
</event>
<event>
 9    1  0.2674825E-005  0.1455279E+03  0.7546771E-02  0.1208317E+00
          1   -1    0    0  502    0  0.00000000000E+00  0.00000000000E+00  0.84940394286E+02  0.84940394286E+02  0.00000000000E+00 0. -1.
         -2   -1    0    0    0  501 -0.00000000000E+00 -0.00000000000E+00 -0.53060150737E+03  0.53060150737E+03  0.00000000000E+00 0.  1.
        -24    2    1    2    0    0 -0.54147998189E+02  0.80391684303E+02 -0.27028825151E+03  0.29810618854E+03  0.80104507575E+02 0.  0.
         23    2    1    2    0    0  0.10332539262E+03 -0.12761403196E+03 -0.16165323456E+03  0.24789008488E+03  0.91412515706E+02 0.  0.
         11    1    3    3    0    0 -0.50180785183E+02  0.60142894934E+02 -0.26565066767E+03  0.27695767953E+03  0.00000000000E+00 0. -1.
        -12    1    3    3    0    0 -0.39672130062E+01  0.20248789369E+02 -0.46375838316E+01  0.21148509019E+02  0.00000000000E+00 0.  1.
        -13    1    4    4    0    0  0.66623930391E+02 -0.61938809875E+02 -0.14446045406E+03  0.17071610075E+03  0.00000000000E+00 0.  1.
         13    1    4    4    0    0  0.36701462225E+02 -0.65675222082E+02 -0.17192780502E+02  0.77173984129E+02  0.00000000000E+00 0. -1.
         21    1    1    2  502  501 -0.49177394427E+02  0.47222347654E+02 -0.13719627022E+02  0.69545628232E+02  0.00000000000E+00 0. -1.
<scales pt_clust_5="13000.00000" pt_clust_6="13000.00000" pt_clust_7="13000.00000" pt_clust_8="13000.00000" pt_clust_9="68.17893"></scales>
<clustering>
<clus scale="   68.179">  1  9  2 -1</clus>
<clus scale="   80.105">  5  6 -1 -1</clus>
<clus scale="   91.413">  7  8 -1 -1</clus>
<clus scale="  138.704">  2  5  1 -1</clus>
<clus scale="   68.179">  1  5  2 -1</clus>
</clustering>
</event>
<event>
 9    1  0.2674825E-005  0.1021624E+03  0.7546771E-02  0.1277966E+00
         -2   -1    0    0    0  501 -0.00000000000E+00  0.00000000000E+00  0.17351033632E+03  0.17351033632E+03  0.00000000000E+00 0.  1.
          1   -1    0    0  502    0  0.00000000000E+00 -0.00000000000E+00 -0.28076611831E+03  0.28076611831E+03  0.00000000000E+00 0. -1.
        -24    2    1    2    0    0  0.38309592341E+02 -0.10407531890E+02  0.13721329162E+03  0.16821870353E+03  0.88848766082E+02 0.  0.
         23    2    1    2    0    0 -0.63909200716E+02  0.23340561004E+02 -0.21941614404E+03  0.24797557062E+03  0.93377040197E+02 0.  0.
         11    1    3    3    0    0  0.37606330464E+02 -0.21265881210E+02  0.15316791933E+02  0.45837516400E+02  0.00000000000E+00 0. -1.
        -12    1    3    3    0    0  0.70326187732E+00  0.10858349320E+02  0.12189649968E+03  0.12238118713E+03  0.00000000000E+00 0.  1.
        -11    1    4    4    0    0 -0.58009594793E+01 -0.33520404094E+02 -0.71817902245E+02  0.79467475765E+02  0.00000000000E+00 0.  1.
         11    1    4    4    0    0 -0.58108241237E+02  0.56860965098E+02 -0.14759824179E+03  0.16850809485E+03  0.00000000000E+00 0. -1.
         21    1    1    2  502  501  0.25599608375E+02 -0.12933029114E+02 -0.25052929571E+02  0.38082180493E+02  0.00000000000E+00 0. -1.
<scales pt_clust_5="13000.00000" pt_clust_6="13000.00000" pt_clust_7="13000.00000" pt_clust_8="13000.00000" pt_clust_9="28.68106"></scales>
<clustering>
<clus scale="   28.681">  2  9  1 -1</clus>
<clus scale="   88.849">  5  6 -1 -1</clus>
<clus scale="   93.377">  7  8 -1 -1</clus>
<clus scale="   98.041">  1  5  2 -1</clus>
<clus scale="   28.681">  2  5  1 -1</clus>
</clustering>
</event>
<event>
 9    1  0.2674825E-005  0.1045431E+03  0.7546771E-02  0.1275795E+00
          1   -1    0    0  502    0  0.00000000000E+00  0.00000000000E+00  0.51648535329E+03  0.51648535329E+03  0.00000000000E+00 0. -1.
         -2   -1    0    0    0  501 -0.00000000000E+00 -0.00000000000E+00 -0.50218244954E+02  0.50218244954E+02  0.00000000000E+00 0.  1.
        -24    2    1    2    0    0  0.40705457634E+02  0.32455965333E+02  0.29830409581E+02  0.99980870743E+02  0.79974978661E+02 0.  0.
         23    2    1    2    0    0 -0.59096042478E+02 -0.46890670740E+01  0.19576409588E+03  0.22375664752E+03  0.90714532927E+02 0.  0.
         11    1    3    3    0    0  0.56928041040E+02  0.99940446207E+01 -0.19328669784E+01  0.57830949839E+02  0.00000000000E+00 0. -1.
        -12    1    3    3    0    0 -0.16222583406E+02  0.22461920713E+02  0.31763276559E+02  0.42149920904E+02  0.00000000000E+00 0.  1.
        -13    1    4    4    0    0 -0.50858491016E+02  0.26773464733E+02  0.55954802171E+02  0.80214365348E+02  0.00000000000E+00 0.  1.
         13    1    4    4    0    0 -0.82375514617E+01 -0.31462531807E+02  0.13980929371E+03  0.14354228217E+03  0.00000000000E+00 0. -1.
         21    1    1    2  502  501  0.18390584844E+02 -0.27766898259E+02  0.24067260287E+03  0.24296607998E+03  0.00000000000E+00 0.  1.
<scales pt_clust_5="13000.00000" pt_clust_6="13000.00000" pt_clust_7="13000.00000" pt_clust_8="13000.00000" pt_clust_9="33.30487"></scales>
<clustering>
<clus scale="   33.305">  1  9  2 -1</clus>
<clus scale="   79.975">  5  6 -1 -1</clus>
<clus scale="   90.715">  7  8 -1 -1</clus>
<clus scale="   95.374">  2  5  1 -1</clus>
<clus scale="   33.305">  1  5  2 -1</clus>
</clustering>
</event>
<event>
 9    1  0.2674825E-005  0.1699607E+03  0.7546771E-02  0.1179243E+00
          1   -1    0    0  502    0  0.00000000000E+00  0.00000000000E+00  0.16274729282E+03  0.16274729282E+03  0.00000000000E+00 0. -1.
         -2   -1    0    0    0  501 -0.00000000000E+00 -0.00000000000E+00 -0.74933451403E+03  0.74933451403E+03  0.00000000000E+00 0.  1.
         23    2    1    2    0    0 -0.10973146917E+03  0.10204729732E+03 -0.38442251060E+03  0.42229545073E+03  0.89989637375E+02 0.  0.
        -24    2    1    2    0    0  0.12201316629E+03 -0.69531388604E+02 -0.32455567289E+03  0.36255557347E+03  0.79927043638E+02 0.  0.
         11    1    4    4    0    0  0.75090351151E+02 -0.67807212270E+02 -0.14396872129E+03  0.17596412015E+03  0.00000000000E+00 0. -1.
        -12    1    4    4    0    0  0.46922815140E+02 -0.17241763341E+01 -0.18058695160E+03  0.18659145332E+03  0.00000000000E+00 0.  1.
        -13    1    3    3    0    0 -0.75962890734E+02  0.19533993759E+02 -0.12102906863E+03  0.14422195788E+03  0.00000000000E+00 0.  1.
         13    1    3    3    0    0 -0.33768578439E+02  0.82513303563E+02 -0.26339344197E+03  0.27807349285E+03  0.00000000000E+00 0. -1.
         21    1    1    2  502  501 -0.12281697118E+02 -0.32515908718E+02  0.12239096228E+03  0.12723078264E+03  0.00000000000E+00 0. -1.
<scales pt_clust_5="13000.00000" pt_clust_6="13000.00000" pt_clust_7="13000.00000" pt_clust_8="13000.00000" pt_clust_9="34.75808"></scales>
<clustering>
<clus scale="   34.758">  1  9  2 -1</clus>
<clus scale="   79.927">  5  6 -1 -1</clus>
<clus scale="   89.990">  7  8 -1 -1</clus>
<clus scale="  164.854">  1  5  2 -1</clus>
<clus scale="   34.758">  1  5  2 -1</clus>
</clustering>
</event>
<event>
 9    1  0.2674825E-005  0.1136535E+03  0.7546771E-02  0.1255929E+00
         -2   -1    0    0    0  501 -0.00000000000E+00  0.00000000000E+00  0.73574925991E+02  0.73574925991E+02  0.00000000000E+00 0.  1.
          1   -1    0    0  502    0  0.00000000000E+00 -0.00000000000E+00 -0.37897053733E+03  0.37897053733E+03  0.00000000000E+00 0. -1.
         23    2    1    2    0    0 -0.54971430253E+02  0.43205097652E+02 -0.25559322370E+01  0.11167554223E+03  0.87042261773E+02 0.  0.
        -24    2    1    2    0    0  0.31083010960E+02 -0.68261732120E+02 -0.27515110966E+03  0.29653992691E+03  0.81252553553E+02 0.  0.
         13    1    4    4    0    0  0.26233644977E+02 -0.86510269285E+02 -0.24278027541E+03  0.25906465013E+03  0.00000000000E+00 0. -1.
        -14    1    4    4    0    0  0.48493659831E+01  0.18248537164E+02 -0.32370834255E+02  0.37475276776E+02  0.00000000000E+00 0.  1.
        -11    1    3    3    0    0 -0.19660840395E+02 -0.26781332909E+02 -0.20086251071E+01  0.33283975307E+02  0.00000000000E+00 0. -1.
         11    1    3    3    0    0 -0.35310589858E+02  0.69986430561E+02 -0.54730712992E+00  0.78391566919E+02  0.00000000000E+00 0.  1.
         21    1    1    2  502  501  0.23888419293E+02  0.25056634468E+02 -0.27688569442E+02  0.44329994191E+02  0.00000000000E+00 0. -1.
<scales pt_clust_5="13000.00000" pt_clust_6="13000.00000" pt_clust_7="13000.00000" pt_clust_8="13000.00000" pt_clust_9="34.61924"></scales>
<clustering>
<clus scale="   34.619">  1  9  2 -1</clus>
<clus scale="   81.253">  5  6 -1 -1</clus>
<clus scale="   87.042">  7  8 -1 -1</clus>
<clus scale="  109.283">  2  5  1 -1</clus>
<clus scale="  109.283">  2  5  1 -1</clus>
</clustering>
</event>
<event>
 9    1  0.2674825E-005  0.1278044E+03  0.7546771E-02  0.1235085E+00
          3   -1    0    0  502    0  0.00000000000E+00  0.00000000000E+00  0.45624313624E+03  0.45624313624E+03  0.00000000000E+00 0. -1.
         -4   -1    0    0    0  501 -0.00000000000E+00 -0.00000000000E+00 -0.66566835575E+02  0.66566835575E+02  0.00000000000E+00 0.  1.
         23    2    1    2    0    0  0.37924986456E+02  0.88205658443E+02  0.42680780183E+02  0.14242324978E+03  0.96146712381E+02 0.  0.
        -24    2    1    2    0    0 -0.23775732212E+01 -0.63253832439E+02  0.17510557014E+03  0.20309496465E+03  0.81110441986E+02 0.  0.
         11    1    4    4    0    0  0.21825358246E+02  0.83926195649E+01  0.68568826960E+02  0.72446299811E+02  0.00000000000E+00 0. -1.
        -12    1    4    4    0    0 -0.24202931468E+02 -0.71646452004E+02  0.10653674318E+03  0.13064866484E+03  0.00000000000E+00 0.  1.
        -11    1    3    3    0    0 -0.29042439951E+02  0.73038360943E+01  0.27766816166E+01  0.30075227361E+02  0.00000000000E+00 0.  1.
         11    1    3    3    0    0  0.66967426407E+02  0.80901822349E+02  0.39904098567E+02  0.11234802242E+03  0.00000000000E+00 0. -1.
         21    1    1    2  502  501 -0.35547413235E+02 -0.24951826004E+02  0.17188995034E+03  0.17729175738E+03  0.00000000000E+00 0.  1.
<scales pt_clust_5="13000.00000" pt_clust_6="13000.00000" pt_clust_7="13000.00000" pt_clust_8="13000.00000" pt_clust_9="43.43054"></scales>
<clustering>
<clus scale="   43.431">  1  9  2 -1</clus>
<clus scale="   81.110">  5  6 -1 -1</clus>
<clus scale="   96.147">  7  8 -1 -1</clus>
<clus scale="  116.913">  1  5  2 -1</clus>
<clus scale="   43.431">  1  5  2 -1</clus>
</clustering>
</event>
<event>
 9    1  0.2674825E-005  0.1014733E+03  0.7546771E-02  0.1283586E+00
          1   -1    0    0  502    0  0.00000000000E+00  0.00000000000E+00  0.51459630334E+03  0.51459630334E+03  0.00000000000E+00 0. -1.
         -2   -1    0    0    0  501 -0.00000000000E+00 -0.00000000000E+00 -0.41771330379E+02  0.41771330379E+02  0.00000000000E+00 0.  1.
        -24    2    1    2    0    0 -0.52613611373E+02 -0.14028037127E+01  0.40088780804E+02  0.10256970049E+03  0.78379035165E+02 0.  0.
         23    2    1    2    0    0  0.13862725601E+02 -0.53137437608E+01  0.24342354483E+03  0.26044328084E+03  0.91407162337E+02 0.  0.
         13    1    3    3    0    0  0.65801891060E+01  0.20471531557E+02  0.32554823144E+02  0.39015368804E+02  0.00000000000E+00 0. -1.
        -14    1    3    3    0    0 -0.59193800479E+02 -0.21874335270E+02  0.75339576591E+01  0.63554331691E+02  0.00000000000E+00 0.  1.
        -13    1    4    4    0    0 -0.13778686795E+02 -0.43282364002E+02  0.12861568278E+03  0.13640091312E+03  0.00000000000E+00 0. -1.
         13    1    4    4    0    0  0.27641412396E+02  0.37968620241E+02  0.11480786205E+03  0.12404236772E+03  0.00000000000E+00 0.  1.
         21    1    1    2  502  501  0.38750885772E+02  0.67165474735E+01  0.18931264733E+03  0.19335465238E+03  0.00000000000E+00 0.  1.
<scales pt_clust_5="13000.00000" pt_clust_6="13000.00000" pt_clust_7="13000.00000" pt_clust_8="13000.00000" pt_clust_9="39.32866"></scales>
<clustering>
<clus scale="   39.329">  1  9  2 -1</clus>
<clus scale="   78.379">  5  6 -1 -1</clus>
<clus scale="   89.916">  2  5  1 -1</clus>
<clus scale="   91.407">  7  8 -1 -1</clus>
<clus scale="   39.329">  1  5  2 -1</clus>
</clustering>
</event>
<event>
 9    1  0.2674825E-005  0.8886805E+02  0.7546771E-02  0.1309834E+00
          1   -1    0    0  502    0  0.00000000000E+00  0.00000000000E+00  0.23081031881E+03  0.23081031881E+03  0.00000000000E+00 0. -1.
         -2   -1    0    0    0  501 -0.00000000000E+00 -0.00000000000E+00 -0.52638961822E+02  0.52638961822E+02  0.00000000000E+00 0.  1.
        -24    2    1    2    0    0  0.15271034328E+02  0.19490574639E+01  0.11001106590E+02  0.83460295334E+02  0.81287103753E+02 0.  0.
         23    2    1    2    0    0 -0.72673401207E+00 -0.15774051345E+02  0.12984968931E+03  0.15761574601E+03  0.87934252368E+02 0.  0.
         11    1    3    3    0    0  0.10276103723E+02 -0.31861243572E+02 -0.18555031044E+02  0.38275662329E+02  0.00000000000E+00 0. -1.
        -12    1    3    3    0    0  0.49949306046E+01  0.33810301036E+02  0.29556137634E+02  0.45184633005E+02  0.00000000000E+00 0.  1.
        -11    1    4    4    0    0 -0.68012436184E+01 -0.52053433161E+02  0.73479556203E+02  0.90305381891E+02  0.00000000000E+00 0. -1.
         11    1    4    4    0    0  0.60745096064E+01  0.36279381816E+02  0.56370133103E+02  0.67310364120E+02  0.00000000000E+00 0.  1.
         21    1    1    2  502  501 -0.14544300316E+02  0.13824993881E+02  0.37320561097E+02  0.42373239292E+02  0.00000000000E+00 0. -1.
<scales pt_clust_5="13000.00000" pt_clust_6="13000.00000" pt_clust_7="13000.00000" pt_clust_8="13000.00000" pt_clust_9="20.06657"></scales>
<clustering>
<clus scale="   20.067">  1  9  2 -1</clus>
<clus scale="   81.287">  5  6 -1 -1</clus>
<clus scale="   82.296">  2  5  1 -1</clus>
<clus scale="   87.934">  7  8 -1 -1</clus>
<clus scale="   20.067">  1  5  2 -1</clus>
</clustering>
</event>
<event>
 9    1  0.2674825E-005  0.2194915E+03  0.7546771E-02  0.1134872E+00
         -2   -1    0    0    0  501 -0.00000000000E+00  0.00000000000E+00  0.24805891219E+03  0.24805891219E+03  0.00000000000E+00 0.  1.
          1   -1    0    0  502    0  0.00000000000E+00 -0.00000000000E+00 -0.10668395202E+04  0.10668395202E+04  0.00000000000E+00 0. -1.
        -24    2    1    2    0    0  0.97090913213E+01  0.20047938964E+03  0.17456986551E+03  0.27944191156E+03  0.85597265542E+02 0.  0.
         23    2    1    2    0    0 -0.70752356048E+02 -0.17095623736E+03 -0.56607663408E+03  0.60283563535E+03  0.93467195452E+02 0.  0.
         13    1    3    3    0    0 -0.37486442339E+02  0.70566818815E+02  0.60344144353E+02  0.10013153866E+03  0.00000000000E+00 0. -1.
        -14    1    3    3    0    0  0.47195533661E+02  0.12991257082E+03  0.11422572115E+03  0.17931037290E+03  0.00000000000E+00 0.  1.
        -11    1    4    4    0    0 -0.26382166381E+02 -0.26802579130E+02 -0.37300396328E+02  0.52969014690E+02  0.00000000000E+00 0.  1.
         11    1    4    4    0    0 -0.44370189667E+02 -0.14415365823E+03 -0.52877623775E+03  0.54986662066E+03  0.00000000000E+00 0. -1.
         21    1    1    2  502  501  0.61043264727E+02 -0.29523152280E+02 -0.42727383939E+03  0.43262088544E+03  0.00000000000E+00 0. -1.
<scales pt_clust_5="13000.00000" pt_clust_6="13000.00000" pt_clust_7="13000.00000" pt_clust_8="13000.00000" pt_clust_9="67.80779"></scales>
<clustering>
<clus scale="   67.808">  2  9  1 -1</clus>
<clus scale="   85.597">  5  6 -1 -1</clus>
<clus scale="   93.467">  7  8 -1 -1</clus>
<clus scale="  216.257">  1  5  2 -1</clus>
<clus scale="   67.808">  2  5  1 -1</clus>
</clustering>
</event>
<event>
 9    1  0.2674825E-005  0.1193877E+03  0.7546771E-02  0.1248303E+00
         -2   -1    0    0    0  501 -0.00000000000E+00  0.00000000000E+00  0.21144395450E+03  0.21144395450E+03  0.00000000000E+00 0.  1.
          1   -1    0    0  502    0  0.00000000000E+00 -0.00000000000E+00 -0.25883960121E+03  0.25883960121E+03  0.00000000000E+00 0. -1.
         23    2    1    2    0    0 -0.54268216595E+01 -0.71784320757E+02  0.14548832076E+03  0.18690487773E+03  0.92650648898E+02 0.  0.
        -24    2    1    2    0    0 -0.40848200116E+02  0.92416224574E+02 -0.61780958367E+02  0.14282601137E+03  0.79831376609E+02 0.  0.
         11    1    4    4    0    0 -0.41245556800E+02  0.10039004997E+03 -0.71711455456E+02  0.13008416864E+03  0.00000000000E+00 0. -1.
        -12    1    4    4    0    0  0.39735668418E+00 -0.79738253932E+01  0.99304970891E+01  0.12741842731E+02  0.00000000000E+00 0.  1.
        -11    1    3    3    0    0  0.34738787383E+02 -0.68537621723E+02  0.10048961234E+03  0.12650039971E+03  0.00000000000E+00 0.  1.
         11    1    3    3    0    0 -0.40165609043E+02 -0.32466990337E+01  0.44998708425E+02  0.60404478016E+02  0.00000000000E+00 0. -1.
         21    1    1    2  502  501  0.46275021775E+02 -0.20631903817E+02 -0.13110300910E+03  0.14055266661E+03  0.00000000000E+00 0.  1.
<scales pt_clust_5="13000.00000" pt_clust_6="13000.00000" pt_clust_7="13000.00000" pt_clust_8="13000.00000" pt_clust_9="50.66609"></scales>
<clustering>
<clus scale="   50.666">  2  9  1 -1</clus>
<clus scale="   79.831">  5  6 -1 -1</clus>
<clus scale="   92.651">  7  8 -1 -1</clus>
<clus scale="  109.738">  2  5  1 -1</clus>
<clus scale="   50.666">  2  5  1 -1</clus>
</clustering>
</event>
<event>
 9    1  0.2674825E-005  0.3131504E+03  0.7546771E-02  0.1079251E+00
          1   -1    0    0  502    0  0.00000000000E+00  0.00000000000E+00  0.78534601329E+03  0.78534601329E+03  0.00000000000E+00 0. -1.
         -2   -1    0    0    0  501 -0.00000000000E+00 -0.00000000000E+00 -0.14173068896E+03  0.14173068896E+03  0.00000000000E+00 0.  1.
         23    2    1    2    0    0  0.24811602927E+03 -0.13361354635E+03  0.26085491230E+03  0.39461490605E+03  0.90892766776E+02 0.  0.
        -24    2    1    2    0    0 -0.29040625611E+03  0.12817538062E+03  0.34745800342E+03  0.47710570362E+03  0.78345813514E+02 0.  0.
         11    1    4    4    0    0 -0.80316101048E+02  0.65133183767E+02  0.14858917322E+03  0.18102969401E+03  0.00000000000E+00 0. -1.
        -12    1    4    4    0    0 -0.21009015506E+03  0.63042196855E+02  0.19886883021E+03  0.29607600961E+03  0.00000000000E+00 0.  1.
        -13    1    3    3    0    0  0.15399250230E+03 -0.71227544901E+02  0.21211318595E+03  0.27162300634E+03  0.00000000000E+00 0.  1.
         13    1    3    3    0    0  0.94123526973E+02 -0.62386001453E+02  0.48741726353E+02  0.12299189971E+03  0.00000000000E+00 0. -1.
         21    1    1    2  502  501  0.42290226842E+02  0.54381657314E+01  0.35302408598E+02  0.55356092579E+02  0.00000000000E+00 0. -1.
<scales pt_clust_5="13000.00000" pt_clust_6="13000.00000" pt_clust_7="13000.00000" pt_clust_8="13000.00000" pt_clust_9="42.63844"></scales>
<clustering>
<clus scale="   42.638">  2  9  1 -1</clus>
<clus scale="   78.346">  5  6 -1 -1</clus>
<clus scale="   90.893">  7  8 -1 -1</clus>
<clus scale="  309.741">  1  5  2 -1</clus>
<clus scale="  309.741">  1  5  2 -1</clus>
</clustering>
</event>
<event>
 9    1  0.2674825E-005  0.1069904E+03  0.7546771E-02  0.1270679E+00
         -4   -1    0    0    0  501 -0.00000000000E+00  0.00000000000E+00  0.59033884944E+03  0.59033884944E+03  0.00000000000E+00 0.  1.
          3   -1    0    0  502    0  0.00000000000E+00 -0.00000000000E+00 -0.44381614010E+02  0.44381614010E+02  0.00000000000E+00 0. -1.
        -24    2    1    2    0    0 -0.54187297075E+02 -0.22203360186E+02  0.46238773851E+03  0.47312616937E+03  0.81343094662E+02 0.  0.
         23    2    1    2    0    0  0.42648140744E+02 -0.20100406576E+00  0.90162925231E+02  0.13554470745E+03  0.91782952235E+02 0.  0.
         13    1    3    3    0    0 -0.34276546302E+02  0.18958981354E+02  0.92905887938E+02  0.10082573389E+03  0.00000000000E+00 0. -1.
        -14    1    3    3    0    0 -0.19910750774E+02 -0.41162341540E+02  0.36948185057E+03  0.37230043548E+03  0.00000000000E+00 0.  1.
        -11    1    4    4    0    0  0.59145520725E+02  0.11738616612E+02  0.96869786799E+02  0.11410408992E+03  0.00000000000E+00 0. -1.
         11    1    4    4    0    0 -0.16497379981E+02 -0.11939620677E+02 -0.67068615684E+01  0.21440617534E+02  0.00000000000E+00 0.  1.
         21    1    1    2  502  501  0.11539156331E+02  0.22404364252E+02 -0.65934283145E+01  0.26049586624E+02  0.00000000000E+00 0. -1.
<scales pt_clust_5="13000.00000" pt_clust_6="13000.00000" pt_clust_7="13000.00000" pt_clust_8="13000.00000" pt_clust_9="25.20134"></scales>
<clustering>
<clus scale="   25.201">  2  9  1 -1</clus>
<clus scale="   81.343">  5  6 -1 -1</clus>
<clus scale="   91.783">  7  8 -1 -1</clus>
<clus scale="   98.181">  1  5  2 -1</clus>
<clus scale="   25.201">  2  5  1 -1</clus>
</clustering>
</event>
<event>
 9    1  0.2674825E-005  0.9101812E+02  0.7546771E-02  0.1306753E+00
         -2   -1    0    0    0  501 -0.00000000000E+00  0.00000000000E+00  0.27615080620E+03  0.27615080620E+03  0.00000000000E+00 0.  1.
          1   -1    0    0  502    0  0.00000000000E+00 -0.00000000000E+00 -0.21964524349E+03  0.21964524349E+03  0.00000000000E+00 0. -1.
        -24    2    1    2    0    0  0.12080209287E+02 -0.11168229642E+01  0.24633610424E+03  0.25940058913E+03  0.80374191358E+02 0.  0.
         23    2    1    2    0    0  0.32216367260E+02  0.55921398310E+01 -0.12405465099E+03  0.15696824273E+03  0.90445046560E+02 0.  0.
         13    1    3    3    0    0  0.19505905619E+02 -0.36694111459E+02  0.16769623396E+03  0.17276853027E+03  0.00000000000E+00 0. -1.
        -14    1    3    3    0    0 -0.74256963325E+01  0.35577288495E+02  0.78639870286E+02  0.86632058854E+02  0.00000000000E+00 0.  1.
        -11    1    4    4    0    0  0.55868192525E+02  0.84973525691E+01 -0.39059353084E+02  0.68695654885E+02  0.00000000000E+00 0.  1.
         11    1    4    4    0    0 -0.23651825266E+02 -0.29052127381E+01 -0.84995297902E+02  0.88272587846E+02  0.00000000000E+00 0. -1.
         21    1    1    2  502  501 -0.44296576546E+02 -0.44753168668E+01 -0.65775890544E+02  0.79427217826E+02  0.00000000000E+00 0. -1.
<scales pt_clust_5="13000.00000" pt_clust_6="13000.00000" pt_clust_7="13000.00000" pt_clust_8="13000.00000" pt_clust_9="44.52207"></scales>
<clustering>
<clus scale="   44.522">  2  9  1 -1</clus>
<clus scale="   80.374">  5  6 -1 -1</clus>
<clus scale="   81.019">  1  5  2 -1</clus>
<clus scale="   90.445">  7  8 -1 -1</clus>
<clus scale="   44.522">  2  5  1 -1</clus>
</clustering>
</event>
<event>
 9    1  0.2674825E-005  0.1011044E+03  0.7546771E-02  0.1281685E+00
          1   -1    0    0  502    0  0.00000000000E+00  0.00000000000E+00  0.42223924079E+03  0.42223924079E+03  0.00000000000E+00 0. -1.
         -2   -1    0    0    0  501 -0.00000000000E+00 -0.00000000000E+00 -0.26003523374E+03  0.26003523374E+03  0.00000000000E+00 0.  1.
        -24    2    1    2    0    0  0.44393443405E+02  0.11986432910E+02 -0.23740424425E+03  0.25528577788E+03  0.81826650970E+02 0.  0.
         23    2    1    2    0    0 -0.75978980475E+02 -0.10163103301E+02  0.33235843547E+03  0.35266838709E+03  0.89648019938E+02 0.  0.
         13    1    3    3    0    0  0.47890810386E+02  0.36535122207E+02 -0.20935112281E+03  0.21784452597E+03  0.00000000000E+00 0. -1.
        -14    1    3    3    0    0 -0.34973669811E+01 -0.24548689298E+02 -0.28053121444E+02  0.37441251913E+02  0.00000000000E+00 0.  1.
        -11    1    4    4    0    0  0.10726592968E+02 -0.27479764320E+02  0.86959273128E+02  0.91826534437E+02  0.00000000000E+00 0.  1.
         11    1    4    4    0    0 -0.86705573444E+02  0.17316661019E+02  0.24539916234E+03  0.26084185265E+03  0.00000000000E+00 0. -1.
         21    1    1    2  502  501  0.31585537070E+02 -0.18233296091E+01  0.67249815839E+02  0.74320309561E+02  0.00000000000E+00 0. -1.
<scales pt_clust_5="13000.00000" pt_clust_6="13000.00000" pt_clust_7="13000.00000" pt_clust_8="13000.00000" pt_clust_9="31.63812"></scales>
<clustering>
<clus scale="   31.638">  1  9  2 -1</clus>
<clus scale="   81.827">  5  6 -1 -1</clus>
<clus scale="   89.648">  7  8 -1 -1</clus>
<clus scale="   94.239">  2  5  1 -1</clus>
<clus scale="   31.638">  1  5  2 -1</clus>
</clustering>
</event>
<event>
 9    1  0.2674825E-005  0.8898540E+02  0.7546771E-02  0.1305356E+00
         -2   -1    0    0    0  501 -0.00000000000E+00  0.00000000000E+00  0.17366131689E+03  0.17366131689E+03  0.00000000000E+00 0.  1.
          1   -1    0    0  502    0  0.00000000000E+00 -0.00000000000E+00 -0.15510013588E+03  0.15510013588E+03  0.00000000000E+00 0. -1.
         23    2    1    2    0    0  0.16476030071E+02  0.52812784789E+01  0.91534388852E+02  0.12608290901E+03  0.84964722879E+02 0.  0.
        -24    2    1    2    0    0 -0.49862333383E+02  0.14474952879E+02  0.20369967413E+02  0.10159490366E+03  0.84916502087E+02 0.  0.
         11    1    4    4    0    0 -0.32653195188E+02 -0.41397322533E+01 -0.30426821634E+02  0.44823654624E+02  0.00000000000E+00 0. -1.
        -12    1    4    4    0    0 -0.17209138195E+02  0.18614685132E+02  0.50796789047E+02  0.56771249039E+02  0.00000000000E+00 0.  1.
        -13    1    3    3    0    0  0.75846500828E+01  0.45091033885E+02  0.52566654510E+02  0.69670520452E+02  0.00000000000E+00 0.  1.
         13    1    3    3    0    0  0.88913799882E+01 -0.39809755406E+02  0.38967734342E+02  0.56412388563E+02  0.00000000000E+00 0. -1.
         21    1    1    2  502  501  0.33386303312E+02 -0.19756231358E+02 -0.93343175255E+02  0.10108364009E+03  0.00000000000E+00 0.  1.
<scales pt_clust_5="13000.00000" pt_clust_6="13000.00000" pt_clust_7="13000.00000" pt_clust_8="13000.00000" pt_clust_9="38.79374"></scales>
<clustering>
<clus scale="   38.794">  2  9  1 -1</clus>
<clus scale="   84.917">  5  6 -1 -1</clus>
<clus scale="   84.965">  7  8 -1 -1</clus>
<clus scale="   88.939">  2  5  1 -1</clus>
<clus scale="   38.794">  2  5  1 -1</clus>
</clustering>
</event>
<event>
 9    1  0.2674825E-005  0.1130770E+03  0.7546771E-02  0.1256715E+00
          3   -1    0    0  502    0  0.00000000000E+00  0.00000000000E+00  0.22582612633E+03  0.22582612633E+03  0.00000000000E+00 0. -1.
         -4   -1    0    0    0  501 -0.00000000000E+00 -0.00000000000E+00 -0.14215706103E+03  0.14215706103E+03  0.00000000000E+00 0.  1.
        -24    2    1    2    0    0 -0.10213995211E+02  0.73723131668E+02 -0.81743596068E+02  0.13919693344E+03  0.84583360899E+02 0.  0.
         23    2    1    2    0    0  0.18301533980E+02 -0.50374506151E+02  0.59594522582E+02  0.12012142478E+03  0.89471294577E+02 0.  0.
         13    1    3    3    0    0 -0.39746906550E+02  0.12660246191E+02 -0.15832004282E+02  0.44617830220E+02  0.00000000000E+00 0. -1.
        -14    1    3    3    0    0  0.29532911339E+02  0.61062885477E+02 -0.65911591786E+02  0.94579103224E+02  0.00000000000E+00 0.  1.
        -13    1    4    4    0    0  0.58505845826E+01 -0.67832579585E+02  0.13678195172E+02  0.69444806979E+02  0.00000000000E+00 0.  1.
         13    1    4    4    0    0  0.12450949398E+02  0.17458073434E+02  0.45916327410E+02  0.50676617801E+02  0.00000000000E+00 0. -1.
         21    1    1    2  502  501 -0.80875387690E+01 -0.23348625517E+02  0.10581813878E+03  0.10866482914E+03  0.00000000000E+00 0. -1.
<scales pt_clust_5="13000.00000" pt_clust_6="13000.00000" pt_clust_7="13000.00000" pt_clust_8="13000.00000" pt_clust_9="24.70965"></scales>
<clustering>
<clus scale="   24.710">  1  9  2 -1</clus>
<clus scale="   84.583">  5  6 -1 -1</clus>
<clus scale="   89.471">  7  8 -1 -1</clus>
<clus scale="  109.250">  2  5  1 -1</clus>
<clus scale="   24.710">  1  5  2 -1</clus>
</clustering>
</event>
<event>
 9    1  0.2674825E-005  0.9200864E+02  0.7546771E-02  0.1301079E+00
          1   -1    0    0  502    0  0.00000000000E+00  0.00000000000E+00  0.14951028956E+03  0.14951028956E+03  0.00000000000E+00 0. -1.
         -2   -1    0    0    0  501 -0.00000000000E+00 -0.00000000000E+00 -0.12198508251E+03  0.12198508251E+03  0.00000000000E+00 0.  1.
        -24    2    1    2    0    0 -0.95348163645E+01 -0.49454903088E+02 -0.73195731603E+02  0.11988773317E+03  0.80490703052E+02 0.  0.
         23    2    1    2    0    0 -0.10188265933E+02  0.22526909608E+02  0.80435141759E+02  0.11254832036E+03  0.74739882042E+02 0.  0.
         13    1    3    3    0    0  0.68917803433E+01  0.20168061449E+02 -0.28314248846E+02  0.35439300595E+02  0.00000000000E+00 0. -1.
        -14    1    3    3    0    0 -0.16426596708E+02 -0.69622964537E+02 -0.44881482757E+02  0.84448432578E+02  0.00000000000E+00 0.  1.
        -13    1    4    4    0    0  0.12767278715E+02 -0.23484817309E+02  0.21266618424E+02  0.34158587632E+02  0.00000000000E+00 0. -1.
         13    1    4    4    0    0 -0.22955544649E+02  0.46011726918E+02  0.59168523335E+02  0.78389732732E+02  0.00000000000E+00 0.  1.
         21    1    1    2  502  501  0.19723082298E+02  0.26927993480E+02  0.20285796896E+02  0.39059318528E+02  0.00000000000E+00 0.  1.
<scales pt_clust_5="13000.00000" pt_clust_6="13000.00000" pt_clust_7="13000.00000" pt_clust_8="13000.00000" pt_clust_9="33.37839"></scales>
<clustering>
<clus scale="   33.378">  1  9  2 -1</clus>
<clus scale="   74.740">  7  8 -1 -1</clus>
<clus scale="   80.491">  5  6 -1 -1</clus>
<clus scale="   87.022">  1  7  2 -1</clus>
<clus scale="   33.378">  1  5  2 -1</clus>
</clustering>
</event>
<event>
 9    1  0.2674825E-005  0.1203610E+03  0.7546771E-02  0.1246987E+00
          1   -1    0    0  502    0  0.00000000000E+00  0.00000000000E+00  0.21436381174E+03  0.21436381174E+03  0.00000000000E+00 0. -1.
         -2   -1    0    0    0  501 -0.00000000000E+00 -0.00000000000E+00 -0.41300861807E+03  0.41300861807E+03  0.00000000000E+00 0.  1.
        -24    2    1    2    0    0  0.59006083681E+02  0.48179392085E+02 -0.36345024039E+03  0.38027667537E+03  0.81922529608E+02 0.  0.
         23    2    1    2    0    0 -0.56806506085E+02 -0.11744925203E+00  0.48409968868E+02  0.12114857182E+03  0.95427765567E+02 0.  0.
         13    1    3    3    0    0  0.53341848145E+02 -0.57094315606E+01 -0.13027539341E+03  0.14088870963E+03  0.00000000000E+00 0. -1.
        -14    1    3    3    0    0  0.56642355366E+01  0.53888823646E+02 -0.23317484698E+03  0.23938796574E+03  0.00000000000E+00 0.  1.
        -13    1    4    4    0    0 -0.48788036694E+02 -0.34652641019E+02 -0.15795487258E+01  0.59862952051E+02  0.00000000000E+00 0. -1.
         13    1    4    4    0    0 -0.80184693912E+01  0.34535191767E+02  0.49989517593E+02  0.61285619773E+02  0.00000000000E+00 0.  1.
         21    1    1    2  502  501 -0.21995775962E+01 -0.48061942833E+02  0.11639546519E+03  0.12594718261E+03  0.00000000000E+00 0. -1.
<scales pt_clust_5="13000.00000" pt_clust_6="13000.00000" pt_clust_7="13000.00000" pt_clust_8="13000.00000" pt_clust_9="48.11225"></scales>
<clustering>
<clus scale="   48.112">  1  9  2 -1</clus>
<clus scale="   81.923">  5  6 -1 -1</clus>
<clus scale="   95.428">  7  8 -1 -1</clus>
<clus scale="  109.962">  2  5  1 -1</clus>
<clus scale="   48.112">  1  5  2 -1</clus>
</clustering>
</event>
<event>
 9    1  0.2674825E-005  0.9541782E+02  0.7546771E-02  0.1299137E+00
         -2   -1    0    0    0  501 -0.00000000000E+00  0.00000000000E+00  0.74293509901E+02  0.74293509901E+02  0.00000000000E+00 0.  1.
          1   -1    0    0  502    0  0.00000000000E+00 -0.00000000000E+00 -0.26823067588E+03  0.26823067588E+03  0.00000000000E+00 0. -1.
        -24    2    1    2    0    0 -0.15682682057E+01 -0.10874360925E+02  0.23147111055E+02  0.83497469877E+02  0.79469035071E+02 0.  0.
         23    2    1    2    0    0 -0.11656611782E+02 -0.16158189681E+02 -0.20518126899E+03  0.22666411645E+03  0.94235369408E+02 0.  0.
         11    1    3    3    0    0 -0.30187665004E+02  0.74309991171E+01  0.35645798809E+02  0.47298391506E+02  0.00000000000E+00 0. -1.
        -12    1    3    3    0    0  0.28619396799E+02 -0.18305360042E+02 -0.12498687754E+02  0.36199078372E+02  0.00000000000E+00 0.  1.
        -13    1    4    4    0    0  0.30359299431E+02 -0.37704701322E+02 -0.11740899601E+03  0.12699686574E+03  0.00000000000E+00 0.  1.
         13    1    4    4    0    0 -0.42015911213E+02  0.21546511641E+02 -0.87772272978E+02  0.99667250703E+02  0.00000000000E+00 0. -1.
         21    1    1    2  502  501  0.13224879988E+02  0.27032550606E+02 -0.11903008040E+02  0.32362599453E+02  0.00000000000E+00 0. -1.
<scales pt_clust_5="13000.00000" pt_clust_6="13000.00000" pt_clust_7="13000.00000" pt_clust_8="13000.00000" pt_clust_9="30.09412"></scales>
<clustering>
<clus scale="   30.094">  1  9  2 -1</clus>
<clus scale="   79.469">  5  6 -1 -1</clus>
<clus scale="   80.868">  1  5  2 -1</clus>
<clus scale="   94.235">  7  8 -1 -1</clus>
<clus scale="   95.418">  2  5  1 -1</clus>
</clustering>
</event>
<event>
 9    1  0.2674825E-005  0.1905366E+03  0.7546771E-02  0.1159279E+00
         -2   -1    0    0    0  501 -0.00000000000E+00  0.00000000000E+00  0.14327853655E+03  0.14327853655E+03  0.00000000000E+00 0.  1.
          1   -1    0    0  502    0  0.00000000000E+00 -0.00000000000E+00 -0.49511233488E+03  0.49511233488E+03  0.00000000000E+00 0. -1.
         23    2    1    2    0    0 -0.19055786093E+02 -0.11217542903E+03  0.15219355512E+02  0.14761549500E+03  0.92802239844E+02 0.  0.
        -24    2    1    2    0    0  0.69030217176E+02  0.17045968219E+03 -0.36187812165E+03  0.41382552986E+03  0.80461917091E+02 0.  0.
         11    1    4    4    0    0  0.65225622537E+02  0.13028262495E+03 -0.33506944650E+03  0.36537580404E+03  0.00000000000E+00 0. -1.
        -12    1    4    4    0    0  0.38045946389E+01  0.40177057242E+02 -0.26808675143E+02  0.48449725819E+02  0.00000000000E+00 0.  1.
        -13    1    3    3    0    0 -0.13648625858E+02 -0.25800274614E+02 -0.36546023849E+02  0.46771262727E+02  0.00000000000E+00 0. -1.
         13    1    3    3    0    0 -0.54071602348E+01 -0.86375154412E+02  0.51765379361E+02  0.10084423227E+03  0.00000000000E+00 0.  1.
         21    1    1    2  502  501 -0.49974431083E+02 -0.58284253165E+02 -0.51750321879E+01  0.76949846571E+02  0.00000000000E+00 0.  1.
<scales pt_clust_5="13000.00000" pt_clust_6="13000.00000" pt_clust_7="13000.00000" pt_clust_8="13000.00000" pt_clust_9="76.77563"></scales>
<clustering>
<clus scale="   76.776">  1  9  2 -1</clus>
<clus scale="   80.462">  5  6 -1 -1</clus>
<clus scale="   92.802">  7  8 -1 -1</clus>
<clus scale="  184.841">  2  5  1 -1</clus>
<clus scale="  184.841">  2  5  1 -1</clus>
</clustering>
</event>
<event>
 9    1  0.2674825E-005  0.2331918E+03  0.7546771E-02  0.1156693E+00
         -2   -1    0    0    0  501 -0.00000000000E+00  0.00000000000E+00  0.17965924433E+03  0.17965924433E+03  0.00000000000E+00 0.  1.
          1   -1    0    0  502    0  0.00000000000E+00 -0.00000000000E+00 -0.17001678584E+04  0.17001678584E+04  0.00000000000E+00 0. -1.
         23    2    1    2    0    0  0.18721697298E+02  0.52894146029E+02  0.12491973912E+03  0.16455236568E+03  0.91237312517E+02 0.  0.
        -24    2    1    2    0    0  0.10811030417E+03  0.16836654896E+03 -0.96015489577E+03  0.98408231151E+03  0.80532225135E+02 0.  0.
         13    1    4    4    0    0  0.12038929348E+03  0.16189359128E+03 -0.89265017240E+03  0.91516525675E+03  0.00000000000E+00 0. -1.
        -14    1    4    4    0    0 -0.12278989307E+02  0.64729576741E+01 -0.67504723376E+02  0.68917054765E+02  0.00000000000E+00 0.  1.
        -11    1    3    3    0    0  0.44121203758E+00  0.76807217246E+02  0.85107326844E+02  0.11464205324E+03  0.00000000000E+00 0.  1.
         11    1    3    3    0    0  0.18280485261E+02 -0.23913071217E+02  0.39812412272E+02  0.49910312434E+02  0.00000000000E+00 0. -1.
         21    1    1    2  502  501 -0.12683200147E+03 -0.22126069499E+03 -0.68527345741E+03  0.73119242555E+03  0.00000000000E+00 0.  1.
<scales pt_clust_5="13000.00000" pt_clust_6="13000.00000" pt_clust_7="13000.00000" pt_clust_8="13000.00000" pt_clust_9="218.84461"></scales>
<clustering>
<clus scale="   80.532">  5  6 -1 -1</clus>
<clus scale="   91.237">  7  8 -1 -1</clus>
<clus scale="  107.110">  1  7  2 -1</clus>
<clus scale="  218.845">  1  9  2 -1</clus>
<clus scale="  233.192">  2  5  1 -1</clus>
</clustering>
</event>
<event>
 9    1  0.2674825E-005  0.2387985E+03  0.7546771E-02  0.1121319E+00
          1   -1    0    0  502    0  0.00000000000E+00  0.00000000000E+00  0.71250973961E+02  0.71250973961E+02  0.00000000000E+00 0. -1.
         -2   -1    0    0    0  501 -0.00000000000E+00 -0.00000000000E+00 -0.11257071286E+04  0.11257071286E+04  0.00000000000E+00 0.  1.
        -24    2    1    2    0    0  0.30749948911E+02 -0.21886571257E+03 -0.71525945091E+03  0.75287668210E+03  0.79871502103E+02 0.  0.
         23    2    1    2    0    0 -0.67867750648E+02  0.21099851531E+03 -0.32420961254E+03  0.40328636072E+03  0.91660301307E+02 0.  0.
         11    1    3    3    0    0  0.41105555149E+02 -0.92246351936E+02 -0.22870690730E+03  0.25001181084E+03  0.00000000000E+00 0. -1.
        -12    1    3    3    0    0 -0.10355606237E+02 -0.12661936063E+03 -0.48655254360E+03  0.50286487127E+03  0.00000000000E+00 0.  1.
        -13    1    4    4    0    0  0.14266169440E+02  0.61499639955E+02 -0.50811003373E+02  0.81040035593E+02  0.00000000000E+00 0. -1.
         13    1    4    4    0    0 -0.82133920088E+02  0.14949887536E+03 -0.27339860917E+03  0.32224632513E+03  0.00000000000E+00 0.  1.
         21    1    1    2  502  501  0.37117801737E+02  0.78671972571E+01 -0.14987091222E+02  0.40795059771E+02  0.00000000000E+00 0. -1.
<scales pt_clust_5="13000.00000" pt_clust_6="13000.00000" pt_clust_7="13000.00000" pt_clust_8="13000.00000" pt_clust_9="37.94238"></scales>
<clustering>
<clus scale="   37.942">  1  9  2 -1</clus>
<clus scale="   79.872">  5  6 -1 -1</clus>
<clus scale="   91.660">  7  8 -1 -1</clus>
<clus scale="  234.526">  2  5  1 -1</clus>
<clus scale="   37.942">  1  5  2 -1</clus>
</clustering>
</event>
<event>
 9    1  0.2674825E-005  0.1087735E+03  0.7546771E-02  0.1266617E+00
         -2   -1    0    0    0  501 -0.00000000000E+00  0.00000000000E+00  0.36677657415E+02  0.36677657415E+02  0.00000000000E+00 0.  1.
          1   -1    0    0  502    0  0.00000000000E+00 -0.00000000000E+00 -0.78635815825E+03  0.78635815825E+03  0.00000000000E+00 0. -1.
         23    2    1    2    0    0 -0.27550493426E+02  0.61888366327E+01 -0.14040815631E+03  0.16955426906E+03  0.90757194816E+02 0.  0.
        -24    2    1    2    0    0  0.35471452516E+02  0.74677221972E+02 -0.51993719730E+03  0.53272215957E+03  0.81383651542E+02 0.  0.
         11    1    4    4    0    0  0.10600898192E+02  0.79964213088E+02 -0.27839935492E+03  0.28984971147E+03  0.00000000000E+00 0. -1.
        -12    1    4    4    0    0  0.24870554324E+02 -0.52869911168E+01 -0.24153784238E+03  0.24287244810E+03  0.00000000000E+00 0.  1.
        -13    1    3    3    0    0 -0.14813980910E+02 -0.32546056787E+02 -0.17018952651E+02  0.39602330640E+02  0.00000000000E+00 0.  1.
         13    1    3    3    0    0 -0.12736512516E+02  0.38734893420E+02 -0.12338920365E+03  0.12995193842E+03  0.00000000000E+00 0. -1.
         21    1    1    2  502  501 -0.79209590898E+01 -0.80866058604E+02 -0.89335147228E+02  0.12075938704E+03  0.00000000000E+00 0.  1.
<scales pt_clust_5="13000.00000" pt_clust_6="13000.00000" pt_clust_7="13000.00000" pt_clust_8="13000.00000" pt_clust_9="81.25307"></scales>
<clustering>
<clus scale="   81.253">  1  9  2 -1</clus>
<clus scale="   81.384">  5  6 -1 -1</clus>
<clus scale="   90.757">  7  8 -1 -1</clus>
<clus scale="  101.085">  2  5  1 -1</clus>
<clus scale="  101.085">  2  5  1 -1</clus>
</clustering>
</event>
<event>
 9    1  0.2674825E-005  0.1648714E+03  0.7546771E-02  0.1204111E+00
          1   -1    0    0  502    0  0.00000000000E+00  0.00000000000E+00  0.26990674914E+03  0.26990674914E+03  0.00000000000E+00 0. -1.
         -2   -1    0    0    0  501 -0.00000000000E+00 -0.00000000000E+00 -0.18989946000E+03  0.18989946000E+03  0.00000000000E+00 0.  1.
         23    2    1    2    0    0 -0.65700876663E+02  0.64554730988E+02  0.12273295006E+03  0.17858558826E+03  0.91353800241E+02 0.  0.
        -24    2    1    2    0    0 -0.16195633823E+02  0.63086844662E+02  0.35879841491E+02  0.11040424205E+03  0.81605668393E+02 0.  0.
         13    1    4    4    0    0 -0.45792572176E+02  0.35024510520E+02  0.25085388884E+01  0.57705881598E+02  0.00000000000E+00 0. -1.
        -14    1    4    4    0    0  0.29596938353E+02  0.28062334142E+02  0.33371302603E+02  0.52698360457E+02  0.00000000000E+00 0.  1.
        -11    1    3    3    0    0 -0.83255988104E+01  0.69446481024E+02  0.50809741108E+02  0.86450905800E+02  0.00000000000E+00 0.  1.
         11    1    3    3    0    0 -0.57375277853E+02 -0.48917500361E+01  0.71923208950E+02  0.92134682464E+02  0.00000000000E+00 0. -1.
         21    1    1    2  502  501  0.81896510486E+02 -0.12764157565E+03 -0.78605502415E+02  0.17081637882E+03  0.00000000000E+00 0.  1.
<scales pt_clust_5="13000.00000" pt_clust_6="13000.00000" pt_clust_7="13000.00000" pt_clust_8="13000.00000" pt_clust_9="137.24817"></scales>
<clustering>
<clus scale="   81.606">  5  6 -1 -1</clus>
<clus scale="   91.354">  7  8 -1 -1</clus>
<clus scale="  104.411">  1  5  2 -1</clus>
<clus scale="  137.248">  2  9  1 -1</clus>
<clus scale="  104.411">  1  5  2 -1</clus>
</clustering>
</event>
<event>
 9    1  0.2674825E-005  0.1036653E+03  0.7546771E-02  0.1278332E+00
          1   -1    0    0  502    0  0.00000000000E+00  0.00000000000E+00  0.40756614832E+03  0.40756614832E+03  0.00000000000E+00 0. -1.
         -2   -1    0    0    0  501 -0.00000000000E+00 -0.00000000000E+00 -0.63246623577E+02  0.63246623577E+02  0.00000000000E+00 0.  1.
         23    2    1    2    0    0  0.26821682710E+01 -0.35682365157E+02  0.16403954243E+02  0.10074212128E+03  0.92733273829E+02 0.  0.
        -24    2    1    2    0    0  0.76635944259E+01  0.86005479749E+02  0.20213464598E+03  0.23420199477E+03  0.80848537550E+02 0.  0.
         13    1    4    4    0    0 -0.18229617052E+02 -0.84070736545E+01  0.28320941878E+02  0.34714169645E+02  0.00000000000E+00 0. -1.
        -14    1    4    4    0    0  0.25893211478E+02  0.94412553403E+02  0.17381370410E+03  0.19948782512E+03  0.00000000000E+00 0.  1.
        -13    1    3    3    0    0  0.25695583136E+02  0.13798322909E+02 -0.19801962963E+02  0.35253006184E+02  0.00000000000E+00 0.  1.
         13    1    3    3    0    0 -0.23013414865E+02 -0.49480688066E+02  0.36205917205E+02  0.65489115095E+02  0.00000000000E+00 0. -1.
         21    1    1    2  502  501 -0.10345762697E+02 -0.50323114591E+02  0.12578092452E+03  0.13586865585E+03  0.00000000000E+00 0.  1.
<scales pt_clust_5="13000.00000" pt_clust_6="13000.00000" pt_clust_7="13000.00000" pt_clust_8="13000.00000" pt_clust_9="51.37558"></scales>
<clustering>
<clus scale="   51.376">  1  9  2 -1</clus>
<clus scale="   80.849">  5  6 -1 -1</clus>
<clus scale="   92.733">  7  8 -1 -1</clus>
<clus scale="   93.185">  1  5  2 -1</clus>
<clus scale="   51.376">  1  5  2 -1</clus>
</clustering>
</event>
<event>
 9    1  0.2674825E-005  0.9476901E+02  0.7546771E-02  0.1300212E+00
          1   -1    0    0  502    0  0.00000000000E+00  0.00000000000E+00  0.12660818493E+03  0.12660818493E+03  0.00000000000E+00 0. -1.
         -2   -1    0    0    0  501 -0.00000000000E+00 -0.00000000000E+00 -0.19241846162E+03  0.19241846162E+03  0.00000000000E+00 0.  1.
        -24    2    1    2    0    0 -0.46143855592E+01  0.10546826351E+02 -0.14771860996E+03  0.16857399350E+03  0.80398230424E+02 0.  0.
         23    2    1    2    0    0  0.84060018397E+01  0.12943471757E+02  0.42909719699E+02  0.10476827586E+03  0.94323662213E+02 0.  0.
         11    1    3    3    0    0 -0.18903698816E+02 -0.31540246519E+02 -0.66710592241E+02  0.76173749393E+02  0.00000000000E+00 0. -1.
        -12    1    3    3    0    0  0.14289313257E+02  0.42087072869E+02 -0.81008017717E+02  0.92400244104E+02  0.00000000000E+00 0.  1.
        -11    1    4    4    0    0 -0.36655723267E+02  0.28987249836E+02  0.13604149346E+02  0.48672123240E+02  0.00000000000E+00 0.  1.
         11    1    4    4    0    0  0.45061725107E+02 -0.16043778079E+02  0.29305570353E+02  0.56096152617E+02  0.00000000000E+00 0. -1.
         21    1    1    2  502  501 -0.37916162805E+01 -0.23490298108E+02  0.38998613568E+02  0.45684377192E+02  0.00000000000E+00 0. -1.
<scales pt_clust_5="13000.00000" pt_clust_6="13000.00000" pt_clust_7="13000.00000" pt_clust_8="13000.00000" pt_clust_9="23.79434"></scales>
<clustering>
<clus scale="   23.794">  1  9  2 -1</clus>
<clus scale="   80.398">  5  6 -1 -1</clus>
<clus scale="   80.920">  2  5  1 -1</clus>
<clus scale="   94.324">  7  8 -1 -1</clus>
<clus scale="   23.794">  1  5  2 -1</clus>
</clustering>
</event>
<event>
 9    1  0.2674825E-005  0.1254188E+03  0.7546771E-02  0.1244906E+00
          1   -1    0    0  502    0  0.00000000000E+00  0.00000000000E+00  0.11263010150E+03  0.11263010150E+03  0.00000000000E+00 0. -1.
         -2   -1    0    0    0  501 -0.00000000000E+00 -0.00000000000E+00 -0.19552941712E+03  0.19552941712E+03  0.00000000000E+00 0.  1.
         23    2    1    2    0    0 -0.52479896254E+02 -0.30318117940E+02 -0.11335203291E+03  0.16880929171E+03  0.10942835929E+03 0.  0.
        -24    2    1    2    0    0  0.37965896938E+02  0.56122492287E+02  0.30624154211E+02  0.10974361782E+03  0.80713563666E+02 0.  0.
         13    1    4    4    0    0  0.27527364632E+02  0.16670943168E+02 -0.25002514865E+02  0.40752937309E+02  0.00000000000E+00 0. -1.
        -14    1    4    4    0    0  0.10438532306E+02  0.39451549118E+02  0.55626669076E+02  0.68990680508E+02  0.00000000000E+00 0.  1.
        -13    1    3    3    0    0  0.17720607225E+02  0.22410487532E+02 -0.58989846961E+02  0.65544274474E+02  0.00000000000E+00 0.  1.
         13    1    3    3    0    0 -0.70200503479E+02 -0.52728605472E+02 -0.54362185947E+02  0.10326501724E+03  0.00000000000E+00 0. -1.
         21    1    1    2  502  501  0.14513999316E+02 -0.25804374347E+02 -0.17143691921E+00  0.29606609097E+02  0.00000000000E+00 0. -1.
<scales pt_clust_5="13000.00000" pt_clust_6="13000.00000" pt_clust_7="13000.00000" pt_clust_8="13000.00000" pt_clust_9="29.60611"></scales>
<clustering>
<clus scale="   29.606">  1  9  2 -1</clus>
<clus scale="   80.714">  5  6 -1 -1</clus>
<clus scale="  101.341">  1  5  2 -1</clus>
<clus scale="  109.428">  7  8 -1 -1</clus>
<clus scale="   29.606">  1  5  2 -1</clus>
</clustering>
</event>
<event>
 9    1  0.2674825E-005  0.1001679E+03  0.7546771E-02  0.1283836E+00
          1   -1    0    0  502    0  0.00000000000E+00  0.00000000000E+00  0.90568148866E+02  0.90568148866E+02  0.00000000000E+00 0. -1.
         -2   -1    0    0    0  501 -0.00000000000E+00 -0.00000000000E+00 -0.16359720421E+03  0.16359720421E+03  0.00000000000E+00 0.  1.
        -24    2    1    2    0    0  0.42000573785E+02  0.18813193145E+02 -0.64219518228E+02  0.11312441689E+03  0.80962971420E+02 0.  0.
         23    2    1    2    0    0 -0.30147210339E+02 -0.38515454979E+02 -0.33795957345E+02  0.10708504505E+03  0.89065961945E+02 0.  0.
         13    1    3    3    0    0  0.12602334872E+02  0.35782499714E+02  0.27574459027E+01  0.38036950955E+02  0.00000000000E+00 0. -1.
        -14    1    3    3    0    0  0.29398238914E+02 -0.16969306570E+02 -0.66976964131E+02  0.75087465937E+02  0.00000000000E+00 0.  1.
        -13    1    4    4    0    0  0.21767430455E+02 -0.40611520476E+02 -0.30014271072E+02  0.54990663680E+02  0.00000000000E+00 0.  1.
         13    1    4    4    0    0 -0.51914640794E+02  0.20960654971E+01 -0.37816862733E+01  0.52094381370E+02  0.00000000000E+00 0. -1.
         21    1    1    2  502  501 -0.11853363447E+02  0.19702261834E+02  0.24986420233E+02  0.33955891130E+02  0.00000000000E+00 0. -1.
<scales pt_clust_5="13000.00000" pt_clust_6="13000.00000" pt_clust_7="13000.00000" pt_clust_8="13000.00000" pt_clust_9="22.99307"></scales>
<clustering>
<clus scale="   22.993">  1  9  2 -1</clus>
<clus scale="   80.963">  5  6 -1 -1</clus>
<clus scale="   89.066">  7  8 -1 -1</clus>
<clus scale="   93.037">  2  5  1 -1</clus>
<clus scale="   22.993">  1  5  2 -1</clus>
</clustering>
</event>
<event>
 9    1  0.2674825E-005  0.1825437E+03  0.7546771E-02  0.1166654E+00
          1   -1    0    0  502    0  0.00000000000E+00  0.00000000000E+00  0.10150853420E+03  0.10150853420E+03  0.00000000000E+00 0. -1.
         -2   -1    0    0    0  501 -0.00000000000E+00 -0.00000000000E+00 -0.39014529452E+03  0.39014529452E+03  0.00000000000E+00 0.  1.
        -24    2    1    2    0    0  0.65245319687E+02 -0.14330479560E+03 -0.16990271007E+03  0.24486276607E+03  0.79357590292E+02 0.  0.
         23    2    1    2    0    0 -0.85675669979E+02  0.13575581343E+03 -0.12658658581E+03  0.22363833798E+03  0.90664111965E+02 0.  0.
         13    1    3    3    0    0  0.39598533660E+02 -0.12811932265E+03 -0.95262913027E+02  0.16449202809E+03  0.00000000000E+00 0. -1.
        -14    1    3    3    0    0  0.25646786026E+02 -0.15185472946E+02 -0.74639797043E+02  0.80370737988E+02  0.00000000000E+00 0.  1.
        -13    1    4    4    0    0 -0.85080721641E+02  0.62896314076E+02 -0.47115144087E+02  0.11582103575E+03  0.00000000000E+00 0. -1.
         13    1    4    4    0    0 -0.59494833831E+00  0.72859499357E+02 -0.79471441728E+02  0.10781730223E+03  0.00000000000E+00 0.  1.
         21    1    1    2  502  501  0.20430350292E+02  0.75489821670E+01  0.78525355699E+01  0.23152724671E+02  0.00000000000E+00 0.  1.
<scales pt_clust_5="13000.00000" pt_clust_6="13000.00000" pt_clust_7="13000.00000" pt_clust_8="13000.00000" pt_clust_9="21.78041"></scales>
<clustering>
<clus scale="   21.780">  1  9  2 -1</clus>
<clus scale="   79.358">  5  6 -1 -1</clus>
<clus scale="   90.664">  7  8 -1 -1</clus>
<clus scale="  177.200">  2  5  1 -1</clus>
<clus scale="   21.780">  1  5  2 -1</clus>
</clustering>
</event>
<event>
 9    1  0.2674825E-005  0.1842116E+03  0.7546771E-02  0.1164158E+00
          1   -1    0    0  502    0  0.00000000000E+00  0.00000000000E+00  0.45567929438E+03  0.45567929438E+03  0.00000000000E+00 0. -1.
         -2   -1    0    0    0  501 -0.00000000000E+00 -0.00000000000E+00 -0.19869522520E+03  0.19869522520E+03  0.00000000000E+00 0.  1.
        -24    2    1    2    0    0 -0.11195185987E+03 -0.12338046948E+03 -0.10703039692E+03  0.21610559672E+03  0.86545732938E+02 0.  0.
         23    2    1    2    0    0  0.81810363033E+02  0.11493093202E+03  0.15859179839E+03  0.23047484951E+03  0.89806698551E+02 0.  0.
         11    1    3    3    0    0 -0.27361729031E+02 -0.91573518622E+02 -0.40090830960E+02  0.10364192325E+03  0.00000000000E+00 0. -1.
        -12    1    3    3    0    0 -0.84590130839E+02 -0.31806950861E+02 -0.66939565961E+02  0.11246367347E+03  0.00000000000E+00 0.  1.
        -11    1    4    4    0    0  0.46226161981E+02  0.19515425846E+02  0.11343600276E+02  0.51443047778E+02  0.00000000000E+00 0.  1.
         11    1    4    4    0    0  0.35584201052E+02  0.95415506170E+02  0.14724819812E+03  0.17903180173E+03  0.00000000000E+00 0. -1.
         21    1    1    2  502  501  0.30141496837E+02  0.84495374678E+01  0.20542266771E+03  0.20779407336E+03  0.00000000000E+00 0. -1.
<scales pt_clust_5="13000.00000" pt_clust_6="13000.00000" pt_clust_7="13000.00000" pt_clust_8="13000.00000" pt_clust_9="31.30343"></scales>
<clustering>
<clus scale="   31.303">  1  9  2 -1</clus>
<clus scale="   86.546">  5  6 -1 -1</clus>
<clus scale="   89.807">  7  8 -1 -1</clus>
<clus scale="  182.644">  2  5  1 -1</clus>
<clus scale="   31.303">  1  5  2 -1</clus>
</clustering>
</event>
<event>
 9    1  0.2674825E-005  0.1018348E+03  0.7546771E-02  0.1282543E+00
          1   -1    0    0  502    0  0.00000000000E+00  0.00000000000E+00  0.19703573532E+03  0.19703573532E+03  0.00000000000E+00 0. -1.
         -2   -1    0    0    0  501 -0.00000000000E+00 -0.00000000000E+00 -0.19836419582E+03  0.19836419582E+03  0.00000000000E+00 0.  1.
         23    2    1    2    0    0 -0.15688051277E+02 -0.37267613129E+02 -0.12877779561E+03  0.16291752260E+03  0.91232716649E+02 0.  0.
        -24    2    1    2    0    0 -0.30001682294E+02  0.90948105218E+02  0.82623324963E+02  0.14894488302E+03  0.78653070922E+02 0.  0.
         11    1    4    4    0    0 -0.45802689867E+02  0.81233201099E+02  0.89410517837E+02  0.12919349852E+03  0.00000000000E+00 0. -1.
        -12    1    4    4    0    0  0.15801007573E+02  0.97149041189E+01 -0.67871928746E+01  0.19751384496E+02  0.00000000000E+00 0.  1.
        -11    1    3    3    0    0 -0.61674748626E+01 -0.60902291273E+02 -0.12208680397E+03  0.13657347668E+03  0.00000000000E+00 0.  1.
         11    1    3    3    0    0 -0.95205764141E+01  0.23634678144E+02 -0.66909916335E+01  0.26344045917E+02  0.00000000000E+00 0. -1.
         21    1    1    2  502  501  0.45689733570E+02 -0.53680492088E+02  0.44826010144E+02  0.83537525520E+02  0.00000000000E+00 0.  1.
<scales pt_clust_5="13000.00000" pt_clust_6="13000.00000" pt_clust_7="13000.00000" pt_clust_8="13000.00000" pt_clust_9="70.49218"></scales>
<clustering>
<clus scale="   70.492">  1  9  2 -1</clus>
<clus scale="   78.653">  5  6 -1 -1</clus>
<clus scale="   90.737">  1  5  2 -1</clus>
<clus scale="   91.233">  7  8 -1 -1</clus>
<clus scale="   70.492">  1  5  2 -1</clus>
</clustering>
</event>
<event>
 9    1  0.2674825E-005  0.1147460E+03  0.7546771E-02  0.1253754E+00
          1   -1    0    0  502    0  0.00000000000E+00  0.00000000000E+00  0.35801865537E+03  0.35801865537E+03  0.00000000000E+00 0. -1.
         -2   -1    0    0    0  501 -0.00000000000E+00 -0.00000000000E+00 -0.10768599061E+03  0.10768599061E+03  0.00000000000E+00 0.  1.
        -24    2    1    2    0    0  0.10098759090E+02  0.81549331908E+02 -0.45363646512E+02  0.12777015782E+03  0.86689528395E+02 0.  0.
         23    2    1    2    0    0  0.75830922656E+01 -0.25685674033E+02  0.12371696254E+03  0.15624713986E+03  0.91597078326E+02 0.  0.
         13    1    3    3    0    0 -0.36205970827E+02  0.47324248739E+02 -0.10634301358E+02  0.60527226994E+02  0.00000000000E+00 0. -1.
        -14    1    3    3    0    0  0.46304729917E+02  0.34225083169E+02 -0.34729345154E+02  0.67242930821E+02  0.00000000000E+00 0.  1.
        -13    1    4    4    0    0 -0.39652586699E+02 -0.24542937085E+02  0.75484388190E+02  0.88727539428E+02  0.00000000000E+00 0. -1.
         13    1    4    4    0    0  0.47235678964E+02 -0.11427369479E+01  0.48232574346E+02  0.67519600436E+02  0.00000000000E+00 0.  1.
         21    1    1    2  502  501 -0.17681851355E+02 -0.55863657875E+02  0.17197934874E+03  0.18168734830E+03  0.00000000000E+00 0. -1.
<scales pt_clust_5="13000.00000" pt_clust_6="13000.00000" pt_clust_7="13000.00000" pt_clust_8="13000.00000" pt_clust_9="58.59519"></scales>
<clustering>
<clus scale="   58.595">  1  9  2 -1</clus>
<clus scale="   86.690">  5  6 -1 -1</clus>
<clus scale="   91.597">  7  8 -1 -1</clus>
<clus scale="  110.868">  2  5  1 -1</clus>
<clus scale="   58.595">  1  5  2 -1</clus>
</clustering>
</event>
<event>
 9    1  0.2674825E-005  0.2121912E+03  0.7546771E-02  0.1140632E+00
         -2   -1    0    0    0  501 -0.00000000000E+00  0.00000000000E+00  0.10910677310E+03  0.10910677310E+03  0.00000000000E+00 0.  1.
          1   -1    0    0  502    0  0.00000000000E+00 -0.00000000000E+00 -0.11249730163E+04  0.11249730163E+04  0.00000000000E+00 0. -1.
         23    2    1    2    0    0 -0.95029788312E+02 -0.16916427172E+03 -0.23244209691E+02  0.21585274357E+03  0.91678253302E+02 0.  0.
        -24    2    1    2    0    0  0.10648748530E+03  0.13689802679E+03 -0.87098042531E+03  0.89185825923E+03  0.81997554900E+02 0.  0.
         11    1    4    4    0    0  0.86255119498E+02  0.10879429606E+03 -0.80929151273E+03  0.82111442386E+03  0.00000000000E+00 0. -1.
        -12    1    4    4    0    0  0.20232365799E+02  0.28103730727E+02 -0.61688912579E+02  0.70743835363E+02  0.00000000000E+00 0.  1.
        -13    1    3    3    0    0  0.10676066397E+02 -0.31724475746E+02 -0.26092917589E+02  0.42441266514E+02  0.00000000000E+00 0. -1.
         13    1    3    3    0    0 -0.10570585471E+03 -0.13743979598E+03  0.28487078971E+01  0.17341147706E+03  0.00000000000E+00 0.  1.
         21    1    1    2  502  501 -0.11457696985E+02  0.32266244938E+02 -0.12164160825E+03  0.12636878665E+03  0.00000000000E+00 0. -1.
<scales pt_clust_5="13000.00000" pt_clust_6="13000.00000" pt_clust_7="13000.00000" pt_clust_8="13000.00000" pt_clust_9="34.24017"></scales>
<clustering>
<clus scale="   34.240">  2  9  1 -1</clus>
<clus scale="   81.998">  5  6 -1 -1</clus>
<clus scale="   91.678">  7  8 -1 -1</clus>
<clus scale="  208.192">  2  5  1 -1</clus>
<clus scale="   34.240">  2  5  1 -1</clus>
</clustering>
</event>
<event>
 9    1  0.2674825E-005  0.9390235E+02  0.7546771E-02  0.1299678E+00
          1   -1    0    0  502    0  0.00000000000E+00  0.00000000000E+00  0.28292393736E+03  0.28292393736E+03  0.00000000000E+00 0. -1.
         -2   -1    0    0    0  501 -0.00000000000E+00 -0.00000000000E+00 -0.58439514281E+02  0.58439514281E+02  0.00000000000E+00 0.  1.
         23    2    1    2    0    0 -0.18698781015E+02  0.21567192172E+02  0.72361326307E+01  0.95780902231E+02  0.91141820407E+02 0.  0.
        -24    2    1    2    0    0  0.96637585252E+01 -0.17466493209E+01  0.11445874995E+03  0.14051031146E+03  0.80906756058E+02 0.  0.
         11    1    4    4    0    0  0.12411115236E+02 -0.21335600674E+02  0.11787956767E+03  0.12043602498E+03  0.00000000000E+00 0. -1.
        -12    1    4    4    0    0 -0.27473567104E+01  0.19588951353E+02 -0.34208177274E+01  0.20074286486E+02  0.00000000000E+00 0.  1.
        -11    1    3    3    0    0  0.29279351973E+02  0.13210123457E+01  0.27223531813E+02  0.40001827582E+02  0.00000000000E+00 0.  1.
         11    1    3    3    0    0 -0.47978132988E+02  0.20246179826E+02 -0.19987399182E+02  0.55779074648E+02  0.00000000000E+00 0. -1.
         21    1    1    2  502  501  0.90350224895E+01 -0.19820542851E+02  0.10278954050E+03  0.10507223795E+03  0.00000000000E+00 0. -1.
<scales pt_clust_5="13000.00000" pt_clust_6="13000.00000" pt_clust_7="13000.00000" pt_clust_8="13000.00000" pt_clust_9="21.78269"></scales>
<clustering>
<clus scale="   21.783">  1  9  2 -1</clus>
<clus scale="   80.907">  5  6 -1 -1</clus>
<clus scale="   84.004">  1  5  2 -1</clus>
<clus scale="   91.142">  7  8 -1 -1</clus>
<clus scale="   21.783">  1  5  2 -1</clus>
</clustering>
</event>
<event>
 9    1  0.2674825E-005  0.1397968E+03  0.7546771E-02  0.1215875E+00
         -4   -1    0    0    0  501 -0.00000000000E+00  0.00000000000E+00  0.98954875698E+02  0.98954875698E+02  0.00000000000E+00 0.  1.
          3   -1    0    0  502    0  0.00000000000E+00 -0.00000000000E+00 -0.42757517697E+03  0.42757517697E+03  0.00000000000E+00 0. -1.
        -24    2    1    2    0    0  0.10073047750E+03  0.48591666259E+02  0.18595241731E+02  0.13876916675E+03  0.80020744174E+02 0.  0.
         23    2    1    2    0    0 -0.64220559168E+02 -0.62703174131E+02 -0.21584116907E+03  0.25067939586E+03  0.90536075559E+02 0.  0.
         11    1    3    3    0    0  0.78373628309E+02 -0.49993813526E+01  0.18583514032E+02  0.80701712634E+02  0.00000000000E+00 0. -1.
        -12    1    3    3    0    0  0.22356849187E+02  0.53591047611E+02  0.11727699733E-01  0.58067454113E+02  0.00000000000E+00 0.  1.
        -11    1    4    4    0    0 -0.27275298128E+02 -0.38480108841E+02 -0.19714380155E+03  0.20270752121E+03  0.00000000000E+00 0. -1.
         11    1    4    4    0    0 -0.36945261040E+02 -0.24223065290E+02 -0.18697367515E+02  0.47971874649E+02  0.00000000000E+00 0.  1.
         21    1    1    2  502  501 -0.36509918328E+02  0.14111507872E+02 -0.13137437394E+03  0.13708149006E+03  0.00000000000E+00 0.  1.
<scales pt_clust_5="13000.00000" pt_clust_6="13000.00000" pt_clust_7="13000.00000" pt_clust_8="13000.00000" pt_clust_9="39.14216"></scales>
<clustering>
<clus scale="   39.142">  2  9  1 -1</clus>
<clus scale="   80.021">  5  6 -1 -1</clus>
<clus scale="   90.536">  7  8 -1 -1</clus>
<clus scale="  133.228">  1  5  2 -1</clus>
<clus scale="   39.142">  2  5  1 -1</clus>
</clustering>
</event>
<event>
 9    1  0.2674825E-005  0.1830055E+03  0.7546771E-02  0.1165962E+00
         -2   -1    0    0    0  501 -0.00000000000E+00  0.00000000000E+00  0.32805497419E+03  0.32805497419E+03  0.00000000000E+00 0.  1.
          1   -1    0    0  502    0  0.00000000000E+00 -0.00000000000E+00 -0.11730599220E+03  0.11730599220E+03  0.00000000000E+00 0. -1.
         23    2    1    2    0    0 -0.61620790675E+02 -0.15537519409E+03  0.15832355089E+03  0.24736369213E+03  0.90464781185E+02 0.  0.
        -24    2    1    2    0    0  0.63809770410E+02  0.13323071756E+03  0.47383799594E+02  0.17518088714E+03  0.81369575724E+02 0.  0.
         13    1    4    4    0    0  0.35379173543E+02  0.35303206684E+02 -0.19039761160E+02  0.53483780979E+02  0.00000000000E+00 0. -1.
        -14    1    4    4    0    0  0.28430596867E+02  0.97927510874E+02  0.66423560754E+02  0.12169710616E+03  0.00000000000E+00 0.  1.
        -13    1    3    3    0    0 -0.56706674842E+02 -0.59762804053E+02  0.30916241579E+02  0.87994623206E+02  0.00000000000E+00 0. -1.
         13    1    3    3    0    0 -0.49141158329E+01 -0.95612390035E+02  0.12740730931E+03  0.15936906892E+03  0.00000000000E+00 0.  1.
         21    1    1    2  502  501 -0.21889797346E+01  0.22144476530E+02  0.50416315055E+01  0.22816387122E+02  0.00000000000E+00 0.  1.
<scales pt_clust_5="13000.00000" pt_clust_6="13000.00000" pt_clust_7="13000.00000" pt_clust_8="13000.00000" pt_clust_9="22.25240"></scales>
<clustering>
<clus scale="   22.252">  2  9  1 -1</clus>
<clus scale="   81.370">  5  6 -1 -1</clus>
<clus scale="   90.465">  7  8 -1 -1</clus>
<clus scale="  178.684">  2  5  1 -1</clus>
<clus scale="   22.252">  2  5  1 -1</clus>
</clustering>
</event>
<event>
 9    1  0.2674825E-005  0.1321923E+03  0.7546771E-02  0.1227485E+00
         -4   -1    0    0    0  501 -0.00000000000E+00  0.00000000000E+00  0.25903481049E+03  0.25903481049E+03  0.00000000000E+00 0.  1.
          3   -1    0    0  502    0  0.00000000000E+00 -0.00000000000E+00 -0.17965300684E+03  0.17965300684E+03  0.00000000000E+00 0. -1.
        -24    2    1    2    0    0 -0.29282327385E+02  0.10716372099E+03  0.11723565296E+03  0.17973048005E+03  0.78850043374E+02 0.  0.
         23    2    1    2    0    0  0.85605156968E+02 -0.47330099307E+02 -0.90094394923E+02  0.16158486672E+03  0.91783919920E+02 0.  0.
         11    1    3    3    0    0  0.25663398137E+02  0.17500686978E+02  0.27599788998E+02  0.41552766471E+02  0.00000000000E+00 0. -1.
        -12    1    3    3    0    0 -0.54945725521E+02  0.89663034017E+02  0.89635863960E+02  0.13817771358E+03  0.00000000000E+00 0.  1.
        -13    1    4    4    0    0  0.63033614821E+02 -0.26230779352E+01 -0.55650571257E+01  0.63333142951E+02  0.00000000000E+00 0.  1.
         13    1    4    4    0    0  0.22571542148E+02 -0.44707021372E+02 -0.84529337797E+02  0.98251723767E+02  0.00000000000E+00 0. -1.
         21    1    1    2  502  501 -0.56322829584E+02 -0.59833621687E+02  0.52240545617E+02  0.97372470559E+02  0.00000000000E+00 0.  1.
<scales pt_clust_5="13000.00000" pt_clust_6="13000.00000" pt_clust_7="13000.00000" pt_clust_8="13000.00000" pt_clust_9="82.17252"></scales>
<clustering>
<clus scale="   78.850">  5  6 -1 -1</clus>
<clus scale="   82.173">  1  9  2 -1</clus>
<clus scale="   91.784">  7  8 -1 -1</clus>
<clus scale="  123.563">  1  5  2 -1</clus>
<clus scale="  132.192">  2  5  1 -1</clus>
</clustering>
</event>
<event>
 9    1  0.2674825E-005  0.1075714E+03  0.7546771E-02  0.1268903E+00
         -2   -1    0    0    0  501 -0.00000000000E+00  0.00000000000E+00  0.50429086159E+02  0.50429086159E+02  0.00000000000E+00 0.  1.
          1   -1    0    0  502    0  0.00000000000E+00 -0.00000000000E+00 -0.62891650547E+03  0.62891650547E+03  0.00000000000E+00 0. -1.
         23    2    1    2    0    0  0.37202452785E+02 -0.54754613065E+02 -0.70632051897E+02  0.13261504117E+03  0.90640897187E+02 0.  0.
        -24    2    1    2    0    0  0.12036503026E+02  0.56616545300E+02 -0.12187337799E+03  0.15761612292E+03  0.81482583020E+02 0.  0.
         13    1    4    4    0    0 -0.27164521822E+02  0.48778959733E+02 -0.92363212167E+02  0.10792711022E+03  0.00000000000E+00 0. -1.
        -14    1    4    4    0    0  0.39201024847E+02  0.78375855671E+01 -0.29510165825E+02  0.49689012705E+02  0.00000000000E+00 0.  1.
        -13    1    3    3    0    0 -0.27832130292E+02 -0.14763248288E+02 -0.38589332148E+02  0.49816839846E+02  0.00000000000E+00 0. -1.
         13    1    3    3    0    0  0.65034583077E+02 -0.39991364778E+02 -0.32042719749E+02  0.82798201319E+02  0.00000000000E+00 0.  1.
         21    1    1    2  502  501 -0.49238955811E+02 -0.18619322344E+01 -0.38598198942E+03  0.38911442754E+03  0.00000000000E+00 0. -1.
<scales pt_clust_5="13000.00000" pt_clust_6="13000.00000" pt_clust_7="13000.00000" pt_clust_8="13000.00000" pt_clust_9="49.27415"></scales>
<clustering>
<clus scale="   49.274">  2  9  1 -1</clus>
<clus scale="   81.483">  5  6 -1 -1</clus>
<clus scale="   90.641">  7  8 -1 -1</clus>
<clus scale="   99.976">  2  5  1 -1</clus>
<clus scale="   49.274">  2  5  1 -1</clus>
</clustering>
</event>
<event>
 9    1  0.2674825E-005  0.1031379E+03  0.7546771E-02  0.1279612E+00
          3   -1    0    0  502    0  0.00000000000E+00  0.00000000000E+00  0.21954812802E+03  0.21954812802E+03  0.00000000000E+00 0. -1.
         -4   -1    0    0    0  501 -0.00000000000E+00 -0.00000000000E+00 -0.15216418641E+03  0.15216418641E+03  0.00000000000E+00 0.  1.
         23    2    1    2    0    0  0.48181627643E+02  0.19048480720E+01 -0.86134951616E+02  0.13444579558E+03  0.91276198264E+02 0.  0.
        -24    2    1    2    0    0 -0.43036810413E+02  0.63228490290E+02  0.12370240079E+03  0.16544838652E+03  0.78872527563E+02 0.  0.
         11    1    4    4    0    0 -0.30766985492E+02  0.78151724482E+02  0.11884373742E+03  0.14552708806E+03  0.00000000000E+00 0. -1.
        -12    1    4    4    0    0 -0.12269824920E+02 -0.14923234191E+02  0.48586633701E+01  0.19921298453E+02  0.00000000000E+00 0.  1.
        -13    1    3    3    0    0  0.33872043113E+02  0.40373222787E+02 -0.75452569480E+02  0.92034790509E+02  0.00000000000E+00 0.  1.
         13    1    3    3    0    0  0.14309584530E+02 -0.38468374715E+02 -0.10682382135E+02  0.42411005066E+02  0.00000000000E+00 0. -1.
         21    1    1    2  502  501 -0.51448172303E+01 -0.65133338362E+02  0.29816492433E+02  0.71818132332E+02  0.00000000000E+00 0. -1.
<scales pt_clust_5="13000.00000" pt_clust_6="13000.00000" pt_clust_7="13000.00000" pt_clust_8="13000.00000" pt_clust_9="65.33621"></scales>
<clustering>
<clus scale="   65.336">  1  9  2 -1</clus>
<clus scale="   78.873">  5  6 -1 -1</clus>
<clus scale="   91.276">  7  8 -1 -1</clus>
<clus scale="   92.342">  1  5  2 -1</clus>
<clus scale="   65.336">  1  5  2 -1</clus>
</clustering>
</event>
<event>
 9    1  0.2674825E-005  0.1085479E+03  0.7546771E-02  0.1267009E+00
          1   -1    0    0  502    0  0.00000000000E+00  0.00000000000E+00  0.37281021794E+03  0.37281021794E+03  0.00000000000E+00 0. -1.
         -2   -1    0    0    0  501 -0.00000000000E+00 -0.00000000000E+00 -0.43318007655E+02  0.43318007655E+02  0.00000000000E+00 0.  1.
        -24    2    1    2    0    0  0.26955364026E+02  0.42572526173E+02  0.79588378667E+02  0.12485167946E+03  0.81942786204E+02 0.  0.
         23    2    1    2    0    0 -0.53548206277E+02 -0.55355378648E+02  0.18754243176E+03  0.22228723705E+03  0.91147263822E+02 0.  0.
         13    1    3    3    0    0  0.15239836076E+02  0.66913343021E+02  0.62948818720E+02  0.93124657616E+02  0.00000000000E+00 0. -1.
        -14    1    3    3    0    0  0.11715527950E+02 -0.24340816848E+02  0.16639559948E+02  0.31727021846E+02  0.00000000000E+00 0.  1.
        -13    1    4    4    0    0 -0.38235261798E+02 -0.15249516548E+02  0.13947459850E+02  0.43462795998E+02  0.00000000000E+00 0.  1.
         13    1    4    4    0    0 -0.15312944479E+02 -0.40105862100E+02  0.17359497191E+03  0.17882444105E+03  0.00000000000E+00 0. -1.
         21    1    1    2  502  501  0.26592842250E+02  0.12782852475E+02  0.62361399855E+02  0.68989309086E+02  0.00000000000E+00 0.  1.
<scales pt_clust_5="13000.00000" pt_clust_6="13000.00000" pt_clust_7="13000.00000" pt_clust_8="13000.00000" pt_clust_9="29.50560"></scales>
<clustering>
<clus scale="   29.506">  1  9  2 -1</clus>
<clus scale="   81.943">  5  6 -1 -1</clus>
<clus scale="   91.147">  7  8 -1 -1</clus>
<clus scale="  100.943">  2  5  1 -1</clus>
<clus scale="   29.506">  1  5  2 -1</clus>
</clustering>
</event>
<event>
 9    1  0.2674825E-005  0.1881276E+03  0.7546771E-02  0.1185549E+00
         -2   -1    0    0    0  501 -0.00000000000E+00  0.00000000000E+00  0.23926382434E+03  0.23926382434E+03  0.00000000000E+00 0.  1.
          1   -1    0    0  502    0  0.00000000000E+00 -0.00000000000E+00 -0.28413081537E+03  0.28413081537E+03  0.00000000000E+00 0. -1.
         23    2    1    2    0    0 -0.18686131626E+03 -0.16140887415E+02  0.10312953439E+03  0.23250747395E+03  0.90809387300E+02 0.  0.
        -24    2    1    2    0    0  0.54720043266E+02  0.50618994884E+02 -0.10199777283E+03  0.14678324089E+03  0.74734251630E+02 0.  0.
         13    1    4    4    0    0  0.66738747497E+02  0.50338437674E+02 -0.59472757063E+02  0.10259155695E+03  0.00000000000E+00 0. -1.
        -14    1    4    4    0    0 -0.12018704231E+02  0.28055721011E+00 -0.42525015764E+02  0.44191683940E+02  0.00000000000E+00 0.  1.
        -13    1    3    3    0    0 -0.51114090833E+02  0.22520667933E+01 -0.13145942997E+02  0.52825542153E+02  0.00000000000E+00 0. -1.
         13    1    3    3    0    0 -0.13574722542E+03 -0.18392954209E+02  0.11627547738E+03  0.17968193180E+03  0.00000000000E+00 0.  1.
         21    1    1    2  502  501  0.13214127299E+03 -0.34478107469E+02 -0.45998752593E+02  0.14410392487E+03  0.00000000000E+00 0. -1.
<scales pt_clust_5="13000.00000" pt_clust_6="13000.00000" pt_clust_7="13000.00000" pt_clust_8="13000.00000" pt_clust_9="164.75935"></scales>
<clustering>
<clus scale="   74.734">  5  6 -1 -1</clus>
<clus scale="   90.809">  7  8 -1 -1</clus>
<clus scale="  105.555">  2  5  1 -1</clus>
<clus scale="  164.759">  2  9  1 -1</clus>
<clus scale="  105.555">  2  5  1 -1</clus>
</clustering>
</event>
<event>
 9    1  0.2674825E-005  0.9724441E+02  0.7546771E-02  0.1294495E+00
         -4   -1    0    0    0  501 -0.00000000000E+00  0.00000000000E+00  0.99329701512E+02  0.99329701512E+02  0.00000000000E+00 0.  1.
          3   -1    0    0  502    0  0.00000000000E+00 -0.00000000000E+00 -0.30218339269E+03  0.30218339269E+03  0.00000000000E+00 0. -1.
        -24    2    1    2    0    0 -0.29508846687E+02 -0.72995484852E+01  0.47036970843E+02  0.93350152833E+02  0.74684127945E+02 0.  0.
         23    2    1    2    0    0  0.67817170804E+02  0.24081948657E+02 -0.10011761857E+03  0.15266007581E+03  0.90013622813E+02 0.  0.
         13    1    3    3    0    0 -0.27353664505E+02  0.31332152225E+02  0.28698604799E+02  0.50532530536E+02  0.00000000000E+00 0. -1.
        -14    1    3    3    0    0 -0.21551821820E+01 -0.38631700710E+02  0.18338366044E+02  0.42817622297E+02  0.00000000000E+00 0.  1.
        -11    1    4    4    0    0  0.29394404510E+02  0.31849093122E+02  0.18880417856E+01  0.43381568102E+02  0.00000000000E+00 0.  1.
         11    1    4    4    0    0  0.38422766294E+02 -0.77671444643E+01 -0.10200566036E+03  0.10927850771E+03  0.00000000000E+00 0. -1.
         21    1    1    2  502  501 -0.38308324117E+02 -0.16782400172E+02 -0.14977304345E+03  0.15550286555E+03  0.00000000000E+00 0. -1.
<scales pt_clust_5="13000.00000" pt_clust_6="13000.00000" pt_clust_7="13000.00000" pt_clust_8="13000.00000" pt_clust_9="41.82316"></scales>
<clustering>
<clus scale="   41.823">  2  9  1 -1</clus>
<clus scale="   74.684">  5  6 -1 -1</clus>
<clus scale="   83.257">  1  5  2 -1</clus>
<clus scale="   90.014">  7  8 -1 -1</clus>
<clus scale="   41.823">  2  5  1 -1</clus>
</clustering>
</event>
<event>
 9    1  0.2674825E-005  0.1971252E+03  0.7546771E-02  0.1153122E+00
         -2   -1    0    0    0  501 -0.00000000000E+00  0.00000000000E+00  0.33584442402E+03  0.33584442402E+03  0.00000000000E+00 0.  1.
          1   -1    0    0  502    0  0.00000000000E+00 -0.00000000000E+00 -0.55958313462E+03  0.55958313462E+03  0.00000000000E+00 0. -1.
         23    2    1    2    0    0  0.14269922485E+03 -0.11270876967E+03  0.27653435225E+03  0.34363727098E+03  0.92460751123E+02 0.  0.
        -24    2    1    2    0    0 -0.94067776337E+02  0.27861723533E+02 -0.34662541302E+03  0.36965945742E+03  0.82909078645E+02 0.  0.
         13    1    4    4    0    0 -0.83150132372E+02 -0.63259470288E+01 -0.29654859550E+03  0.30805037187E+03  0.00000000000E+00 0. -1.
        -14    1    4    4    0    0 -0.10917643964E+02  0.34187670562E+02 -0.50076817526E+02  0.61609085545E+02  0.00000000000E+00 0.  1.
        -13    1    3    3    0    0  0.80505071749E+02 -0.35083483470E+02  0.63017617780E+02  0.10808856341E+03  0.00000000000E+00 0. -1.
         13    1    3    3    0    0  0.62194153098E+02 -0.77625286204E+02  0.21351673447E+03  0.23554870757E+03  0.00000000000E+00 0.  1.
         21    1    1    2  502  501 -0.48631448510E+02  0.84847046140E+02 -0.15364764983E+03  0.18213083023E+03  0.00000000000E+00 0.  1.
<scales pt_clust_5="13000.00000" pt_clust_6="13000.00000" pt_clust_7="13000.00000" pt_clust_8="13000.00000" pt_clust_9="97.79590"></scales>
<clustering>
<clus scale="   82.909">  5  6 -1 -1</clus>
<clus scale="   92.461">  7  8 -1 -1</clus>
<clus scale="   97.796">  2  9  1 -1</clus>
<clus scale="  192.830">  2  5  1 -1</clus>
<clus scale="   97.796">  2  5  1 -1</clus>
</clustering>
</event>
<event>
 9    1  0.2674825E-005  0.9520244E+02  0.7546771E-02  0.1299592E+00
          1   -1    0    0  502    0  0.00000000000E+00  0.00000000000E+00  0.34355418780E+03  0.34355418780E+03  0.00000000000E+00 0. -1.
         -2   -1    0    0    0  501 -0.00000000000E+00 -0.00000000000E+00 -0.40741037454E+02  0.40741037454E+02  0.00000000000E+00 0.  1.
        -24    2    1    2    0    0  0.17134877790E+02 -0.11202980495E+02  0.54864372516E+02  0.99302960637E+02  0.80198926495E+02 0.  0.
         23    2    1    2    0    0  0.23686992575E+02  0.12593807664E+01  0.15867806967E+03  0.18632839275E+03  0.94746400958E+02 0.  0.
         13    1    3    3    0    0 -0.17906129166E+02 -0.12616269652E+02  0.59987191735E+02  0.63861278518E+02  0.00000000000E+00 0. -1.
        -14    1    3    3    0    0  0.35041006955E+02  0.14132891579E+01 -0.51228192198E+01  0.35441682119E+02  0.00000000000E+00 0.  1.
        -11    1    4    4    0    0  0.11683192573E+02 -0.46722055306E+02  0.75311089055E+02  0.89393554439E+02  0.00000000000E+00 0. -1.
         11    1    4    4    0    0  0.12003800002E+02  0.47981436072E+02  0.83366980617E+02  0.96934838316E+02  0.00000000000E+00 0.  1.
         21    1    1    2  502  501 -0.40821870365E+02  0.99435997282E+01  0.89270708156E+02  0.98663871860E+02  0.00000000000E+00 0.  1.
<scales pt_clust_5="13000.00000" pt_clust_6="13000.00000" pt_clust_7="13000.00000" pt_clust_8="13000.00000" pt_clust_9="42.01548"></scales>
<clustering>
<clus scale="   42.015">  1  9  2 -1</clus>
<clus scale="   80.199">  5  6 -1 -1</clus>
<clus scale="   80.737">  2  5  1 -1</clus>
<clus scale="   94.746">  7  8 -1 -1</clus>
<clus scale="   42.015">  1  5  2 -1</clus>
</clustering>
</event>
<event>
 9    1  0.2674825E-005  0.2145602E+03  0.7546771E-02  0.1138857E+00
          1   -1    0    0  502    0  0.00000000000E+00  0.00000000000E+00  0.65668069651E+03  0.65668069651E+03  0.00000000000E+00 0. -1.
         -2   -1    0    0    0  501 -0.00000000000E+00 -0.00000000000E+00 -0.11797815547E+03  0.11797815547E+03  0.00000000000E+00 0.  1.
        -24    2    1    2    0    0  0.16118291584E+03 -0.91919418646E+02  0.49498883193E+02  0.20837329152E+03  0.80871362670E+02 0.  0.
         23    2    1    2    0    0 -0.19833681069E+03  0.10647539073E+03  0.44250454079E+03  0.50486003027E+03  0.91645415785E+02 0.  0.
         13    1    3    3    0    0  0.89874673522E+02 -0.94410194305E+02  0.40269193285E+02  0.13642708550E+03  0.00000000000E+00 0. -1.
        -14    1    3    3    0    0  0.71308242316E+02  0.24907756591E+01  0.92296899080E+01  0.71946206025E+02  0.00000000000E+00 0.  1.
        -11    1    4    4    0    0 -0.10694601922E+03  0.35047131038E+02  0.30421920568E+03  0.32436873697E+03  0.00000000000E+00 0. -1.
         11    1    4    4    0    0 -0.91390791472E+02  0.71428259688E+02  0.13828533511E+03  0.18049129329E+03  0.00000000000E+00 0.  1.
         21    1    1    2  502  501  0.37153894849E+02 -0.14555972080E+02  0.46699117051E+02  0.61425530189E+02  0.00000000000E+00 0. -1.
<scales pt_clust_5="13000.00000" pt_clust_6="13000.00000" pt_clust_7="13000.00000" pt_clust_8="13000.00000" pt_clust_9="39.90349"></scales>
<clustering>
<clus scale="   39.903">  1  9  2 -1</clus>
<clus scale="   80.871">  5  6 -1 -1</clus>
<clus scale="   91.645">  7  8 -1 -1</clus>
<clus scale="  210.184">  2  5  1 -1</clus>
<clus scale="   39.903">  1  5  2 -1</clus>
</clustering>
</event>
<event>
 9    1  0.2674825E-005  0.1266041E+03  0.7546771E-02  0.1245013E+00
          1   -1    0    0  502    0  0.00000000000E+00  0.00000000000E+00  0.95149823104E+03  0.95149823104E+03  0.00000000000E+00 0. -1.
         -2   -1    0    0    0  501 -0.00000000000E+00 -0.00000000000E+00 -0.65878341861E+02  0.65878341861E+02  0.00000000000E+00 0.  1.
         23    2    1    2    0    0 -0.13763943347E+02 -0.26748133004E+02  0.14006153015E+02  0.99302816785E+02  0.93594702540E+02 0.  0.
        -24    2    1    2    0    0 -0.82844661083E+02  0.47106747151E+02  0.17760230143E+03  0.21707477812E+03  0.80601478415E+02 0.  0.
         13    1    4    4    0    0  0.13594488203E+02  0.20657807472E+02  0.32082209232E+02  0.40507076768E+02  0.00000000000E+00 0. -1.
        -14    1    4    4    0    0 -0.96439149286E+02  0.26448939679E+02  0.14552009220E+03  0.17656770135E+03  0.00000000000E+00 0.  1.
        -11    1    3    3    0    0 -0.14663293462E+02  0.31944155449E+02 -0.89565407407E+01  0.36272039708E+02  0.00000000000E+00 0.  1.
         11    1    3    3    0    0  0.89935011542E+00 -0.58692288453E+02  0.22962693756E+02  0.63030777078E+02  0.00000000000E+00 0. -1.
         21    1    1    2  502  501  0.96608604430E+02 -0.20358614147E+02  0.69401143473E+03  0.70099897800E+03  0.00000000000E+00 0. -1.
<scales pt_clust_5="13000.00000" pt_clust_6="13000.00000" pt_clust_7="13000.00000" pt_clust_8="13000.00000" pt_clust_9="97.63191"></scales>
<clustering>
<clus scale="   80.601">  5  6 -1 -1</clus>
<clus scale="   93.595">  7  8 -1 -1</clus>
<clus scale="   98.310">  2  7  1 -1</clus>
<clus scale="   97.632">  1  9  2 -1</clus>
<clus scale="   97.632">  1  5  2 -1</clus>
</clustering>
</event>
<event>
 9    1  0.2674825E-005  0.8993722E+02  0.7546771E-02  0.1308988E+00
         -2   -1    0    0    0  501 -0.00000000000E+00  0.00000000000E+00  0.13965709666E+03  0.13965709666E+03  0.00000000000E+00 0.  1.
          1   -1    0    0  502    0  0.00000000000E+00 -0.00000000000E+00 -0.15909798729E+03  0.15909798729E+03  0.00000000000E+00 0. -1.
        -24    2    1    2    0    0 -0.33648118938E+01  0.12015676822E+02  0.77092589747E+02  0.11160158613E+03  0.79724200747E+02 0.  0.
         23    2    1    2    0    0  0.36713465435E+02  0.17619409460E+02 -0.22225064799E+02  0.10048105896E+03  0.89130059858E+02 0.  0.
         11    1    3    3    0    0  0.34270069408E+02  0.21510284985E+02  0.49736619279E+02  0.64115998897E+02  0.00000000000E+00 0. -1.
        -12    1    3    3    0    0 -0.37634881302E+02 -0.94946081624E+01  0.27355970468E+02  0.47485587235E+02  0.00000000000E+00 0.  1.
        -13    1    4    4    0    0  0.66075774476E+02  0.17278476457E+02 -0.11729507865E+02  0.69297439174E+02  0.00000000000E+00 0. -1.
         13    1    4    4    0    0 -0.29362309041E+02  0.34093300248E+00 -0.10495556933E+02  0.31183619785E+02  0.00000000000E+00 0.  1.
         21    1    1    2  502  501 -0.33348653541E+02 -0.29635086282E+02 -0.74308415577E+02  0.86672438858E+02  0.00000000000E+00 0.  1.
<scales pt_clust_5="13000.00000" pt_clust_6="13000.00000" pt_clust_7="13000.00000" pt_clust_8="13000.00000" pt_clust_9="44.61357"></scales>
<clustering>
<clus scale="   44.614">  2  9  1 -1</clus>
<clus scale="   79.724">  5  6 -1 -1</clus>
<clus scale="   80.626">  1  5  2 -1</clus>
<clus scale="   89.130">  7  8 -1 -1</clus>
<clus scale="   44.614">  2  5  1 -1</clus>
</clustering>
</event>
<event>
 9    1  0.2674825E-005  0.1236638E+03  0.7546771E-02  0.1240229E+00
          1   -1    0    0  502    0  0.00000000000E+00  0.00000000000E+00  0.12562302286E+03  0.12562302286E+03  0.00000000000E+00 0. -1.
         -2   -1    0    0    0  501 -0.00000000000E+00 -0.00000000000E+00 -0.25215317036E+03  0.25215317036E+03  0.00000000000E+00 0.  1.
        -24    2    1    2    0    0 -0.80928248285E+02  0.11283224404E+02 -0.17855395946E+03  0.21207694003E+03  0.80115039348E+02 0.  0.
         23    2    1    2    0    0  0.96353805107E+02 -0.24302780439E+02  0.55022730011E+02  0.14529214286E+03  0.90595943975E+02 0.  0.
         13    1    3    3    0    0 -0.69779187530E+02  0.40870407612E+02 -0.14463293650E+03  0.16570519471E+03  0.00000000000E+00 0. -1.
        -14    1    3    3    0    0 -0.11149060755E+02 -0.29587183209E+02 -0.33921022957E+02  0.46371745324E+02  0.00000000000E+00 0.  1.
        -13    1    4    4    0    0  0.27960761354E+02  0.27336969037E+02  0.44035825447E+02  0.58892002635E+02  0.00000000000E+00 0. -1.
         13    1    4    4    0    0  0.68393043753E+02 -0.51639749476E+02  0.10986904564E+02  0.86400140229E+02  0.00000000000E+00 0.  1.
         21    1    1    2  502  501 -0.15425556821E+02  0.13019556036E+02 -0.29989180485E+01  0.20407110331E+02  0.00000000000E+00 0.  1.
<scales pt_clust_5="13000.00000" pt_clust_6="13000.00000" pt_clust_7="13000.00000" pt_clust_8="13000.00000" pt_clust_9="20.18556"></scales>
<clustering>
<clus scale="   20.186">  1  9  2 -1</clus>
<clus scale="   80.115">  5  6 -1 -1</clus>
<clus scale="   90.596">  7  8 -1 -1</clus>
<clus scale="  116.205">  2  5  1 -1</clus>
<clus scale="   20.186">  1  5  2 -1</clus>
</clustering>
</event>
<event>
 9    1  0.2674825E-005  0.1165492E+03  0.7546771E-02  0.1252537E+00
          1   -1    0    0  502    0  0.00000000000E+00  0.00000000000E+00  0.24707503825E+03  0.24707503825E+03  0.00000000000E+00 0. -1.
         -2   -1    0    0    0  501 -0.00000000000E+00 -0.00000000000E+00 -0.22233797794E+03  0.22233797794E+03  0.00000000000E+00 0.  1.
        -24    2    1    2    0    0  0.24969690585E+02 -0.67864098992E+02 -0.18606526542E+03  0.21563852761E+03  0.81551641385E+02 0.  0.
         23    2    1    2    0    0 -0.49827745645E+01  0.63799126281E+02  0.13622994574E+03  0.17646316552E+03  0.92116741760E+02 0.  0.
         13    1    3    3    0    0  0.42421196536E+02 -0.39339622165E+01 -0.67886654646E+02  0.80147562991E+02  0.00000000000E+00 0. -1.
        -14    1    3    3    0    0 -0.17451505951E+02 -0.63930136776E+02 -0.11817861077E+03  0.13549096462E+03  0.00000000000E+00 0.  1.
        -13    1    4    4    0    0  0.39544738485E+02  0.53375788701E+02  0.81383576119E+02  0.10505259456E+03  0.00000000000E+00 0. -1.
         13    1    4    4    0    0 -0.44527513049E+02  0.10423337581E+02  0.54846369621E+02  0.71410570964E+02  0.00000000000E+00 0.  1.
         21    1    1    2  502  501 -0.19986916021E+02  0.40649727109E+01  0.74572379997E+02  0.77311323062E+02  0.00000000000E+00 0.  1.
<scales pt_clust_5="13000.00000" pt_clust_6="13000.00000" pt_clust_7="13000.00000" pt_clust_8="13000.00000" pt_clust_9="20.39610"></scales>
<clustering>
<clus scale="   20.396">  1  9  2 -1</clus>
<clus scale="   81.552">  5  6 -1 -1</clus>
<clus scale="   92.117">  7  8 -1 -1</clus>
<clus scale="  108.392">  2  5  1 -1</clus>
<clus scale="   20.396">  1  5  2 -1</clus>
</clustering>
</event>
<event>
 9    1  0.2674825E-005  0.9364447E+02  0.7546771E-02  0.1302603E+00
          1   -1    0    0  502    0  0.00000000000E+00  0.00000000000E+00  0.37833417223E+03  0.37833417223E+03  0.00000000000E+00 0. -1.
         -2   -1    0    0    0  501 -0.00000000000E+00 -0.00000000000E+00 -0.55451364506E+02  0.55451364506E+02  0.00000000000E+00 0.  1.
        -24    2    1    2    0    0 -0.12847965897E+02  0.28781410952E+02 -0.26085403984E+01  0.81375547360E+02  0.74978232715E+02 0.  0.
         23    2    1    2    0    0  0.31103074802E+02  0.98315645663E+00  0.18579906472E+03  0.20842001571E+03  0.89158525332E+02 0.  0.
         11    1    3    3    0    0  0.15271893059E+02 -0.17833735795E+02 -0.11616070849E+02  0.26195533054E+02  0.00000000000E+00 0. -1.
        -12    1    3    3    0    0 -0.28119858956E+02  0.46615146747E+02  0.90075304508E+01  0.55180014306E+02  0.00000000000E+00 0.  1.
        -13    1    4    4    0    0  0.35873517350E+02  0.33133955552E+02  0.54589614014E+02  0.73244755552E+02  0.00000000000E+00 0.  1.
         13    1    4    4    0    0 -0.47704425487E+01 -0.32150799095E+02  0.13120945071E+03  0.13517526016E+03  0.00000000000E+00 0. -1.
         21    1    1    2  502  501 -0.18255108904E+02 -0.29764567408E+02  0.13969228340E+03  0.14398997366E+03  0.00000000000E+00 0. -1.
<scales pt_clust_5="13000.00000" pt_clust_6="13000.00000" pt_clust_7="13000.00000" pt_clust_8="13000.00000" pt_clust_9="34.91674"></scales>
<clustering>
<clus scale="   34.917">  1  9  2 -1</clus>
<clus scale="   74.978">  5  6 -1 -1</clus>
<clus scale="   80.261">  2  5  1 -1</clus>
<clus scale="   89.159">  7  8 -1 -1</clus>
<clus scale="   34.917">  1  5  2 -1</clus>
</clustering>
</event>
<event>
 9    1  0.2674825E-005  0.1018602E+03  0.7546771E-02  0.1280872E+00
          1   -1    0    0  502    0  0.00000000000E+00  0.00000000000E+00  0.49175847677E+03  0.49175847677E+03  0.00000000000E+00 0. -1.
         -2   -1    0    0    0  501 -0.00000000000E+00 -0.00000000000E+00 -0.43025452460E+02  0.43025452460E+02  0.00000000000E+00 0.  1.
         23    2    1    2    0    0 -0.17104194073E+02 -0.53576140828E+02  0.57255788465E+02  0.12087829555E+03  0.90390158210E+02 0.  0.
        -24    2    1    2    0    0 -0.20642733146E+02  0.25757403712E+02  0.24782046970E+03  0.26278985321E+03  0.80956503558E+02 0.  0.
         11    1    4    4    0    0 -0.10639568097E+02  0.41216731838E+02  0.23827844186E+03  0.24205089392E+03  0.00000000000E+00 0. -1.
        -12    1    4    4    0    0 -0.10003165050E+02 -0.15459328125E+02  0.95420278467E+01  0.20738959292E+02  0.00000000000E+00 0.  1.
        -11    1    3    3    0    0  0.17097417457E+02 -0.61606510613E+02  0.14533271991E+02  0.65565995976E+02  0.00000000000E+00 0.  1.
         11    1    3    3    0    0 -0.34201611530E+02  0.80303697851E+01  0.42722516475E+02  0.55312299573E+02  0.00000000000E+00 0. -1.
         21    1    1    2  502  501  0.37746927219E+02  0.27818737115E+02  0.14365676614E+03  0.15111578047E+03  0.00000000000E+00 0. -1.
<scales pt_clust_5="13000.00000" pt_clust_6="13000.00000" pt_clust_7="13000.00000" pt_clust_8="13000.00000" pt_clust_9="46.89043"></scales>
<clustering>
<clus scale="   46.890">  1  9  2 -1</clus>
<clus scale="   80.957">  5  6 -1 -1</clus>
<clus scale="   90.390">  7  8 -1 -1</clus>
<clus scale="   93.590">  1  5  2 -1</clus>
<clus scale="   46.890">  1  5  2 -1</clus>
</clustering>
</event>
<event>
 9    1  0.2674825E-005  0.1141368E+03  0.7546771E-02  0.1255397E+00
          1   -1    0    0  502    0  0.00000000000E+00  0.00000000000E+00  0.30042887029E+03  0.30042887029E+03  0.00000000000E+00 0. -1.
         -2   -1    0    0    0  501 -0.00000000000E+00 -0.00000000000E+00 -0.80659861624E+02  0.80659861624E+02  0.00000000000E+00 0.  1.
         23    2    1    2    0    0  0.80169223528E+02  0.25907959274E+02 -0.95428775730E+01  0.11295432713E+03  0.74627654056E+02 0.  0.
        -24    2    1    2    0    0 -0.50418980297E+02 -0.41952848182E+02  0.18007109866E+03  0.20840860974E+03  0.81892814075E+02 0.  0.
         11    1    4    4    0    0 -0.32417815222E+02 -0.59052553019E+02  0.16758406623E+03  0.18061710333E+03  0.00000000000E+00 0. -1.
        -12    1    4    4    0    0 -0.18001165075E+02  0.17099704837E+02  0.12487032428E+02  0.27791506408E+02  0.00000000000E+00 0.  1.
        -11    1    3    3    0    0  0.72292100167E+02 -0.91444211049E+01 -0.19951794381E+02  0.75550263288E+02  0.00000000000E+00 0.  1.
         11    1    3    3    0    0  0.78771233608E+01  0.35052380379E+02  0.10408916808E+02  0.37404063840E+02  0.00000000000E+00 0. -1.
         21    1    1    2  502  501 -0.29750243231E+02  0.16044888909E+02  0.49240787585E+02  0.59725795050E+02  0.00000000000E+00 0. -1.
<scales pt_clust_5="13000.00000" pt_clust_6="13000.00000" pt_clust_7="13000.00000" pt_clust_8="13000.00000" pt_clust_9="33.80112"></scales>
<clustering>
<clus scale="   33.801">  1  9  2 -1</clus>
<clus scale="   74.628">  7  8 -1 -1</clus>
<clus scale="   81.893">  5  6 -1 -1</clus>
<clus scale="  109.042">  2  7  1 -1</clus>
<clus scale="   33.801">  1  5  2 -1</clus>
</clustering>
</event>
<event>
 9    1  0.2674825E-005  0.1617058E+03  0.7546771E-02  0.1196217E+00
          1   -1    0    0  502    0  0.00000000000E+00  0.00000000000E+00  0.54973118133E+03  0.54973118133E+03  0.00000000000E+00 0. -1.
         -2   -1    0    0    0  501 -0.00000000000E+00 -0.00000000000E+00 -0.25059507336E+03  0.25059507336E+03  0.00000000000E+00 0.  1.
         23    2    1    2    0    0 -0.92467363774E+02 -0.16025828252E+02 -0.17975436122E+03  0.22263404285E+03  0.91908901210E+02 0.  0.
        -24    2    1    2    0    0  0.43329324258E+02 -0.12955217598E+03  0.16719111650E+03  0.23018107718E+03  0.79807657602E+02 0.  0.
         11    1    4    4    0    0  0.19322565078E+02 -0.84414021840E+02  0.15511257655E+03  0.17764852943E+03  0.00000000000E+00 0. -1.
        -12    1    4    4    0    0  0.24006759180E+02 -0.45138154142E+02  0.12078539950E+02  0.52532547749E+02  0.00000000000E+00 0.  1.
        -11    1    3    3    0    0 -0.10592588067E+02  0.22205045733E+02 -0.38820342915E+01  0.24906568776E+02  0.00000000000E+00 0. -1.
         11    1    3    3    0    0 -0.81874775707E+02 -0.38230873985E+02 -0.17587232693E+03  0.19772747407E+03  0.00000000000E+00 0.  1.
         21    1    1    2  502  501  0.49138039516E+02  0.14557800423E+03  0.31169935269E+03  0.34751113466E+03  0.00000000000E+00 0. -1.
<scales pt_clust_5="13000.00000" pt_clust_6="13000.00000" pt_clust_7="13000.00000" pt_clust_8="13000.00000" pt_clust_9="140.63962"></scales>
<clustering>
<clus scale="   79.808">  5  6 -1 -1</clus>
<clus scale="   91.909">  7  8 -1 -1</clus>
<clus scale="  131.356">  2  7  1 -1</clus>
<clus scale="  140.640">  1  9  2 -1</clus>
<clus scale="  140.640">  1  5  2 -1</clus>
</clustering>
</event>
<event>
 9    1  0.2674825E-005  0.2044839E+03  0.7546771E-02  0.1183797E+00
         -2   -1    0    0    0  501 -0.00000000000E+00  0.00000000000E+00  0.22644946351E+03  0.22644946351E+03  0.00000000000E+00 0.  1.
          1   -1    0    0  502    0  0.00000000000E+00 -0.00000000000E+00 -0.44342618645E+03  0.44342618645E+03  0.00000000000E+00 0. -1.
        -24    2    1    2    0    0 -0.25267833267E+02 -0.30274988854E+00  0.10037175972E+03  0.13183230165E+03  0.81649926837E+02 0.  0.
         23    2    1    2    0    0 -0.14869248584E+03  0.83312443995E+02 -0.30048088891E+02  0.19207468182E+03  0.83302923595E+02 0.  0.
         11    1    3    3    0    0  0.22971372170E+02 -0.14672498220E+02  0.11267942342E+02  0.29494621001E+02  0.00000000000E+00 0. -1.
        -12    1    3    3    0    0 -0.48239205437E+02  0.14369748331E+02  0.89103817383E+02  0.10233768065E+03  0.00000000000E+00 0.  1.
        -11    1    4    4    0    0 -0.13448414234E+03  0.57280434439E+02  0.48776464106E+01  0.14625602259E+03  0.00000000000E+00 0.  1.
         11    1    4    4    0    0 -0.14208343497E+02  0.26032009556E+02 -0.34925735302E+02  0.45818659221E+02  0.00000000000E+00 0. -1.
         21    1    1    2  502  501  0.17396031910E+03 -0.83009694107E+02 -0.28730039377E+03  0.34596866650E+03  0.00000000000E+00 0. -1.
<scales pt_clust_5="13000.00000" pt_clust_6="13000.00000" pt_clust_7="13000.00000" pt_clust_8="13000.00000" pt_clust_9="186.74658"></scales>
<clustering>
<clus scale="   81.650">  5  6 -1 -1</clus>
<clus scale="   83.303">  7  8 -1 -1</clus>
<clus scale="   85.471">  1  5  2 -1</clus>
<clus scale="  186.747">  2  9  1 -1</clus>
<clus scale="  186.747">  2  5  1 -1</clus>
</clustering>
</event>
<event>
 9    1  0.2674825E-005  0.1279573E+03  0.7546771E-02  0.1233850E+00
         -2   -1    0    0    0  501 -0.00000000000E+00  0.00000000000E+00  0.17464803417E+03  0.17464803417E+03  0.00000000000E+00 0.  1.
          1   -1    0    0  502    0  0.00000000000E+00 -0.00000000000E+00 -0.34541361812E+03  0.34541361812E+03  0.00000000000E+00 0. -1.
        -24    2    1    2    0    0 -0.26738241342E+02 -0.86346163424E+02  0.13253691281E+03  0.17911123942E+03  0.79650545147E+02 0.  0.
         23    2    1    2    0    0 -0.10184343079E+01  0.79995458303E+02 -0.20363732569E+03  0.23729757488E+03  0.91878550655E+02 0.  0.
         13    1    3    3    0    0 -0.29179585122E+02 -0.25946220394E+02  0.68497896695E+01  0.39643084632E+02  0.00000000000E+00 0. -1.
        -14    1    3    3    0    0  0.24413437798E+01 -0.60399943030E+02  0.12568712314E+03  0.13946815479E+03  0.00000000000E+00 0.  1.
        -11    1    4    4    0    0  0.17669361757E+02 -0.14745323149E+02 -0.23395707981E+02  0.32817526592E+02  0.00000000000E+00 0.  1.
         11    1    4    4    0    0 -0.18687796065E+02  0.94740781453E+02 -0.18024161771E+03  0.20448004828E+03  0.00000000000E+00 0. -1.
         21    1    1    2  502  501  0.27756675650E+02  0.63507051205E+01 -0.99665171068E+02  0.10365283799E+03  0.00000000000E+00 0.  1.
<scales pt_clust_5="13000.00000" pt_clust_6="13000.00000" pt_clust_7="13000.00000" pt_clust_8="13000.00000" pt_clust_9="28.47393"></scales>
<clustering>
<clus scale="   28.474">  2  9  1 -1</clus>
<clus scale="   79.651">  5  6 -1 -1</clus>
<clus scale="   91.879">  7  8 -1 -1</clus>
<clus scale="  119.481">  1  5  2 -1</clus>
<clus scale="   28.474">  2  5  1 -1</clus>
</clustering>
</event>
<event>
 9    1  0.2674825E-005  0.1021461E+03  0.7546771E-02  0.1281258E+00
          1   -1    0    0  502    0  0.00000000000E+00  0.00000000000E+00  0.34472858227E+03  0.34472858227E+03  0.00000000000E+00 0. -1.
         -2   -1    0    0    0  501 -0.00000000000E+00 -0.00000000000E+00 -0.53056783245E+02  0.53056783245E+02  0.00000000000E+00 0.  1.
        -24    2    1    2    0    0  0.25174019134E+02  0.17623853281E+02  0.36757756820E+02  0.10801458664E+03  0.96807472840E+02 0.  0.
         23    2    1    2    0    0 -0.13383053445E+02 -0.38607942788E+02  0.12280755144E+03  0.15548941834E+03  0.86171835066E+02 0.  0.
         13    1    3    3    0    0  0.64986036825E+01  0.54432862036E+02  0.38030354507E+02  0.66719383864E+02  0.00000000000E+00 0. -1.
        -14    1    3    3    0    0  0.18675415452E+02 -0.36809008755E+02 -0.12725976864E+01  0.41295202781E+02  0.00000000000E+00 0.  1.
        -11    1    4    4    0    0 -0.46822021643E+02 -0.60898237209E+01  0.47989816442E+02  0.67323176884E+02  0.00000000000E+00 0. -1.
         11    1    4    4    0    0  0.33438968198E+02 -0.32518119067E+02  0.74817735003E+02  0.88166241458E+02  0.00000000000E+00 0.  1.
         21    1    1    2  502  501 -0.11790965690E+02  0.20984089508E+02  0.13210649076E+03  0.13428136053E+03  0.00000000000E+00 0. -1.
<scales pt_clust_5="13000.00000" pt_clust_6="13000.00000" pt_clust_7="13000.00000" pt_clust_8="13000.00000" pt_clust_9="24.06988"></scales>
<clustering>
<clus scale="   24.070">  1  9  2 -1</clus>
<clus scale="   86.172">  7  8 -1 -1</clus>
<clus scale="   92.129">  1  7  2 -1</clus>
<clus scale="   96.807">  5  6 -1 -1</clus>
<clus scale="   24.070">  1  5  2 -1</clus>
</clustering>
</event>
<event>
 9    1  0.2674825E-005  0.2013086E+03  0.7546771E-02  0.1149545E+00
          1   -1    0    0  502    0  0.00000000000E+00  0.00000000000E+00  0.12231214569E+04  0.12231214569E+04  0.00000000000E+00 0. -1.
         -2   -1    0    0    0  501 -0.00000000000E+00 -0.00000000000E+00 -0.37345831805E+02  0.37345831805E+02  0.00000000000E+00 0.  1.
        -24    2    1    2    0    0 -0.69682087996E+02 -0.15157096626E+03  0.39675753476E+03  0.43800015509E+03  0.81229571418E+02 0.  0.
         23    2    1    2    0    0  0.78597807210E+02  0.17132136102E+03  0.73584313517E+03  0.76504637082E+03  0.91116441412E+02 0.  0.
         13    1    3    3    0    0 -0.49382097978E+02 -0.43725575065E+02  0.22246918464E+03  0.23204106453E+03  0.00000000000E+00 0. -1.
        -14    1    3    3    0    0 -0.20299990018E+02 -0.10784539119E+03  0.17428835011E+03  0.20595909055E+03  0.00000000000E+00 0.  1.
        -11    1    4    4    0    0  0.55094659816E+02  0.53379761920E+02  0.42269826093E+03  0.42960288676E+03  0.00000000000E+00 0. -1.
         11    1    4    4    0    0  0.23503147394E+02  0.11794159910E+03  0.31314487424E+03  0.33544348406E+03  0.00000000000E+00 0.  1.
         21    1    1    2  502  501 -0.89157192138E+01 -0.19750394765E+02  0.53174955216E+02  0.57420762836E+02  0.00000000000E+00 0.  1.
<scales pt_clust_5="13000.00000" pt_clust_6="13000.00000" pt_clust_7="13000.00000" pt_clust_8="13000.00000" pt_clust_9="21.66952"></scales>
<clustering>
<clus scale="   21.670">  2  9  1 -1</clus>
<clus scale="   81.230">  5  6 -1 -1</clus>
<clus scale="   91.116">  7  8 -1 -1</clus>
<clus scale="  197.031">  2  5  1 -1</clus>
<clus scale="  201.309">  1  5  2 -1</clus>
</clustering>
</event>
<event>
 9    1  0.2674825E-005  0.3144601E+03  0.7546771E-02  0.1078581E+00
          1   -1    0    0  502    0  0.00000000000E+00  0.00000000000E+00  0.47968931495E+03  0.47968931495E+03  0.00000000000E+00 0. -1.
         -2   -1    0    0    0  501 -0.00000000000E+00 -0.00000000000E+00 -0.49167802116E+03  0.49167802116E+03  0.00000000000E+00 0.  1.
         23    2    1    2    0    0 -0.19148527399E+03 -0.22338287949E+03 -0.32293365542E+03  0.44638917894E+03  0.91709499318E+02 0.  0.
        -24    2    1    2    0    0  0.18325585254E+03  0.27965401508E+03  0.19396617472E+03  0.39490818464E+03  0.80873492062E+02 0.  0.
         13    1    4    4    0    0  0.13938154104E+03  0.26139509420E+03  0.17209307783E+03  0.34259398227E+03  0.00000000000E+00 0. -1.
        -14    1    4    4    0    0  0.43874311499E+02  0.18258920880E+02  0.21873096893E+02  0.52314202364E+02  0.00000000000E+00 0.  1.
        -13    1    3    3    0    0 -0.14194342434E+03 -0.15324400204E+03 -0.16335251089E+03  0.26517108192E+03  0.00000000000E+00 0. -1.
         13    1    3    3    0    0 -0.49541849654E+02 -0.70138877457E+02 -0.15958114453E+03  0.18121809702E+03  0.00000000000E+00 0.  1.
         21    1    1    2  502  501  0.82294214549E+01 -0.56271135587E+02  0.11697877448E+03  0.13006997254E+03  0.00000000000E+00 0. -1.
<scales pt_clust_5="13000.00000" pt_clust_6="13000.00000" pt_clust_7="13000.00000" pt_clust_8="13000.00000" pt_clust_9="56.86971"></scales>
<clustering>
<clus scale="   56.870">  1  9  2 -1</clus>
<clus scale="   80.873">  5  6 -1 -1</clus>
<clus scale="   91.709">  7  8 -1 -1</clus>
<clus scale="  311.472">  1  5  2 -1</clus>
<clus scale="   56.870">  1  5  2 -1</clus>
</clustering>
</event>
<event>
 9    1  0.2674825E-005  0.2113826E+03  0.7546771E-02  0.1141503E+00
          1   -1    0    0  502    0  0.00000000000E+00  0.00000000000E+00  0.15932215768E+03  0.15932215768E+03  0.00000000000E+00 0. -1.
         -2   -1    0    0    0  501 -0.00000000000E+00 -0.00000000000E+00 -0.54330249806E+03  0.54330249806E+03  0.00000000000E+00 0.  1.
        -24    2    1    2    0    0  0.29624559372E+02 -0.19531673389E+03 -0.18000789153E+03  0.27921690398E+03  0.80826959603E+02 0.  0.
         23    2    1    2    0    0  0.11140116144E+03  0.17346753101E+03 -0.10303884900E+03  0.24861292009E+03  0.93221116422E+02 0.  0.
         11    1    3    3    0    0 -0.26576494512E+02 -0.63973073503E+02 -0.44669024225E+02  0.82426851930E+02  0.00000000000E+00 0. -1.
        -12    1    3    3    0    0  0.56201053884E+02 -0.13134366038E+03 -0.13533886731E+03  0.19679005205E+03  0.00000000000E+00 0.  1.
        -11    1    4    4    0    0  0.57561664689E+02  0.38450473455E+02 -0.72197365834E+02  0.10002121667E+03  0.00000000000E+00 0.  1.
         11    1    4    4    0    0  0.53839496756E+02  0.13501705756E+03 -0.30841483167E+02  0.14859170343E+03  0.00000000000E+00 0. -1.
         21    1    1    2  502  501 -0.14102572082E+03  0.21849202873E+02 -0.10093359985E+03  0.17479483166E+03  0.00000000000E+00 0. -1.
<scales pt_clust_5="13000.00000" pt_clust_6="13000.00000" pt_clust_7="13000.00000" pt_clust_8="13000.00000" pt_clust_9="142.70824"></scales>
<clustering>
<clus scale="   80.827">  5  6 -1 -1</clus>
<clus scale="   93.221">  7  8 -1 -1</clus>
<clus scale="  142.708">  2  9  1 -1</clus>
<clus scale="  206.217">  2  5  1 -1</clus>
<clus scale="  211.383">  1  5  2 -1</clus>
</clustering>
</event>
<event>
 9    1  0.2674825E-005  0.1011525E+03  0.7546771E-02  0.1282366E+00
          1   -1    0    0  502    0  0.00000000000E+00  0.00000000000E+00  0.63737037128E+03  0.63737037128E+03  0.00000000000E+00 0. -1.
         -2   -1    0    0    0  501 -0.00000000000E+00 -0.00000000000E+00 -0.59477972848E+02  0.59477972848E+02  0.00000000000E+00 0.  1.
         23    2    1    2    0    0  0.35747969735E+02  0.20113765819E+02  0.11471915913E+02  0.99508882681E+02  0.89932930355E+02 0.  0.
        -24    2    1    2    0    0 -0.87869062362E+02 -0.32519747503E+02  0.48011179015E+03  0.49575350249E+03  0.80533831980E+02 0.  0.
         11    1    4    4    0    0 -0.59392895812E+02 -0.54295066131E+02  0.24377065892E+03  0.25670918260E+03  0.00000000000E+00 0. -1.
        -12    1    4    4    0    0 -0.28476166549E+02  0.21775318628E+02  0.23634113123E+03  0.23904431990E+03  0.00000000000E+00 0.  1.
        -13    1    3    3    0    0  0.27307081385E+01 -0.30999340532E+02 -0.13257983553E+02  0.33825877789E+02  0.00000000000E+00 0.  1.
         13    1    3    3    0    0  0.33017261597E+02  0.51113106350E+02  0.24729899465E+02  0.65683004892E+02  0.00000000000E+00 0. -1.
         21    1    1    2  502  501  0.52121092627E+02  0.12405981684E+02  0.86308692363E+02  0.10158595895E+03  0.00000000000E+00 0. -1.
<scales pt_clust_5="13000.00000" pt_clust_6="13000.00000" pt_clust_7="13000.00000" pt_clust_8="13000.00000" pt_clust_9="53.57720"></scales>
<clustering>
<clus scale="   53.577">  1  9  2 -1</clus>
<clus scale="   80.534">  5  6 -1 -1</clus>
<clus scale="   89.933">  7  8 -1 -1</clus>
<clus scale="   92.896">  1  5  2 -1</clus>
<clus scale="   53.577">  1  5  2 -1</clus>
</clustering>
</event>
<event>
 9    1  0.2674825E-005  0.1279637E+03  0.7546771E-02  0.1234833E+00
         -2   -1    0    0    0  501 -0.00000000000E+00  0.00000000000E+00  0.11463930219E+03  0.11463930219E+03  0.00000000000E+00 0.  1.
          1   -1    0    0  502    0  0.00000000000E+00 -0.00000000000E+00 -0.20725811569E+03  0.20725811569E+03  0.00000000000E+00 0. -1.
         23    2    1    2    0    0 -0.17452223153E+02 -0.76598669778E+02 -0.20545192384E+02  0.12545740887E+03  0.95632213216E+02 0.  0.
        -24    2    1    2    0    0  0.68484614337E+02  0.66036732020E+02 -0.72793750687E+02  0.14432112505E+03  0.80490152317E+02 0.  0.
         11    1    4    4    0    0  0.20627140394E+02  0.47413167471E+02  0.40865905971E+01  0.51867018357E+02  0.00000000000E+00 0. -1.
        -12    1    4    4    0    0  0.47857473943E+02  0.18623564549E+02 -0.76880341284E+02  0.92454106694E+02  0.00000000000E+00 0.  1.
        -11    1    3    3    0    0 -0.40945406469E+02 -0.71169544493E+02 -0.42845175544E+02  0.92613926824E+02  0.00000000000E+00 0. -1.
         11    1    3    3    0    0  0.23493183317E+02 -0.54291252845E+01  0.22299983161E+02  0.32843482042E+02  0.00000000000E+00 0.  1.
         21    1    1    2  502  501 -0.51032391185E+02  0.10561937757E+02  0.72012956525E+00  0.52118883965E+02  0.00000000000E+00 0. -1.
<scales pt_clust_5="13000.00000" pt_clust_6="13000.00000" pt_clust_7="13000.00000" pt_clust_8="13000.00000" pt_clust_9="52.11391"></scales>
<clustering>
<clus scale="   52.114">  1  9  2 -1</clus>
<clus scale="   80.490">  5  6 -1 -1</clus>
<clus scale="   95.632">  7  8 -1 -1</clus>
<clus scale="  117.081">  2  5  1 -1</clus>
<clus scale="  117.081">  2  5  1 -1</clus>
</clustering>
</event>
<event>
 9    1  0.2674825E-005  0.1424818E+03  0.7546771E-02  0.1212053E+00
         -2   -1    0    0    0  501 -0.00000000000E+00  0.00000000000E+00  0.89434082757E+02  0.89434082757E+02  0.00000000000E+00 0.  1.
          1   -1    0    0  502    0  0.00000000000E+00 -0.00000000000E+00 -0.44626720094E+03  0.44626720094E+03  0.00000000000E+00 0. -1.
        -24    2    1    2    0    0 -0.93177833464E+02 -0.50848181423E+02  0.37203702569E+01  0.13403728249E+03  0.81758826681E+02 0.  0.
         23    2    1    2    0    0  0.10587606914E+03  0.67928371842E+02 -0.32321705884E+03  0.35868741375E+03  0.91451560608E+02 0.  0.
         13    1    3    3    0    0 -0.57719870230E+02  0.92352338605E+01 -0.17669080095E+02  0.61066106436E+02  0.00000000000E+00 0. -1.
        -14    1    3    3    0    0 -0.35457963234E+02 -0.60083415284E+02  0.21389450352E+02  0.72971176057E+02  0.00000000000E+00 0.  1.
        -11    1    4    4    0    0  0.80952208470E+01  0.52558340921E+02 -0.79591179822E+02  0.95721824608E+02  0.00000000000E+00 0.  1.
         11    1    4    4    0    0  0.97780848294E+02  0.15370030921E+02 -0.24362587902E+03  0.26296558914E+03  0.00000000000E+00 0. -1.
         21    1    1    2  502  501 -0.12698235677E+02 -0.17080190419E+02 -0.37336429591E+02  0.42976587448E+02  0.00000000000E+00 0. -1.
<scales pt_clust_5="13000.00000" pt_clust_6="13000.00000" pt_clust_7="13000.00000" pt_clust_8="13000.00000" pt_clust_9="21.28328"></scales>
<clustering>
<clus scale="   21.283">  2  9  1 -1</clus>
<clus scale="   81.759">  5  6 -1 -1</clus>
<clus scale="   91.452">  7  8 -1 -1</clus>
<clus scale="  136.463">  1  5  2 -1</clus>
<clus scale="   21.283">  2  5  1 -1</clus>
</clustering>
</event>
<event>
 9    1  0.2674825E-005  0.1964980E+03  0.7546771E-02  0.1153764E+00
         -2   -1    0    0    0  501 -0.00000000000E+00  0.00000000000E+00  0.16349965293E+03  0.16349965293E+03  0.00000000000E+00 0.  1.
          1   -1    0    0  502    0  0.00000000000E+00 -0.00000000000E+00 -0.78510507614E+03  0.78510507614E+03  0.00000000000E+00 0. -1.
         23    2    1    2    0    0 -0.18340931649E+03 -0.36514681724E+02  0.48605095468E+02  0.21212736878E+03  0.87540081816E+02 0.  0.
        -24    2    1    2    0    0  0.12198516620E+03  0.94659972488E+02 -0.22525566512E+03  0.28355504600E+03  0.76305034429E+02 0.  0.
         13    1    4    4    0    0  0.57606142448E+02  0.61217090086E+02 -0.17834541242E+03  0.19716258747E+03  0.00000000000E+00 0. -1.
        -14    1    4    4    0    0  0.64379023756E+02  0.33442882402E+02 -0.46910252704E+02  0.86392458536E+02  0.00000000000E+00 0.  1.
        -11    1    3    3    0    0 -0.81700848836E+02 -0.60205942427E+02  0.16119042828E+02  0.10275995205E+03  0.00000000000E+00 0. -1.
         11    1    3    3    0    0 -0.10170846765E+03  0.23691260702E+02  0.32486052639E+02  0.10936741673E+03  0.00000000000E+00 0.  1.
         21    1    1    2  502  501  0.61424150284E+02 -0.58145290764E+02 -0.44495485356E+03  0.45292231429E+03  0.00000000000E+00 0.  1.
<scales pt_clust_5="13000.00000" pt_clust_6="13000.00000" pt_clust_7="13000.00000" pt_clust_8="13000.00000" pt_clust_9="84.58015"></scales>
<clustering>
<clus scale="   76.305">  5  6 -1 -1</clus>
<clus scale="   84.580">  2  9  1 -1</clus>
<clus scale="   87.540">  7  8 -1 -1</clus>
<clus scale="  191.757">  2  5  1 -1</clus>
<clus scale="   84.580">  2  5  1 -1</clus>
</clustering>
</event>
<event>
 9    1  0.2674825E-005  0.1291391E+03  0.7546771E-02  0.1231634E+00
          3   -1    0    0  502    0  0.00000000000E+00  0.00000000000E+00  0.27610930312E+03  0.27610930312E+03  0.00000000000E+00 0. -1.
         -4   -1    0    0    0  501 -0.00000000000E+00 -0.00000000000E+00 -0.15231563321E+03  0.15231563321E+03  0.00000000000E+00 0.  1.
         23    2    1    2    0    0  0.94643682460E+02 -0.38377867657E+02 -0.92849893271E+02  0.16459962364E+03  0.89675225487E+02 0.  0.
        -24    2    1    2    0    0 -0.41103496812E+02  0.27225902291E+02  0.16115682854E+03  0.18591706195E+03  0.78504033874E+02 0.  0.
         13    1    4    4    0    0 -0.61432743815E+02  0.33403022598E+02  0.13649930155E+03  0.15336819505E+03  0.00000000000E+00 0. -1.
        -14    1    4    4    0    0  0.20329247003E+02 -0.61771203069E+01  0.24657526993E+02  0.32548866899E+02  0.00000000000E+00 0.  1.
        -13    1    3    3    0    0  0.10199664836E+03 -0.60241471328E+01 -0.63475157378E+02  0.12028591867E+03  0.00000000000E+00 0.  1.
         13    1    3    3    0    0 -0.73529659031E+01 -0.32353720524E+02 -0.29374735892E+02  0.44313704969E+02  0.00000000000E+00 0. -1.
         21    1    1    2  502  501 -0.53540185648E+02  0.11151965366E+02  0.55486734648E+02  0.77908250736E+02  0.00000000000E+00 0. -1.
<scales pt_clust_5="13000.00000" pt_clust_6="13000.00000" pt_clust_7="13000.00000" pt_clust_8="13000.00000" pt_clust_9="54.68928"></scales>
<clustering>
<clus scale="   54.689">  1  9  2 -1</clus>
<clus scale="   78.504">  5  6 -1 -1</clus>
<clus scale="   89.675">  7  8 -1 -1</clus>
<clus scale="  121.648">  1  5  2 -1</clus>
<clus scale="   54.689">  1  5  2 -1</clus>
</clustering>
</event>
<event>
 9    1  0.2674825E-005  0.1132882E+03  0.7546771E-02  0.1258838E+00
          1   -1    0    0  502    0  0.00000000000E+00  0.00000000000E+00  0.56456068511E+03  0.56456068511E+03  0.00000000000E+00 0. -1.
         -2   -1    0    0    0  501 -0.00000000000E+00 -0.00000000000E+00 -0.46249649401E+02  0.46249649401E+02  0.00000000000E+00 0.  1.
        -24    2    1    2    0    0  0.77380443212E+02 -0.80507627999E+02  0.16297426496E+03  0.21362130439E+03  0.81266472115E+02 0.  0.
         23    2    1    2    0    0 -0.43562328545E+02  0.19661598566E+02  0.25069933115E+03  0.27151127575E+03  0.92649680507E+02 0.  0.
         11    1    3    3    0    0  0.51293448852E+02 -0.51892947341E+01  0.98207207493E+02  0.11091709642E+03  0.00000000000E+00 0. -1.
        -12    1    3    3    0    0  0.26086994359E+02 -0.75318333265E+02  0.64767057471E+02  0.10270420797E+03  0.00000000000E+00 0.  1.
        -13    1    4    4    0    0 -0.51046761965E+02 -0.54910066495E+01  0.23581969508E+03  0.24134384527E+03  0.00000000000E+00 0. -1.
         13    1    4    4    0    0  0.74844334195E+01  0.25152605216E+02  0.14879636069E+02  0.30167430489E+02  0.00000000000E+00 0.  1.
         21    1    1    2  502  501 -0.33818114666E+02  0.60846029433E+02  0.10463743960E+03  0.12567775437E+03  0.00000000000E+00 0. -1.
<scales pt_clust_5="13000.00000" pt_clust_6="13000.00000" pt_clust_7="13000.00000" pt_clust_8="13000.00000" pt_clust_9="69.61253"></scales>
<clustering>
<clus scale="   69.613">  2  9  1 -1</clus>
<clus scale="   81.266">  5  6 -1 -1</clus>
<clus scale="   92.650">  7  8 -1 -1</clus>
<clus scale="  104.185">  2  5  1 -1</clus>
<clus scale="  113.288">  1  5  2 -1</clus>
</clustering>
</event>
<event>
 9    1  0.2674825E-005  0.2046644E+03  0.7546771E-02  0.1182513E+00
         -2   -1    0    0    0  501 -0.00000000000E+00  0.00000000000E+00  0.34662844355E+03  0.34662844355E+03  0.00000000000E+00 0.  1.
          1   -1    0    0  502    0  0.00000000000E+00 -0.00000000000E+00 -0.51856293068E+03  0.51856293068E+03  0.00000000000E+00 0. -1.
         23    2    1    2    0    0 -0.22171790315E+02  0.18089650506E+03  0.26928789479E+03  0.33781955816E+03  0.91602127507E+02 0.  0.
        -24    2    1    2    0    0 -0.38987604053E+02  0.17267560083E+01 -0.20221873858E+03  0.22042806139E+03  0.78569059174E+02 0.  0.
         13    1    4    4    0    0  0.20852038158E+02 -0.13623924420E+02 -0.43752544885E+02  0.50345843879E+02  0.00000000000E+00 0. -1.
        -14    1    4    4    0    0 -0.59839642211E+02  0.15350680428E+02 -0.15846619369E+03  0.17008221751E+03  0.00000000000E+00 0.  1.
        -13    1    3    3    0    0 -0.25032151114E+02  0.64315164089E+02  0.17412216144E+03  0.18730076355E+03  0.00000000000E+00 0.  1.
         13    1    3    3    0    0  0.28603607991E+01  0.11658134097E+03  0.95165733354E+02  0.15051879461E+03  0.00000000000E+00 0. -1.
         21    1    1    2  502  501  0.61159394368E+02 -0.18262326107E+03 -0.23900364335E+03  0.30694375468E+03  0.00000000000E+00 0. -1.
<scales pt_clust_5="13000.00000" pt_clust_6="13000.00000" pt_clust_7="13000.00000" pt_clust_8="13000.00000" pt_clust_9="183.02068"></scales>
<clustering>
<clus scale="   78.569">  5  6 -1 -1</clus>
<clus scale="   87.727">  2  5  1 -1</clus>
<clus scale="   91.602">  7  8 -1 -1</clus>
<clus scale="  183.021">  2  9  1 -1</clus>
<clus scale="   87.727">  2  5  1 -1</clus>
</clustering>
</event>
<event>
 9    1  0.2674825E-005  0.1133589E+03  0.7546771E-02  0.1260250E+00
          1   -1    0    0  502    0  0.00000000000E+00  0.00000000000E+00  0.11454593212E+03  0.11454593212E+03  0.00000000000E+00 0. -1.
         -2   -1    0    0    0  501 -0.00000000000E+00 -0.00000000000E+00 -0.30838126954E+03  0.30838126954E+03  0.00000000000E+00 0.  1.
         23    2    1    2    0    0  0.48594214258E+02  0.46412027960E+02 -0.26144978634E+03  0.28567709336E+03  0.93487629633E+02 0.  0.
        -24    2    1    2    0    0 -0.30805181064E+02 -0.36342577404E+02  0.33590582299E+02  0.97557954967E+02  0.78227138803E+02 0.  0.
         11    1    4    4    0    0 -0.54551106175E+02 -0.29304681725E+02  0.88542588234E+01  0.62553860434E+02  0.00000000000E+00 0. -1.
        -12    1    4    4    0    0  0.23745925111E+02 -0.70378956793E+01  0.24736323476E+02  0.35004094533E+02  0.00000000000E+00 0.  1.
        -11    1    3    3    0    0 -0.60826382732E+01  0.36807015608E+02 -0.30612905588E+02  0.48258728484E+02  0.00000000000E+00 0. -1.
         11    1    3    3    0    0  0.54676852532E+02  0.96050123525E+01 -0.23083688076E+03  0.23741836488E+03  0.00000000000E+00 0.  1.
         21    1    1    2  502  501 -0.17789033194E+02 -0.10069450556E+02  0.34023866622E+02  0.39692153335E+02  0.00000000000E+00 0. -1.
<scales pt_clust_5="13000.00000" pt_clust_6="13000.00000" pt_clust_7="13000.00000" pt_clust_8="13000.00000" pt_clust_9="20.44122"></scales>
<clustering>
<clus scale="   20.441">  1  9  2 -1</clus>
<clus scale="   78.227">  5  6 -1 -1</clus>
<clus scale="   93.488">  7  8 -1 -1</clus>
<clus scale="  101.142">  1  5  2 -1</clus>
<clus scale="   20.441">  1  5  2 -1</clus>
</clustering>
</event>
<event>
 9    1  0.2674825E-005  0.9948316E+02  0.7546771E-02  0.1284521E+00
          1   -1    0    0  502    0  0.00000000000E+00  0.00000000000E+00  0.33095483783E+03  0.33095483783E+03  0.00000000000E+00 0. -1.
         -2   -1    0    0    0  501 -0.00000000000E+00 -0.00000000000E+00 -0.35945761628E+03  0.35945761628E+03  0.00000000000E+00 0.  1.
        -24    2    1    2    0    0 -0.39645300340E+02 -0.11806906761E+02 -0.33057174772E+03  0.34365070701E+03  0.84302877504E+02 0.  0.
         23    2    1    2    0    0  0.10763302803E+02  0.53738163423E+02  0.25988988057E+03  0.28064461172E+03  0.90636687763E+02 0.  0.
         11    1    3    3    0    0 -0.10703557855E+02  0.36142130991E+02 -0.14424077797E+03  0.14908461293E+03  0.00000000000E+00 0. -1.
        -12    1    3    3    0    0 -0.28941742485E+02 -0.47949037753E+02 -0.18633096975E+03  0.19456609408E+03  0.00000000000E+00 0.  1.
        -13    1    4    4    0    0  0.39966918837E+02  0.97960789564E+00  0.15066816292E+03  0.15588203729E+03  0.00000000000E+00 0. -1.
         13    1    4    4    0    0 -0.29203616034E+02  0.52758555527E+02  0.10922171765E+03  0.12476257442E+03  0.00000000000E+00 0.  1.
         21    1    1    2  502  501  0.28881997537E+02 -0.41931256662E+02  0.42179088701E+02  0.66117135378E+02  0.00000000000E+00 0.  1.
<scales pt_clust_5="13000.00000" pt_clust_6="13000.00000" pt_clust_7="13000.00000" pt_clust_8="13000.00000" pt_clust_9="50.91562"></scales>
<clustering>
<clus scale="   50.916">  1  9  2 -1</clus>
<clus scale="   84.303">  5  6 -1 -1</clus>
<clus scale="   90.637">  7  8 -1 -1</clus>
<clus scale="   93.749">  2  5  1 -1</clus>
<clus scale="   50.916">  1  5  2 -1</clus>
</clustering>
</event>
<event>
 9    1  0.2674825E-005  0.1258150E+03  0.7546771E-02  0.1236205E+00
         -2   -1    0    0    0  501 -0.00000000000E+00  0.00000000000E+00  0.32709218946E+02  0.32709218946E+02  0.00000000000E+00 0.  1.
          1   -1    0    0  502    0  0.00000000000E+00 -0.00000000000E+00 -0.58424737417E+03  0.58424737417E+03  0.00000000000E+00 0. -1.
        -24    2    1    2    0    0  0.95873057563E+02 -0.81687461328E+01 -0.21163926916E+03  0.24596911827E+03  0.80319706860E+02 0.  0.
         23    2    1    2    0    0 -0.80642124060E+02 -0.12523007772E+02 -0.25290306037E+03  0.28027692583E+03  0.89079847960E+02 0.  0.
         13    1    3    3    0    0  0.65016810899E+02 -0.43497078590E+02 -0.12538367924E+03  0.14778446659E+03  0.00000000000E+00 0. -1.
        -14    1    3    3    0    0  0.30856246664E+02  0.35328332458E+02 -0.86255589921E+02  0.98184651677E+02  0.00000000000E+00 0.  1.
        -13    1    4    4    0    0  0.79333086648E+01 -0.28725914860E+02 -0.79213252904E+02  0.84633651738E+02  0.00000000000E+00 0. -1.
         13    1    4    4    0    0 -0.88575432725E+02  0.16202907087E+02 -0.17368980747E+03  0.19564327410E+03  0.00000000000E+00 0.  1.
         21    1    1    2  502  501 -0.15230933503E+02  0.20691753905E+02 -0.86995825692E+02  0.90710549017E+02  0.00000000000E+00 0.  1.
<scales pt_clust_5="13000.00000" pt_clust_6="13000.00000" pt_clust_7="13000.00000" pt_clust_8="13000.00000" pt_clust_9="25.69300"></scales>
<clustering>
<clus scale="   25.693">  2  9  1 -1</clus>
<clus scale="   80.320">  5  6 -1 -1</clus>
<clus scale="   89.080">  7  8 -1 -1</clus>
<clus scale="  119.773">  1  5  2 -1</clus>
<clus scale="   25.693">  2  5  1 -1</clus>
</clustering>
</event>
<event>
 9    1  0.2674825E-005  0.1654762E+03  0.7546771E-02  0.1184838E+00
         -2   -1    0    0    0  501 -0.00000000000E+00  0.00000000000E+00  0.20566303584E+03  0.20566303584E+03  0.00000000000E+00 0.  1.
          1   -1    0    0  502    0  0.00000000000E+00 -0.00000000000E+00 -0.18319394246E+03  0.18319394246E+03  0.00000000000E+00 0. -1.
        -24    2    1    2    0    0  0.11170018767E+03  0.65001130109E+02  0.80703910392E+02  0.17213592516E+03  0.80097295438E+02 0.  0.
         23    2    1    2    0    0 -0.13389836125E+03 -0.69188277927E+02 -0.29908196983E+02  0.18049000955E+03  0.94690835628E+02 0.  0.
         11    1    3    3    0    0  0.31525177135E+02  0.18387515593E+02 -0.14460202046E+02  0.39256018217E+02  0.00000000000E+00 0. -1.
        -12    1    3    3    0    0  0.80175010533E+02  0.46613614516E+02  0.95164112437E+02  0.13287990694E+03  0.00000000000E+00 0.  1.
        -11    1    4    4    0    0 -0.67982532537E+02  0.14966056836E+02 -0.23233820317E+02  0.73385407227E+02  0.00000000000E+00 0.  1.
         11    1    4    4    0    0 -0.65915828712E+02 -0.84154334763E+02 -0.66743766659E+01  0.10710460232E+03  0.00000000000E+00 0. -1.
         21    1    1    2  502  501  0.22198173581E+02  0.41871478181E+01 -0.28326620028E+02  0.36231043587E+02  0.00000000000E+00 0.  1.
<scales pt_clust_5="13000.00000" pt_clust_6="13000.00000" pt_clust_7="13000.00000" pt_clust_8="13000.00000" pt_clust_9="22.58962"></scales>
<clustering>
<clus scale="   22.590">  2  9  1 -1</clus>
<clus scale="   80.097">  5  6 -1 -1</clus>
<clus scale="   94.691">  7  8 -1 -1</clus>
<clus scale="  157.580">  1  5  2 -1</clus>
<clus scale="   22.590">  2  5  1 -1</clus>
</clustering>
</event>
<event>
 9    1  0.2674825E-005  0.1154233E+03  0.7546771E-02  0.1257063E+00
          1   -1    0    0  502    0  0.00000000000E+00  0.00000000000E+00  0.18417955182E+03  0.18417955182E+03  0.00000000000E+00 0. -1.
         -2   -1    0    0    0  501 -0.00000000000E+00 -0.00000000000E+00 -0.13563411592E+03  0.13563411592E+03  0.00000000000E+00 0.  1.
         23    2    1    2    0    0  0.56055291654E+02  0.48314468403E+01 -0.66241643323E+02  0.13007356590E+03  0.96776229695E+02 0.  0.
        -24    2    1    2    0    0 -0.84101256887E+02  0.13354793136E+00  0.67292022751E+02  0.13435953009E+03  0.80319535329E+02 0.  0.
         13    1    4    4    0    0 -0.13265866597E+02  0.16219449725E+02  0.57331881733E+02  0.61040956980E+02  0.00000000000E+00 0. -1.
        -14    1    4    4    0    0 -0.70835390290E+02 -0.16085901794E+02  0.99601410178E+01  0.73318573112E+02  0.00000000000E+00 0.  1.
        -11    1    3    3    0    0 -0.13029423188E+02 -0.19985369098E+02 -0.49252278093E+02  0.54726298468E+02  0.00000000000E+00 0. -1.
         11    1    3    3    0    0  0.69084714841E+02  0.24816815939E+02 -0.16989365230E+02  0.75347267429E+02  0.00000000000E+00 0.  1.
         21    1    1    2  502  501  0.28045965233E+02 -0.49649947717E+01  0.47495056472E+02  0.55380571758E+02  0.00000000000E+00 0. -1.
<scales pt_clust_5="13000.00000" pt_clust_6="13000.00000" pt_clust_7="13000.00000" pt_clust_8="13000.00000" pt_clust_9="28.48205"></scales>
<clustering>
<clus scale="   28.482">  1  9  2 -1</clus>
<clus scale="   80.320">  5  6 -1 -1</clus>
<clus scale="   96.776">  7  8 -1 -1</clus>
<clus scale="  102.020">  1  5  2 -1</clus>
<clus scale="   28.482">  1  5  2 -1</clus>
</clustering>
</event>
<event>
 9    1  0.2674825E-005  0.8806950E+02  0.7546771E-02  0.1320329E+00
         -2   -1    0    0    0  501 -0.00000000000E+00  0.00000000000E+00  0.37863797791E+03  0.37863797791E+03  0.00000000000E+00 0.  1.
          1   -1    0    0  502    0  0.00000000000E+00 -0.00000000000E+00 -0.53273179905E+02  0.53273179905E+02  0.00000000000E+00 0. -1.
        -24    2    1    2    0    0 -0.18783315059E+02  0.83938507647E+01  0.12348192011E+03  0.14945425334E+03  0.81642633433E+02 0.  0.
         23    2    1    2    0    0 -0.41969706488E+02 -0.21262551811E+02  0.70009274965E+01  0.77919603018E+02  0.61716279671E+02 0.  0.
         11    1    3    3    0    0 -0.42181289667E+02 -0.20497959294E+02  0.72802433736E+02  0.86600357338E+02  0.00000000000E+00 0. -1.
        -12    1    3    3    0    0  0.23397974608E+02  0.28891810058E+02  0.50679486370E+02  0.62853896005E+02  0.00000000000E+00 0.  1.
        -13    1    4    4    0    0 -0.22811735485E+02 -0.28546081414E+02 -0.21815391949E+02  0.42557788545E+02  0.00000000000E+00 0. -1.
         13    1    4    4    0    0 -0.19157971003E+02  0.72835296033E+01  0.28816319445E+02  0.35361814473E+02  0.00000000000E+00 0.  1.
         21    1    1    2  502  501  0.60753021547E+02  0.12868701046E+02  0.19488195040E+03  0.20453730145E+03  0.00000000000E+00 0.  1.
<scales pt_clust_5="13000.00000" pt_clust_6="13000.00000" pt_clust_7="13000.00000" pt_clust_8="13000.00000" pt_clust_9="62.10099"></scales>
<clustering>
<clus scale="   61.716">  7  8 -1 -1</clus>
<clus scale="   62.101">  1  9  2 -1</clus>
<clus scale="   69.997">  2  7  1 -1</clus>
<clus scale="   81.643">  5  6 -1 -1</clus>
<clus scale="   69.997">  2  5  1 -1</clus>
</clustering>
</event>
<event>
 9    1  0.2674825E-005  0.1369866E+03  0.7546771E-02  0.1235232E+00
         -2   -1    0    0    0  501 -0.00000000000E+00  0.00000000000E+00  0.15391628448E+03  0.15391628448E+03  0.00000000000E+00 0.  1.
          1   -1    0    0  502    0  0.00000000000E+00 -0.00000000000E+00 -0.50946037718E+03  0.50946037718E+03  0.00000000000E+00 0. -1.
        -24    2    1    2    0    0  0.18138675649E+02  0.46175287885E+02  0.10089480720E+03  0.13834731923E+03  0.80616684701E+02 0.  0.
         23    2    1    2    0    0  0.28522482193E+02  0.38240879334E+02 -0.91375914980E+02  0.14743917321E+03  0.10541752755E+03 0.  0.
         11    1    3    3    0    0  0.34915332179E+02  0.62236495951E+02  0.73766221490E+02  0.10263487362E+03  0.00000000000E+00 0. -1.
        -12    1    3    3    0    0 -0.16776656530E+02 -0.16061208067E+02  0.27128585712E+02  0.35712445612E+02  0.00000000000E+00 0.  1.
        -13    1    4    4    0    0 -0.33582303776E+02  0.33403801907E+01 -0.29357424160E+01  0.33875475647E+02  0.00000000000E+00 0.  1.
         13    1    4    4    0    0  0.62104785969E+02  0.34900499143E+02 -0.88440172564E+02  0.11356369756E+03  0.00000000000E+00 0. -1.
         21    1    1    2  502  501 -0.46661157842E+02 -0.84416167218E+02 -0.36506298492E+03  0.37759016923E+03  0.00000000000E+00 0. -1.
<scales pt_clust_5="13000.00000" pt_clust_6="13000.00000" pt_clust_7="13000.00000" pt_clust_8="13000.00000" pt_clust_9="87.47840"></scales>
<clustering>
<clus scale="   80.617">  5  6 -1 -1</clus>
<clus scale="   94.658">  1  5  2 -1</clus>
<clus scale="   87.478">  2  9  1 -1</clus>
<clus scale="  105.418">  7  8 -1 -1</clus>
<clus scale="   87.478">  2  5  1 -1</clus>
</clustering>
</event>
<event>
 9    1  0.2674825E-005  0.9926304E+02  0.7546771E-02  0.1296899E+00
          1   -1    0    0  502    0  0.00000000000E+00  0.00000000000E+00  0.10925781606E+03  0.10925781606E+03  0.00000000000E+00 0. -1.
         -2   -1    0    0    0  501 -0.00000000000E+00 -0.00000000000E+00 -0.20695420890E+03  0.20695420890E+03  0.00000000000E+00 0.  1.
         23    2    1    2    0    0 -0.28939477896E+02  0.21881118768E+02 -0.11160902464E+03  0.14849141186E+03  0.90977185466E+02 0.  0.
        -24    2    1    2    0    0  0.70358673802E+02  0.27616947394E+02  0.25979081742E+02  0.10206082664E+03  0.63470157421E+02 0.  0.
         11    1    4    4    0    0  0.24397297867E+02 -0.13812203263E+02 -0.10838997947E+02  0.30058093397E+02  0.00000000000E+00 0. -1.
        -12    1    4    4    0    0  0.45961375935E+02  0.41429150656E+02  0.36818079689E+02  0.72002733239E+02  0.00000000000E+00 0.  1.
        -11    1    3    3    0    0 -0.32669559847E+02 -0.21368627527E+02 -0.93746662597E+02  0.10154976677E+03  0.00000000000E+00 0.  1.
         11    1    3    3    0    0  0.37300819515E+01  0.43249746295E+02 -0.17862362046E+02  0.46941645091E+02  0.00000000000E+00 0. -1.
         21    1    1    2  502  501 -0.41419195906E+02 -0.49498066162E+02 -0.12066449938E+02  0.65659786456E+02  0.00000000000E+00 0. -1.
<scales pt_clust_5="13000.00000" pt_clust_6="13000.00000" pt_clust_7="13000.00000" pt_clust_8="13000.00000" pt_clust_9="64.54152"></scales>
<clustering>
<clus scale="   63.470">  5  6 -1 -1</clus>
<clus scale="   64.542">  1  9  2 -1</clus>
<clus scale="   74.865">  1  5  2 -1</clus>
<clus scale="   90.977">  7  8 -1 -1</clus>
<clus scale="   64.542">  1  5  2 -1</clus>
</clustering>
</event>
<event>
 9    1  0.2674825E-005  0.1244948E+03  0.7546771E-02  0.1236563E+00
         -2   -1    0    0    0  501 -0.00000000000E+00  0.00000000000E+00  0.96800987445E+02  0.96800987445E+02  0.00000000000E+00 0.  1.
          1   -1    0    0  502    0  0.00000000000E+00 -0.00000000000E+00 -0.32307910636E+03  0.32307910636E+03  0.00000000000E+00 0. -1.
        -24    2    1    2    0    0  0.49955781433E+02 -0.75560531480E+02  0.25818959599E+02  0.12921974047E+03  0.88465522297E+02 0.  0.
         23    2    1    2    0    0 -0.46896775409E+02  0.46440010787E+02 -0.17257286361E+03  0.20591684031E+03  0.90908578943E+02 0.  0.
         11    1    3    3    0    0 -0.15517341565E+02 -0.31769201076E+02 -0.17365142577E+02  0.39390585207E+02  0.00000000000E+00 0. -1.
        -12    1    3    3    0    0  0.65473122999E+02 -0.43791330404E+02  0.43184102176E+02  0.89829155259E+02  0.00000000000E+00 0.  1.
        -11    1    4    4    0    0 -0.20741264790E+02  0.48410219242E+02 -0.29310624597E+02  0.60273228770E+02  0.00000000000E+00 0.  1.
         11    1    4    4    0    0 -0.26155510619E+02 -0.19702084551E+01 -0.14326223901E+03  0.14564361154E+03  0.00000000000E+00 0. -1.
         21    1    1    2  502  501 -0.30590060246E+01  0.29120520693E+02 -0.79524214902E+02  0.84743513021E+02  0.00000000000E+00 0. -1.
<scales pt_clust_5="13000.00000" pt_clust_6="13000.00000" pt_clust_7="13000.00000" pt_clust_8="13000.00000" pt_clust_9="29.28075"></scales>
<clustering>
<clus scale="   29.281">  2  9  1 -1</clus>
<clus scale="   88.466">  5  6 -1 -1</clus>
<clus scale="   90.909">  7  8 -1 -1</clus>
<clus scale="  122.722">  1  5  2 -1</clus>
<clus scale="   29.281">  2  5  1 -1</clus>
</clustering>
</event>
<event>
 9    1  0.2674825E-005  0.1264606E+03  0.7546771E-02  0.1247056E+00
          1   -1    0    0  502    0  0.00000000000E+00  0.00000000000E+00  0.16824735867E+03  0.16824735867E+03  0.00000000000E+00 0. -1.
         -2   -1    0    0    0  501 -0.00000000000E+00 -0.00000000000E+00 -0.18757943813E+03  0.18757943813E+03  0.00000000000E+00 0.  1.
         23    2    1    2    0    0  0.18519512694E+02  0.81508606231E+00 -0.69137136465E+02  0.11723172770E+03  0.92842326689E+02 0.  0.
        -24    2    1    2    0    0  0.67863522718E+02  0.50580719876E+02 -0.14729780917E+02  0.11914506708E+03  0.82551278761E+02 0.  0.
         11    1    4    4    0    0  0.62242629975E+02  0.37159412995E+00  0.97522638848E+01  0.63003092935E+02  0.00000000000E+00 0. -1.
        -12    1    4    4    0    0  0.56208927422E+01  0.50209125746E+02 -0.24482044802E+02  0.56141974147E+02  0.00000000000E+00 0.  1.
        -13    1    3    3    0    0  0.33155823474E+02 -0.38759289803E+02 -0.27474525701E+02  0.57934797306E+02  0.00000000000E+00 0. -1.
         13    1    3    3    0    0 -0.14636310780E+02  0.39574375866E+02 -0.41662610764E+02  0.59296930393E+02  0.00000000000E+00 0.  1.
         21    1    1    2  502  501 -0.86383035412E+02 -0.51395805938E+02  0.64534837925E+02  0.11945000201E+03  0.00000000000E+00 0. -1.
<scales pt_clust_5="13000.00000" pt_clust_6="13000.00000" pt_clust_7="13000.00000" pt_clust_8="13000.00000" pt_clust_9="95.79969"></scales>
<clustering>
<clus scale="   82.551">  5  6 -1 -1</clus>
<clus scale="   92.842">  7  8 -1 -1</clus>
<clus scale="   94.675">  2  7  1 -1</clus>
<clus scale="   95.800">  1  9  2 -1</clus>
<clus scale="   95.800">  1  5  2 -1</clus>
</clustering>
</event>
<event>
 9    1  0.2674825E-005  0.2030338E+03  0.7546771E-02  0.1167769E+00
         -2   -1    0    0    0  501 -0.00000000000E+00  0.00000000000E+00  0.25668423707E+03  0.25668423707E+03  0.00000000000E+00 0.  1.
          1   -1    0    0  502    0  0.00000000000E+00 -0.00000000000E+00 -0.73524830359E+03  0.73524830359E+03  0.00000000000E+00 0. -1.
        -24    2    1    2    0    0  0.65004384010E+02  0.73163488430E+02  0.15370017310E+03  0.19844298723E+03  0.78596501126E+02 0.  0.
         23    2    1    2    0    0  0.12356087282E+03 -0.16722714261E+02 -0.27352543470E+02  0.15736018199E+03  0.92016991777E+02 0.  0.
         13    1    3    3    0    0 -0.16004528969E+02  0.18976949127E+02  0.51783945494E+02  0.57426880088E+02  0.00000000000E+00 0. -1.
        -14    1    3    3    0    0  0.81008912979E+02  0.54186539302E+02  0.10191622761E+03  0.14101610714E+03  0.00000000000E+00 0.  1.
        -13    1    4    4    0    0  0.12941436250E+03  0.72718066619E+01 -0.17607348898E+02  0.13080892603E+03  0.00000000000E+00 0.  1.
         13    1    4    4    0    0 -0.58534896773E+01 -0.23994520923E+02 -0.97451945720E+01  0.26551255959E+02  0.00000000000E+00 0. -1.
         21    1    1    2  502  501 -0.18856525683E+03 -0.56440774169E+02 -0.60491169615E+03  0.63612937144E+03  0.00000000000E+00 0. -1.
<scales pt_clust_5="13000.00000" pt_clust_6="13000.00000" pt_clust_7="13000.00000" pt_clust_8="13000.00000" pt_clust_9="180.98505"></scales>
<clustering>
<clus scale="   78.597">  5  6 -1 -1</clus>
<clus scale="   92.017">  7  8 -1 -1</clus>
<clus scale="  125.522">  1  5  2 -1</clus>
<clus scale="  180.985">  2  9  1 -1</clus>
<clus scale="  180.985">  2  5  1 -1</clus>
</clustering>
</event>
<event>
 9    1  0.2674825E-005  0.9983371E+02  0.7546771E-02  0.1286135E+00
         -2   -1    0    0    0  501 -0.00000000000E+00  0.00000000000E+00  0.30637192957E+03  0.30637192957E+03  0.00000000000E+00 0.  1.
          1   -1    0    0  502    0  0.00000000000E+00 -0.00000000000E+00 -0.20848895011E+03  0.20848895011E+03  0.00000000000E+00 0. -1.
         23    2    1    2    0    0  0.30114470958E+02 -0.17596476240E+02  0.27846996206E+03  0.29572267164E+03  0.93219426181E+02 0.  0.
        -24    2    1    2    0    0 -0.50423408299E+02  0.10719706478E+02 -0.11796751599E+03  0.15294953456E+03  0.82582038485E+02 0.  0.
         11    1    4    4    0    0 -0.51681227902E+02  0.41648682481E+02 -0.81956786966E+02  0.10546315470E+03  0.00000000000E+00 0. -1.
        -12    1    4    4    0    0  0.12578196030E+01 -0.30928976003E+02 -0.36010729024E+02  0.47486379854E+02  0.00000000000E+00 0.  1.
        -13    1    3    3    0    0  0.29467803624E+02 -0.54713590054E+02  0.16373604606E+03  0.17513258168E+03  0.00000000000E+00 0.  1.
         13    1    3    3    0    0  0.64666733363E+00  0.37117113814E+02  0.11473391600E+03  0.12059008997E+03  0.00000000000E+00 0. -1.
         21    1    1    2  502  501  0.20308937341E+02  0.68767697620E+01 -0.62619466614E+02  0.66188673482E+02  0.00000000000E+00 0. -1.
<scales pt_clust_5="13000.00000" pt_clust_6="13000.00000" pt_clust_7="13000.00000" pt_clust_8="13000.00000" pt_clust_9="21.44162"></scales>
<clustering>
<clus scale="   21.442">  2  9  1 -1</clus>
<clus scale="   82.582">  5  6 -1 -1</clus>
<clus scale="   89.982">  2  5  1 -1</clus>
<clus scale="   93.219">  7  8 -1 -1</clus>
<clus scale="   21.442">  2  5  1 -1</clus>
</clustering>
</event>
<event>
 9    1  0.2674825E-005  0.9968528E+02  0.7546771E-02  0.1283683E+00
         -2   -1    0    0    0  501 -0.00000000000E+00  0.00000000000E+00  0.88236090142E+02  0.88236090142E+02  0.00000000000E+00 0.  1.
          1   -1    0    0  502    0  0.00000000000E+00 -0.00000000000E+00 -0.42768201370E+03  0.42768201370E+03  0.00000000000E+00 0. -1.
         23    2    1    2    0    0  0.40487187030E+02 -0.36236823307E+02  0.45445656721E+02  0.11081678993E+03  0.85221672937E+02 0.  0.
        -24    2    1    2    0    0 -0.40594099516E+02 -0.39628127403E+00 -0.25339268387E+03  0.26859506666E+03  0.79293250929E+02 0.  0.
         11    1    4    4    0    0 -0.55699875568E+02 -0.24294977731E+02 -0.16910069018E+03  0.17968796704E+03  0.00000000000E+00 0. -1.
        -12    1    4    4    0    0  0.15105776052E+02  0.23898696457E+02 -0.84291993687E+02  0.88907099616E+02  0.00000000000E+00 0.  1.
        -11    1    3    3    0    0 -0.94587536585E+01  0.19979771162E+02 -0.15175000093E+01  0.22157664199E+02  0.00000000000E+00 0.  1.
         11    1    3    3    0    0  0.49945940688E+02 -0.56216594469E+02  0.46963156730E+02  0.88659125729E+02  0.00000000000E+00 0. -1.
         21    1    1    2  502  501  0.10691248572E+00  0.36633104581E+02 -0.13149889642E+03  0.13650624726E+03  0.00000000000E+00 0. -1.
<scales pt_clust_5="13000.00000" pt_clust_6="13000.00000" pt_clust_7="13000.00000" pt_clust_8="13000.00000" pt_clust_9="36.63326"></scales>
<clustering>
<clus scale="   36.633">  2  9  1 -1</clus>
<clus scale="   79.293">  5  6 -1 -1</clus>
<clus scale="   85.222">  7  8 -1 -1</clus>
<clus scale="   94.667">  2  5  1 -1</clus>
<clus scale="   36.633">  2  5  1 -1</clus>
</clustering>
</event>
<event>
 9    1  0.2674825E-005  0.1024124E+03  0.7546771E-02  0.1279840E+00
          1   -1    0    0  502    0  0.00000000000E+00  0.00000000000E+00  0.18745858980E+03  0.18745858980E+03  0.00000000000E+00 0. -1.
         -2   -1    0    0    0  501 -0.00000000000E+00 -0.00000000000E+00 -0.22453501977E+03  0.22453501977E+03  0.00000000000E+00 0.  1.
        -24    2    1    2    0    0  0.31307778404E+01 -0.46245670694E+02 -0.15150236529E+03  0.17754960031E+03  0.80140065226E+02 0.  0.
         23    2    1    2    0    0  0.42259674880E+02  0.60389767603E+02  0.64605969708E+01  0.11647425483E+03  0.89953924725E+02 0.  0.
         11    1    3    3    0    0 -0.18221662722E+02  0.14688761353E+02 -0.18975068702E+02  0.30130415441E+02  0.00000000000E+00 0. -1.
        -12    1    3    3    0    0  0.21352440562E+02 -0.60934432047E+02 -0.13252729659E+03  0.14741918487E+03  0.00000000000E+00 0.  1.
        -11    1    4    4    0    0  0.61992922305E+01  0.69263159415E+02 -0.18216884154E+02  0.71886517127E+02  0.00000000000E+00 0.  1.
         11    1    4    4    0    0  0.36060382649E+02 -0.88733918120E+01  0.24677481125E+02  0.44587737706E+02  0.00000000000E+00 0. -1.
         21    1    1    2  502  501 -0.45390452720E+02 -0.14144096908E+02  0.10796533835E+03  0.11796975443E+03  0.00000000000E+00 0. -1.
<scales pt_clust_5="13000.00000" pt_clust_6="13000.00000" pt_clust_7="13000.00000" pt_clust_8="13000.00000" pt_clust_9="47.54312"></scales>
<clustering>
<clus scale="   47.543">  1  9  2 -1</clus>
<clus scale="   80.140">  5  6 -1 -1</clus>
<clus scale="   89.954">  7  8 -1 -1</clus>
<clus scale="   93.910">  2  5  1 -1</clus>
<clus scale="   47.543">  1  5  2 -1</clus>
</clustering>
</event>
<event>
 9    1  0.2674825E-005  0.9738873E+02  0.7546771E-02  0.1296042E+00
          1   -1    0    0  502    0  0.00000000000E+00  0.00000000000E+00  0.38262046311E+03  0.38262046311E+03  0.00000000000E+00 0. -1.
         -2   -1    0    0    0  501 -0.00000000000E+00 -0.00000000000E+00 -0.62512741879E+02  0.62512741879E+02  0.00000000000E+00 0.  1.
         23    2    1    2    0    0 -0.55230596410E+01 -0.13351940350E+02 -0.82792206805E+01  0.97720878160E+02  0.96291463975E+02 0.  0.
        -24    2    1    2    0    0  0.26922104886E+02  0.28028876120E+01  0.29308465281E+03  0.30480419067E+03  0.79210637081E+02 0.  0.
         11    1    4    4    0    0  0.48963868842E+02 -0.16141384655E+02  0.22396763698E+03  0.22982494896E+03  0.00000000000E+00 0. -1.
        -12    1    4    4    0    0 -0.22041763956E+02  0.18944272267E+02  0.69117015830E+02  0.74979241709E+02  0.00000000000E+00 0.  1.
        -11    1    3    3    0    0 -0.50017807264E+02 -0.10131418201E+02 -0.13543714719E+02  0.52800178851E+02  0.00000000000E+00 0.  1.
         11    1    3    3    0    0  0.44494747623E+02 -0.32205221499E+01  0.52644940386E+01  0.44920699310E+02  0.00000000000E+00 0. -1.
         21    1    1    2  502  501 -0.21399045245E+02  0.10549052738E+02  0.35302289104E+02  0.42608136160E+02  0.00000000000E+00 0.  1.
<scales pt_clust_5="13000.00000" pt_clust_6="13000.00000" pt_clust_7="13000.00000" pt_clust_8="13000.00000" pt_clust_9="23.85795"></scales>
<clustering>
<clus scale="   23.858">  1  9  2 -1</clus>
<clus scale="   79.211">  5  6 -1 -1</clus>
<clus scale="   80.541">  1  5  2 -1</clus>
<clus scale="   96.291">  7  8 -1 -1</clus>
<clus scale="   23.858">  1  5  2 -1</clus>
</clustering>
</event>
<event>
 9    1  0.2674825E-005  0.1592666E+03  0.7546771E-02  0.1190408E+00
         -2   -1    0    0    0  501 -0.00000000000E+00  0.00000000000E+00  0.51493383270E+03  0.51493383270E+03  0.00000000000E+00 0.  1.
          1   -1    0    0  502    0  0.00000000000E+00 -0.00000000000E+00 -0.82733807613E+02  0.82733807613E+02  0.00000000000E+00 0. -1.
        -24    2    1    2    0    0  0.13181748153E+03 -0.11318005509E+02  0.29454323060E+03  0.33274442133E+03  0.80369083298E+02 0.  0.
         23    2    1    2    0    0 -0.13219958025E+03  0.44264206059E+02  0.15679251278E+03  0.22682106885E+03  0.86185011763E+02 0.  0.
         11    1    3    3    0    0  0.29917371570E+02 -0.85362892917E+01  0.13739339594E+02  0.34010098632E+02  0.00000000000E+00 0. -1.
        -12    1    3    3    0    0  0.10190010996E+03 -0.27817162172E+01  0.28080389100E+03  0.29873432269E+03  0.00000000000E+00 0.  1.
        -11    1    4    4    0    0 -0.75805842022E+01  0.20843884950E+02  0.69305145541E+02  0.72767685102E+02  0.00000000000E+00 0.  1.
         11    1    4    4    0    0 -0.12461899605E+03  0.23420321108E+02  0.87487367244E+02  0.15405338375E+03  0.00000000000E+00 0. -1.
         21    1    1    2  502  501  0.38209872616E+00 -0.32946200550E+02 -0.19135718295E+02  0.38102150133E+02  0.00000000000E+00 0. -1.
<scales pt_clust_5="13000.00000" pt_clust_6="13000.00000" pt_clust_7="13000.00000" pt_clust_8="13000.00000" pt_clust_9="32.94842"></scales>
<clustering>
<clus scale="   32.948">  2  9  1 -1</clus>
<clus scale="   80.369">  5  6 -1 -1</clus>
<clus scale="   86.185">  7  8 -1 -1</clus>
<clus scale="  156.196">  1  5  2 -1</clus>
<clus scale="   32.948">  2  5  1 -1</clus>
</clustering>
</event>
<event>
 9    1  0.2674825E-005  0.9911155E+02  0.7546771E-02  0.1287835E+00
          1   -1    0    0  502    0  0.00000000000E+00  0.00000000000E+00  0.39514072849E+03  0.39514072849E+03  0.00000000000E+00 0. -1.
         -2   -1    0    0    0  501 -0.00000000000E+00 -0.00000000000E+00 -0.45840646936E+02  0.45840646936E+02  0.00000000000E+00 0.  1.
        -24    2    1    2    0    0  0.45551640133E+02 -0.64736475303E+01  0.30022968676E+02  0.97250943650E+02  0.80246541119E+02 0.  0.
         23    2    1    2    0    0 -0.11366238190E+02  0.85030189994E+01  0.21584700492E+03  0.23477839056E+03  0.91265932500E+02 0.  0.
         11    1    3    3    0    0 -0.15515364004E+02 -0.21315926722E+02 -0.25114329419E+01  0.26484005505E+02  0.00000000000E+00 0. -1.
        -12    1    3    3    0    0  0.61067004136E+02  0.14842279192E+02  0.32534401617E+02  0.70766938145E+02  0.00000000000E+00 0.  1.
        -13    1    4    4    0    0  0.36576887670E+02  0.55352775265E+01  0.14156290573E+03  0.14631665759E+03  0.00000000000E+00 0.  1.
         13    1    4    4    0    0 -0.47943125860E+02  0.29677414729E+01  0.74284099188E+02  0.88461732963E+02  0.00000000000E+00 0. -1.
         21    1    1    2  502  501 -0.34185401942E+02 -0.20293714691E+01  0.10343010796E+03  0.10895204122E+03  0.00000000000E+00 0. -1.
<scales pt_clust_5="13000.00000" pt_clust_6="13000.00000" pt_clust_7="13000.00000" pt_clust_8="13000.00000" pt_clust_9="34.24558"></scales>
<clustering>
<clus scale="   34.246">  1  9  2 -1</clus>
<clus scale="   80.247">  5  6 -1 -1</clus>
<clus scale="   89.068">  2  5  1 -1</clus>
<clus scale="   91.266">  7  8 -1 -1</clus>
<clus scale="   34.246">  1  5  2 -1</clus>
</clustering>
</event>
<event>
 9    1  0.2674825E-005  0.1272787E+03  0.7546771E-02  0.1236396E+00
          1   -1    0    0  502    0  0.00000000000E+00  0.00000000000E+00  0.33023269373E+03  0.33023269373E+03  0.00000000000E+00 0. -1.
         -2   -1    0    0    0  501 -0.00000000000E+00 -0.00000000000E+00 -0.14156466587E+03  0.14156466587E+03  0.00000000000E+00 0.  1.
        -24    2    1    2    0    0  0.28565140835E+02 -0.84669832761E+02 -0.73752434689E+02  0.14126672084E+03  0.80820275575E+02 0.  0.
         23    2    1    2    0    0  0.31754117999E+02  0.43444335633E+02  0.21889857680E+03  0.24548883058E+03  0.97223683868E+02 0.  0.
         13    1    3    3    0    0 -0.23287895161E+02 -0.56751008265E+02 -0.42183039801E+02  0.74447376361E+02  0.00000000000E+00 0. -1.
        -14    1    3    3    0    0  0.51853035996E+02 -0.27918824496E+02 -0.31569394887E+02  0.66819344480E+02  0.00000000000E+00 0.  1.
        -11    1    4    4    0    0 -0.48831406402E+00  0.68789445986E+02  0.15474703875E+03  0.16934837564E+03  0.00000000000E+00 0. -1.
         11    1    4    4    0    0  0.32242432063E+02 -0.25345110352E+02  0.64151538050E+02  0.76140454939E+02  0.00000000000E+00 0.  1.
         21    1    1    2  502  501 -0.60319258834E+02  0.41225497128E+02  0.43521885738E+02  0.85041808176E+02  0.00000000000E+00 0. -1.
<scales pt_clust_5="13000.00000" pt_clust_6="13000.00000" pt_clust_7="13000.00000" pt_clust_8="13000.00000" pt_clust_9="73.06131"></scales>
<clustering>
<clus scale="   73.061">  1  9  2 -1</clus>
<clus scale="   80.820">  5  6 -1 -1</clus>
<clus scale="   97.224">  7  8 -1 -1</clus>
<clus scale="  115.236">  2  5  1 -1</clus>
<clus scale="   73.061">  1  5  2 -1</clus>
</clustering>
</event>
<event>
 9    1  0.2674825E-005  0.2274236E+03  0.7546771E-02  0.1129184E+00
         -2   -1    0    0    0  501 -0.00000000000E+00  0.00000000000E+00  0.16597049589E+03  0.16597049589E+03  0.00000000000E+00 0.  1.
          1   -1    0    0  502    0  0.00000000000E+00 -0.00000000000E+00 -0.36923841945E+03  0.36923841945E+03  0.00000000000E+00 0. -1.
        -24    2    1    2    0    0  0.18656044692E+03 -0.59699529438E+02 -0.60984134766E+02  0.22153757874E+03  0.83612199667E+02 0.  0.
         23    2    1    2    0    0 -0.21289943590E+03  0.60488615791E+02 -0.92878806068E+02  0.25767832528E+03  0.93736888448E+02 0.  0.
         13    1    3    3    0    0  0.89572865069E+02 -0.50424199366E+02 -0.68963146119E+02  0.12378131346E+03  0.00000000000E+00 0. -1.
        -14    1    3    3    0    0  0.96987581848E+02 -0.92753300720E+01  0.79790113529E+01  0.97756265286E+02  0.00000000000E+00 0.  1.
        -13    1    4    4    0    0 -0.65354780209E+02  0.63441939295E+02 -0.50470074740E+02  0.10413143330E+03  0.00000000000E+00 0. -1.
         13    1    4    4    0    0 -0.14754465570E+03 -0.29533235034E+01 -0.42408731328E+02  0.15354689198E+03  0.00000000000E+00 0.  1.
         21    1    1    2  502  501  0.26338988987E+02 -0.78908635380E+00 -0.49404982728E+02  0.55993011318E+02  0.00000000000E+00 0. -1.
<scales pt_clust_5="13000.00000" pt_clust_6="13000.00000" pt_clust_7="13000.00000" pt_clust_8="13000.00000" pt_clust_9="26.35081"></scales>
<clustering>
<clus scale="   26.351">  2  9  1 -1</clus>
<clus scale="   83.612">  5  6 -1 -1</clus>
<clus scale="   93.737">  7  8 -1 -1</clus>
<clus scale="  223.441">  1  5  2 -1</clus>
<clus scale="   26.351">  2  5  1 -1</clus>
</clustering>
</event>
<event>
 9    1  0.2674825E-005  0.2841664E+03  0.7546771E-02  0.1093989E+00
         -4   -1    0    0    0  501 -0.00000000000E+00  0.00000000000E+00  0.34500765934E+03  0.34500765934E+03  0.00000000000E+00 0.  1.
          3   -1    0    0  502    0  0.00000000000E+00 -0.00000000000E+00 -0.42096267064E+03  0.42096267064E+03  0.00000000000E+00 0. -1.
        -24    2    1    2    0    0 -0.27348133150E+03 -0.39571078510E+01  0.20957636722E+03  0.35376617077E+03  0.80128350175E+02 0.  0.
         23    2    1    2    0    0  0.24765258463E+03  0.25395735199E-01 -0.22933912479E+03  0.35023520001E+03  0.93469020807E+02 0.  0.
         11    1    3    3    0    0 -0.46149001688E+02 -0.24476262898E+02  0.16441734890E+02  0.54764481632E+02  0.00000000000E+00 0. -1.
        -12    1    3    3    0    0 -0.22733232981E+03  0.20519155047E+02  0.19313463233E+03  0.29900168913E+03  0.00000000000E+00 0.  1.
        -11    1    4    4    0    0  0.58325112814E+02  0.14827724536E+01 -0.78789917710E+01  0.58873558668E+02  0.00000000000E+00 0.  1.
         11    1    4    4    0    0  0.18932747181E+03 -0.14573767184E+01 -0.22146013302E+03  0.29136164134E+03  0.00000000000E+00 0. -1.
         21    1    1    2  502  501  0.25828746870E+02  0.39317121158E+01 -0.56192253733E+02  0.61968959202E+02  0.00000000000E+00 0.  1.
<scales pt_clust_5="13000.00000" pt_clust_6="13000.00000" pt_clust_7="13000.00000" pt_clust_8="13000.00000" pt_clust_9="26.12628"></scales>
<clustering>
<clus scale="   26.126">  2  9  1 -1</clus>
<clus scale="   80.128">  5  6 -1 -1</clus>
<clus scale="   93.469">  7  8 -1 -1</clus>
<clus scale="  280.062">  1  5  2 -1</clus>
<clus scale="   26.126">  2  5  1 -1</clus>
</clustering>
</event>
<event>
 9    1  0.2674825E-005  0.1017168E+03  0.7546771E-02  0.1281832E+00
         -2   -1    0    0    0  501 -0.00000000000E+00  0.00000000000E+00  0.12294769915E+03  0.12294769915E+03  0.00000000000E+00 0.  1.
          1   -1    0    0  502    0  0.00000000000E+00 -0.00000000000E+00 -0.21446998960E+03  0.21446998960E+03  0.00000000000E+00 0. -1.
        -24    2    1    2    0    0  0.36490345133E+02  0.24192043813E+02  0.78808186573E+02  0.12125976134E+03  0.81095000943E+02 0.  0.
         23    2    1    2    0    0 -0.24842053057E+02 -0.44996418183E+02 -0.15672349010E+03  0.18870515351E+03  0.91681935861E+02 0.  0.
         13    1    3    3    0    0  0.24506611498E+02  0.16387618787E+02 -0.10134805920E+02  0.31174386083E+02  0.00000000000E+00 0. -1.
        -14    1    3    3    0    0  0.11983733635E+02  0.78044250266E+01  0.88942992493E+02  0.90085375259E+02  0.00000000000E+00 0.  1.
        -11    1    4    4    0    0  0.27686680554E+02 -0.44693651171E+02 -0.79040095234E+02  0.94928454057E+02  0.00000000000E+00 0.  1.
         11    1    4    4    0    0 -0.52528733611E+02 -0.30276701262E+00 -0.77683394870E+02  0.93776699458E+02  0.00000000000E+00 0. -1.
         21    1    1    2  502  501 -0.11648292076E+02  0.20804374370E+02 -0.13606986926E+02  0.27452773893E+02  0.00000000000E+00 0. -1.
<scales pt_clust_5="13000.00000" pt_clust_6="13000.00000" pt_clust_7="13000.00000" pt_clust_8="13000.00000" pt_clust_9="23.84334"></scales>
<clustering>
<clus scale="   23.843">  2  9  1 -1</clus>
<clus scale="   81.095">  5  6 -1 -1</clus>
<clus scale="   91.682">  7  8 -1 -1</clus>
<clus scale="   92.288">  1  5  2 -1</clus>
<clus scale="   23.843">  2  5  1 -1</clus>
</clustering>
</event>
<event>
 9    1  0.2674825E-005  0.9428670E+02  0.7546771E-02  0.1305241E+00
          1   -1    0    0  502    0  0.00000000000E+00  0.00000000000E+00  0.96018870964E+02  0.96018870964E+02  0.00000000000E+00 0. -1.
         -2   -1    0    0    0  501 -0.00000000000E+00 -0.00000000000E+00 -0.15554358010E+03  0.15554358010E+03  0.00000000000E+00 0.  1.
         23    2    1    2    0    0  0.16768279582E+02  0.23674713646E+02 -0.11022714543E+03  0.14584896977E+03  0.90995775329E+02 0.  0.
        -24    2    1    2    0    0 -0.92122083981E+01 -0.44951837647E+01  0.44458696774E+02  0.84174380536E+02  0.70736688918E+02 0.  0.
         13    1    4    4    0    0  0.73113553614E+01 -0.19408620342E+02  0.55557330796E+02  0.59302339465E+02  0.00000000000E+00 0. -1.
        -14    1    4    4    0    0 -0.16523563759E+02  0.14913436577E+02 -0.11098634022E+02  0.24872041071E+02  0.00000000000E+00 0.  1.
        -13    1    3    3    0    0  0.53201751162E+02  0.20423020527E+02 -0.80948548627E+02  0.98995927285E+02  0.00000000000E+00 0.  1.
         13    1    3    3    0    0 -0.36433471581E+02  0.32516931193E+01 -0.29278596801E+02  0.46853042486E+02  0.00000000000E+00 0. -1.
         21    1    1    2  502  501 -0.75560711835E+01 -0.19179529881E+02  0.62437395198E+01  0.21539100756E+02  0.00000000000E+00 0. -1.
<scales pt_clust_5="13000.00000" pt_clust_6="13000.00000" pt_clust_7="13000.00000" pt_clust_8="13000.00000" pt_clust_9="20.61428"></scales>
<clustering>
<clus scale="   20.614">  1  9  2 -1</clus>
<clus scale="   70.737">  5  6 -1 -1</clus>
<clus scale="   74.923">  1  5  2 -1</clus>
<clus scale="   90.996">  7  8 -1 -1</clus>
<clus scale="   20.614">  1  5  2 -1</clus>
</clustering>
</event>
<event>
 9    1  0.2674825E-005  0.1044205E+03  0.7546771E-02  0.1275796E+00
         -4   -1    0    0    0  501 -0.00000000000E+00  0.00000000000E+00  0.55595800898E+02  0.55595800898E+02  0.00000000000E+00 0.  1.
          3   -1    0    0  502    0  0.00000000000E+00 -0.00000000000E+00 -0.51521632721E+03  0.51521632721E+03  0.00000000000E+00 0. -1.
         23    2    1    2    0    0  0.44869883441E+02 -0.24771409031E+02 -0.16282275023E+02  0.10552038563E+03  0.90788271033E+02 0.  0.
        -24    2    1    2    0    0 -0.61052388714E+02 -0.49872446889E+01 -0.26333091921E+03  0.28212490446E+03  0.80616511516E+02 0.  0.
         13    1    4    4    0    0 -0.72651464616E+02 -0.25723010861E+02 -0.21159733241E+03  0.22519622484E+03  0.00000000000E+00 0. -1.
        -14    1    4    4    0    0  0.11599075903E+02  0.20735766172E+02 -0.51733586797E+02  0.56928679621E+02  0.00000000000E+00 0.  1.
        -13    1    3    3    0    0  0.68659582013E+02 -0.34726575018E+02 -0.19913901187E+02  0.79477271438E+02  0.00000000000E+00 0.  1.
         13    1    3    3    0    0 -0.23789698572E+02  0.99551659871E+01  0.36316261630E+01  0.26043114187E+02  0.00000000000E+00 0. -1.
         21    1    1    2  502  501  0.16182505273E+02  0.29758653720E+02 -0.18000733208E+03  0.18316683802E+03  0.00000000000E+00 0.  1.
<scales pt_clust_5="13000.00000" pt_clust_6="13000.00000" pt_clust_7="13000.00000" pt_clust_8="13000.00000" pt_clust_9="33.87405"></scales>
<clustering>
<clus scale="   33.874">  2  9  1 -1</clus>
<clus scale="   80.617">  5  6 -1 -1</clus>
<clus scale="   90.788">  7  8 -1 -1</clus>
<clus scale="   95.709">  2  5  1 -1</clus>
<clus scale="   33.874">  2  5  1 -1</clus>
</clustering>
</event>
<event>
 9    1  0.2674825E-005  0.1369257E+03  0.7546771E-02  0.1217540E+00
         -2   -1    0    0    0  501 -0.00000000000E+00  0.00000000000E+00  0.73700229153E+03  0.73700229153E+03  0.00000000000E+00 0.  1.
          1   -1    0    0  502    0  0.00000000000E+00 -0.00000000000E+00 -0.17847757316E+03  0.17847757316E+03  0.00000000000E+00 0. -1.
        -24    2    1    2    0    0 -0.60329616720E+02 -0.78817390292E+02  0.37576798626E+03  0.39687614581E+03  0.80357027996E+02 0.  0.
         23    2    1    2    0    0  0.68573588913E+02  0.10966679038E+03  0.33237865893E+03  0.36561231537E+03  0.80421702484E+02 0.  0.
         13    1    3    3    0    0 -0.53949346311E+02 -0.81137070885E+02  0.21594758217E+03  0.23691161745E+03  0.00000000000E+00 0. -1.
        -14    1    3    3    0    0 -0.63802704088E+01  0.23196805926E+01  0.15982040410E+03  0.15996452836E+03  0.00000000000E+00 0.  1.
        -11    1    4    4    0    0 -0.13165299906E+02  0.44922662712E+02  0.82614941384E+02  0.94955775425E+02  0.00000000000E+00 0. -1.
         11    1    4    4    0    0  0.81738888820E+02  0.64744127665E+02  0.24976371755E+03  0.27065653995E+03  0.00000000000E+00 0.  1.
         21    1    1    2  502  501 -0.82439721932E+01 -0.30849400084E+02 -0.14962192682E+03  0.15299140351E+03  0.00000000000E+00 0.  1.
<scales pt_clust_5="13000.00000" pt_clust_6="13000.00000" pt_clust_7="13000.00000" pt_clust_8="13000.00000" pt_clust_9="31.93194"></scales>
<clustering>
<clus scale="   31.932">  2  9  1 -1</clus>
<clus scale="   80.357">  5  6 -1 -1</clus>
<clus scale="   80.422">  7  8 -1 -1</clus>
<clus scale="  136.888">  1  5  2 -1</clus>
<clus scale="   31.932">  2  5  1 -1</clus>
</clustering>
</event>
<event>
 9    1  0.2674825E-005  0.9913410E+02  0.7546771E-02  0.1287169E+00
         -2   -1    0    0    0  501 -0.00000000000E+00  0.00000000000E+00  0.54320188407E+02  0.54320188407E+02  0.00000000000E+00 0.  1.
          1   -1    0    0  502    0  0.00000000000E+00 -0.00000000000E+00 -0.24927125947E+03  0.24927125947E+03  0.00000000000E+00 0. -1.
        -24    2    1    2    0    0  0.47011768414E+01 -0.37556265076E+02 -0.24809329854E+02  0.92503083797E+02  0.80676784479E+02 0.  0.
         23    2    1    2    0    0  0.13435413795E+02  0.47629031494E+02 -0.15051713037E+03  0.18253102013E+03  0.90626330547E+02 0.  0.
         13    1    3    3    0    0 -0.28314626574E+02 -0.58763559365E+01 -0.35226394488E+02  0.45575744709E+02  0.00000000000E+00 0. -1.
        -14    1    3    3    0    0  0.33015803416E+02 -0.31679909140E+02  0.10417064634E+02  0.46927339088E+02  0.00000000000E+00 0.  1.
        -13    1    4    4    0    0 -0.38844693191E+02  0.17779795050E+02 -0.55307089732E+02  0.69884944557E+02  0.00000000000E+00 0. -1.
         13    1    4    4    0    0  0.52280106986E+02  0.29849236444E+02 -0.95210040640E+02  0.11264607557E+03  0.00000000000E+00 0.  1.
         21    1    1    2  502  501 -0.18136590636E+02 -0.10072766418E+02 -0.19624610840E+02  0.28557343957E+02  0.00000000000E+00 0.  1.
<scales pt_clust_5="13000.00000" pt_clust_6="13000.00000" pt_clust_7="13000.00000" pt_clust_8="13000.00000" pt_clust_9="20.74600"></scales>
<clustering>
<clus scale="   20.746">  2  9  1 -1</clus>
<clus scale="   80.677">  5  6 -1 -1</clus>
<clus scale="   90.129">  1  5  2 -1</clus>
<clus scale="   90.626">  7  8 -1 -1</clus>
<clus scale="   20.746">  2  5  1 -1</clus>
</clustering>
</event>
<event>
 9    1  0.2674825E-005  0.9887822E+02  0.7546771E-02  0.1288627E+00
          3   -1    0    0  502    0  0.00000000000E+00  0.00000000000E+00  0.20602221502E+03  0.20602221502E+03  0.00000000000E+00 0. -1.
         -4   -1    0    0    0  501 -0.00000000000E+00 -0.00000000000E+00 -0.95723901522E+02  0.95723901522E+02  0.00000000000E+00 0.  1.
         23    2    1    2    0    0 -0.14873924368E+02  0.37394761008E+02 -0.40804202505E+02  0.10819095208E+03  0.91764357968E+02 0.  0.
        -24    2    1    2    0    0 -0.72049452793E+01 -0.30813096272E+02  0.76098155121E+02  0.11509212254E+03  0.80336226700E+02 0.  0.
         11    1    4    4    0    0  0.28050524289E+01 -0.20008290816E+02  0.91545313862E+02  0.93748304041E+02  0.00000000000E+00 0. -1.
        -12    1    4    4    0    0 -0.10009997708E+02 -0.10804805456E+02 -0.15447158741E+02  0.21343818502E+02  0.00000000000E+00 0.  1.
        -13    1    3    3    0    0 -0.37763644332E+02  0.58106272746E+02 -0.26951360453E+02  0.74355951987E+02  0.00000000000E+00 0.  1.
         13    1    3    3    0    0  0.22889719963E+02 -0.20711511738E+02 -0.13852842052E+02  0.33835000094E+02  0.00000000000E+00 0. -1.
         21    1    1    2  502  501  0.22078869647E+02 -0.65816647364E+01  0.75004360879E+02  0.78463041915E+02  0.00000000000E+00 0. -1.
<scales pt_clust_5="13000.00000" pt_clust_6="13000.00000" pt_clust_7="13000.00000" pt_clust_8="13000.00000" pt_clust_9="23.03898"></scales>
<clustering>
<clus scale="   23.039">  1  9  2 -1</clus>
<clus scale="   80.336">  5  6 -1 -1</clus>
<clus scale="   88.375">  1  5  2 -1</clus>
<clus scale="   91.764">  7  8 -1 -1</clus>
<clus scale="   23.039">  1  5  2 -1</clus>
</clustering>
</event>
<event>
 9    1  0.2674825E-005  0.1109010E+03  0.7546771E-02  0.1263296E+00
          1   -1    0    0  502    0  0.00000000000E+00  0.00000000000E+00  0.18305508868E+03  0.18305508868E+03  0.00000000000E+00 0. -1.
         -2   -1    0    0    0  501 -0.00000000000E+00 -0.00000000000E+00 -0.26303567787E+03  0.26303567787E+03  0.00000000000E+00 0.  1.
        -24    2    1    2    0    0  0.11665961867E+02  0.60976463194E+02 -0.21512220415E+03  0.23764533067E+03  0.79646197265E+02 0.  0.
         23    2    1    2    0    0 -0.44312539616E+02 -0.71326203164E+02  0.11306714272E+03  0.16769990262E+03  0.91038728847E+02 0.  0.
         11    1    3    3    0    0  0.39934012044E+02  0.60684402392E+02 -0.15874319424E+03  0.17457583948E+03  0.00000000000E+00 0. -1.
        -12    1    3    3    0    0 -0.28268050177E+02  0.29206080157E+00 -0.56379009913E+02  0.63069491191E+02  0.00000000000E+00 0.  1.
        -13    1    4    4    0    0 -0.37477543645E+02 -0.47795114985E+02  0.12608619721E+03  0.13995237912E+03  0.00000000000E+00 0. -1.
         13    1    4    4    0    0 -0.68349959705E+01 -0.23531088179E+02 -0.13019054485E+02  0.27747523502E+02  0.00000000000E+00 0.  1.
         21    1    1    2  502  501  0.32646577749E+02  0.10349739971E+02  0.22074472236E+02  0.40745533261E+02  0.00000000000E+00 0.  1.
<scales pt_clust_5="13000.00000" pt_clust_6="13000.00000" pt_clust_7="13000.00000" pt_clust_8="13000.00000" pt_clust_9="34.24786"></scales>
<clustering>
<clus scale="   34.248">  1  9  2 -1</clus>
<clus scale="   79.646">  5  6 -1 -1</clus>
<clus scale="   91.039">  7  8 -1 -1</clus>
<clus scale="  101.757">  2  5  1 -1</clus>
<clus scale="   34.248">  1  5  2 -1</clus>
</clustering>
</event>
<event>
 9    1  0.2674825E-005  0.1024851E+03  0.7546771E-02  0.1281046E+00
          3   -1    0    0  502    0  0.00000000000E+00  0.00000000000E+00  0.22617463348E+03  0.22617463348E+03  0.00000000000E+00 0. -1.
         -4   -1    0    0    0  501 -0.00000000000E+00 -0.00000000000E+00 -0.20503617400E+03  0.20503617400E+03  0.00000000000E+00 0.  1.
        -24    2    1    2    0    0  0.77717873610E+02 -0.62617391233E+01 -0.13378404000E+03  0.17422564181E+03  0.79856919875E+02 0.  0.
         23    2    1    2    0    0 -0.37406154865E+02 -0.21094525790E+02  0.17651173900E+03  0.20369825206E+03  0.92154134191E+02 0.  0.
         11    1    3    3    0    0  0.21767956249E+02 -0.38637589876E+02 -0.73461060648E+02  0.85809292633E+02  0.00000000000E+00 0. -1.
        -12    1    3    3    0    0  0.55949917361E+02  0.32375850753E+02 -0.60322979348E+02  0.88416349179E+02  0.00000000000E+00 0.  1.
        -13    1    4    4    0    0  0.25119698226E+02 -0.72203671695E+01  0.15431571330E+02  0.30352369508E+02  0.00000000000E+00 0.  1.
         13    1    4    4    0    0 -0.62525853091E+02 -0.13874158620E+02  0.16108016767E+03  0.17334588255E+03  0.00000000000E+00 0. -1.
         21    1    1    2  502  501 -0.40311718745E+02  0.27356264913E+02 -0.21589239532E+02  0.53286913607E+02  0.00000000000E+00 0.  1.
<scales pt_clust_5="13000.00000" pt_clust_6="13000.00000" pt_clust_7="13000.00000" pt_clust_8="13000.00000" pt_clust_9="48.71755"></scales>
<clustering>
<clus scale="   48.718">  2  9  1 -1</clus>
<clus scale="   79.857">  5  6 -1 -1</clus>
<clus scale="   91.586">  2  5  1 -1</clus>
<clus scale="   92.154">  7  8 -1 -1</clus>
<clus scale="  102.485">  1  5  2 -1</clus>
</clustering>
</event>
<event>
 9    1  0.2674825E-005  0.9798220E+02  0.7546771E-02  0.1293163E+00
         -2   -1    0    0    0  501 -0.00000000000E+00  0.00000000000E+00  0.75952899481E+03  0.75952899481E+03  0.00000000000E+00 0.  1.
          1   -1    0    0  502    0  0.00000000000E+00 -0.00000000000E+00 -0.77875338860E+02  0.77875338860E+02  0.00000000000E+00 0. -1.
        -24    2    1    2    0    0 -0.20292528829E+02 -0.15133184358E+02  0.68595537846E+03  0.69104582844E+03  0.79804484690E+02 0.  0.
         23    2    1    2    0    0 -0.17499240622E+02  0.22314724941E+02 -0.25705415239E+02  0.10233680119E+03  0.94909863210E+02 0.  0.
         13    1    3    3    0    0  0.22299027099E+02 -0.62881412147E+01  0.73904118742E+02  0.77450668793E+02  0.00000000000E+00 0. -1.
        -14    1    3    3    0    0 -0.42591555928E+02 -0.88450431434E+01  0.61205125972E+03  0.61359515965E+03  0.00000000000E+00 0.  1.
        -11    1    4    4    0    0 -0.26806879192E+02 -0.31914931210E+02 -0.17525640274E+00  0.41679759128E+02  0.00000000000E+00 0.  1.
         11    1    4    4    0    0  0.93076385704E+01  0.54229656151E+02 -0.25530158836E+02  0.60657042066E+02  0.00000000000E+00 0. -1.
         21    1    1    2  502  501  0.37791769451E+02 -0.71815405826E+01  0.21403692730E+02  0.44021704032E+02  0.00000000000E+00 0.  1.
<scales pt_clust_5="13000.00000" pt_clust_6="13000.00000" pt_clust_7="13000.00000" pt_clust_8="13000.00000" pt_clust_9="38.46807"></scales>
<clustering>
<clus scale="   38.468">  2  9  1 -1</clus>
<clus scale="   79.804">  5  6 -1 -1</clus>
<clus scale="   83.435">  1  5  2 -1</clus>
<clus scale="   94.910">  7  8 -1 -1</clus>
<clus scale="   38.468">  2  5  1 -1</clus>
</clustering>
</event>
<event>
 9    1  0.2674825E-005  0.9339515E+02  0.7546771E-02  0.1297846E+00
          1   -1    0    0  502    0  0.00000000000E+00  0.00000000000E+00  0.26256216198E+03  0.26256216198E+03  0.00000000000E+00 0. -1.
         -2   -1    0    0    0  501 -0.00000000000E+00 -0.00000000000E+00 -0.18184624175E+03  0.18184624175E+03  0.00000000000E+00 0.  1.
        -24    2    1    2    0    0  0.40516915966E+02 -0.28921287321E+02 -0.11312395523E+03  0.14797824174E+03  0.81378556409E+02 0.  0.
         23    2    1    2    0    0  0.27415565593E+02  0.18281545855E+02  0.23090772974E+01  0.92930597381E+02  0.86861590683E+02 0.  0.
         13    1    3    3    0    0  0.43384787199E+02  0.17226594498E+02 -0.40056555525E+02  0.61510348388E+02  0.00000000000E+00 0. -1.
        -14    1    3    3    0    0 -0.28678712334E+01 -0.46147881819E+02 -0.73067399705E+02  0.86467893356E+02  0.00000000000E+00 0.  1.
        -11    1    4    4    0    0  0.22209338078E+02  0.50059839315E+02  0.17268776990E+02  0.57423452254E+02  0.00000000000E+00 0. -1.
         11    1    4    4    0    0  0.52062275153E+01 -0.31778293459E+02 -0.14959699693E+02  0.35507145126E+02  0.00000000000E+00 0.  1.
         21    1    1    2  502  501 -0.67932481559E+02  0.10639741465E+02  0.19153079817E+03  0.20349956461E+03  0.00000000000E+00 0. -1.
<scales pt_clust_5="13000.00000" pt_clust_6="13000.00000" pt_clust_7="13000.00000" pt_clust_8="13000.00000" pt_clust_9="68.76064"></scales>
<clustering>
<clus scale="   68.761">  1  9  2 -1</clus>
<clus scale="   81.379">  5  6 -1 -1</clus>
<clus scale="   86.862">  7  8 -1 -1</clus>
<clus scale="   88.319">  2  5  1 -1</clus>
<clus scale="   68.761">  1  5  2 -1</clus>
</clustering>
</event>
<event>
 9    1  0.2674825E-005  0.8708356E+02  0.7546771E-02  0.1310651E+00
          1   -1    0    0  502    0  0.00000000000E+00  0.00000000000E+00  0.15089137867E+03  0.15089137867E+03  0.00000000000E+00 0. -1.
         -2   -1    0    0    0  501 -0.00000000000E+00 -0.00000000000E+00 -0.10964285117E+03  0.10964285117E+03  0.00000000000E+00 0.  1.
         23    2    1    2    0    0  0.59874060413E+01  0.28655229719E+02 -0.61740962071E+02  0.10817441941E+03  0.83861715919E+02 0.  0.
        -24    2    1    2    0    0  0.18399392752E+01 -0.29768761508E+01  0.62993162935E+02  0.10418978529E+03  0.82916377234E+02 0.  0.
         13    1    4    4    0    0 -0.20223829341E+02 -0.35509651199E+02  0.45521042525E+02  0.61172738324E+02  0.00000000000E+00 0. -1.
        -14    1    4    4    0    0  0.22063768616E+02  0.32532775048E+02  0.17472120409E+02  0.43017046964E+02  0.00000000000E+00 0.  1.
        -13    1    3    3    0    0  0.39886877246E+02  0.35783991809E+02 -0.43528893034E+02  0.69037827132E+02  0.00000000000E+00 0.  1.
         13    1    3    3    0    0 -0.33899471205E+02 -0.71287620901E+01 -0.18212069037E+02  0.39136592283E+02  0.00000000000E+00 0. -1.
         21    1    1    2  502  501 -0.78273453165E+01 -0.25678353568E+02  0.39996326639E+02  0.48170025133E+02  0.00000000000E+00 0. -1.
<scales pt_clust_5="13000.00000" pt_clust_6="13000.00000" pt_clust_7="13000.00000" pt_clust_8="13000.00000" pt_clust_9="26.84484"></scales>
<clustering>
<clus scale="   26.845">  1  9  2 -1</clus>
<clus scale="   82.916">  5  6 -1 -1</clus>
<clus scale="   83.862">  7  8 -1 -1</clus>
<clus scale="   86.174">  1  5  2 -1</clus>
<clus scale="   26.845">  1  5  2 -1</clus>
</clustering>
</event>
<event>
 9    1  0.2674825E-005  0.1803477E+03  0.7546771E-02  0.1169466E+00
         -2   -1    0    0    0  501 -0.00000000000E+00  0.00000000000E+00  0.13393721841E+03  0.13393721841E+03  0.00000000000E+00 0.  1.
          1   -1    0    0  502    0  0.00000000000E+00 -0.00000000000E+00 -0.34240657262E+03  0.34240657262E+03  0.00000000000E+00 0. -1.
        -24    2    1    2    0    0  0.10613358494E+03 -0.10358565648E+03 -0.37409032721E+02  0.17154739497E+03  0.77683633493E+02 0.  0.
         23    2    1    2    0    0 -0.15383933050E+03  0.71503160271E+02 -0.14128194446E+03  0.24005169386E+03  0.94260205579E+02 0.  0.
         13    1    3    3    0    0  0.97075138916E+01 -0.61321776171E+02 -0.11818190311E+02  0.63200203172E+02  0.00000000000E+00 0. -1.
        -14    1    3    3    0    0  0.96426071044E+02 -0.42263880312E+02 -0.25590842410E+02  0.10834719180E+03  0.00000000000E+00 0.  1.
        -11    1    4    4    0    0 -0.17303089216E+02 -0.17914689764E+02 -0.42543761700E+02  0.49298120302E+02  0.00000000000E+00 0.  1.
         11    1    4    4    0    0 -0.13653624129E+03  0.89417850036E+02 -0.98738182762E+02  0.19075357356E+03  0.00000000000E+00 0. -1.
         21    1    1    2  502  501  0.47705745569E+02  0.32082496212E+02 -0.29778377033E+02  0.64744702194E+02  0.00000000000E+00 0.  1.
<scales pt_clust_5="13000.00000" pt_clust_6="13000.00000" pt_clust_7="13000.00000" pt_clust_8="13000.00000" pt_clust_9="57.49021"></scales>
<clustering>
<clus scale="   57.490">  2  9  1 -1</clus>
<clus scale="   77.684">  5  6 -1 -1</clus>
<clus scale="   94.260">  7  8 -1 -1</clus>
<clus scale="  172.264">  1  5  2 -1</clus>
<clus scale="   57.490">  2  5  1 -1</clus>
</clustering>
</event>
<event>
 9    1  0.2674825E-005  0.9275793E+02  0.7546771E-02  0.1300271E+00
         -2   -1    0    0    0  501 -0.00000000000E+00  0.00000000000E+00  0.24968173538E+02  0.24968173538E+02  0.00000000000E+00 0.  1.
          1   -1    0    0  502    0  0.00000000000E+00 -0.00000000000E+00 -0.60907743241E+03  0.60907743241E+03  0.00000000000E+00 0. -1.
        -24    2    1    2    0    0 -0.89459000063E+01  0.32127471816E+02 -0.10454850677E+03  0.13587291826E+03  0.80117763800E+02 0.  0.
         23    2    1    2    0    0  0.40566898612E+02 -0.11584009333E+02 -0.32768915640E+03  0.34168977174E+03  0.87131247847E+02 0.  0.
         13    1    3    3    0    0 -0.42062133393E+02  0.12090435809E+02 -0.76278622136E+02  0.87942196348E+02  0.00000000000E+00 0. -1.
        -14    1    3    3    0    0  0.33116233387E+02  0.20037036006E+02 -0.28269884631E+02  0.47930721909E+02  0.00000000000E+00 0.  1.
        -11    1    4    4    0    0 -0.20426312174E+02 -0.26966617154E+02 -0.10825909922E+03  0.11342162595E+03  0.00000000000E+00 0. -1.
         11    1    4    4    0    0  0.60993210786E+02  0.15382607821E+02 -0.21943005718E+03  0.22826814578E+03  0.00000000000E+00 0.  1.
         21    1    1    2  502  501 -0.31620998606E+02 -0.20543462483E+02 -0.15187159570E+03  0.15648291595E+03  0.00000000000E+00 0. -1.
<scales pt_clust_5="13000.00000" pt_clust_6="13000.00000" pt_clust_7="13000.00000" pt_clust_8="13000.00000" pt_clust_9="37.70837"></scales>
<clustering>
<clus scale="   37.708">  2  9  1 -1</clus>
<clus scale="   80.118">  5  6 -1 -1</clus>
<clus scale="   86.203">  1  5  2 -1</clus>
<clus scale="   87.131">  7  8 -1 -1</clus>
<clus scale="   37.708">  2  5  1 -1</clus>
</clustering>
</event>
<event>
 9    1  0.2674825E-005  0.1312054E+03  0.7546771E-02  0.1228681E+00
         -2   -1    0    0    0  501 -0.00000000000E+00  0.00000000000E+00  0.36136108210E+03  0.36136108210E+03  0.00000000000E+00 0.  1.
          1   -1    0    0  502    0  0.00000000000E+00 -0.00000000000E+00 -0.34919307789E+03  0.34919307789E+03  0.00000000000E+00 0. -1.
         23    2    1    2    0    0  0.31524823196E+02  0.86455776050E+02  0.30138132705E+03  0.32832190258E+03  0.92174572040E+02 0.  0.
        -24    2    1    2    0    0 -0.11618257068E+03 -0.80753192393E+02 -0.21376072108E+03  0.26868689739E+03  0.80495559769E+02 0.  0.
         13    1    4    4    0    0 -0.73322290119E+02 -0.49270108708E+02 -0.19177076936E+03  0.21113912433E+03  0.00000000000E+00 0. -1.
        -14    1    4    4    0    0 -0.42860280560E+02 -0.31483083685E+02 -0.21989951716E+02  0.57547773063E+02  0.00000000000E+00 0.  1.
        -13    1    3    3    0    0 -0.25312204903E+02  0.25647670098E+02  0.39203711211E+02  0.53248865445E+02  0.00000000000E+00 0. -1.
         13    1    3    3    0    0  0.56837028099E+02  0.60808105952E+02  0.26217761584E+03  0.27507303713E+03  0.00000000000E+00 0.  1.
         21    1    1    2  502  501  0.84657747483E+02 -0.57025836572E+01 -0.75452601763E+02  0.11354536002E+03  0.00000000000E+00 0. -1.
<scales pt_clust_5="13000.00000" pt_clust_6="13000.00000" pt_clust_7="13000.00000" pt_clust_8="13000.00000" pt_clust_9="84.84959"></scales>
<clustering>
<clus scale="   80.496">  5  6 -1 -1</clus>
<clus scale="   84.850">  2  9  1 -1</clus>
<clus scale="   92.175">  7  8 -1 -1</clus>
<clus scale="  123.281">  2  5  1 -1</clus>
<clus scale="   84.850">  2  5  1 -1</clus>
</clustering>
</event>
<event>
 9    1  0.2674825E-005  0.1841948E+03  0.7546771E-02  0.1165490E+00
         -2   -1    0    0    0  501 -0.00000000000E+00  0.00000000000E+00  0.19518961575E+03  0.19518961575E+03  0.00000000000E+00 0.  1.
          1   -1    0    0  502    0  0.00000000000E+00 -0.00000000000E+00 -0.48433508528E+03  0.48433508528E+03  0.00000000000E+00 0. -1.
         23    2    1    2    0    0  0.10111595034E+03 -0.13013494769E+03  0.12132500089E+03  0.22557871957E+03  0.94902385956E+02 0.  0.
        -24    2    1    2    0    0 -0.57508606349E+02  0.10103323357E+03 -0.30512400949E+03  0.33627530946E+03  0.80408137029E+02 0.  0.
         11    1    4    4    0    0 -0.57749630292E+02  0.54881943245E+02 -0.25920130782E+03  0.27116851858E+03  0.00000000000E+00 0. -1.
        -12    1    4    4    0    0  0.24102394295E+00  0.46151290321E+02 -0.45922701668E+02  0.65106790884E+02  0.00000000000E+00 0.  1.
        -11    1    3    3    0    0  0.33376281229E+02 -0.30367683366E+02 -0.11104809835E+02  0.46470303885E+02  0.00000000000E+00 0. -1.
         11    1    3    3    0    0  0.67739669109E+02 -0.99767264326E+02  0.13242981072E+03  0.17910841569E+03  0.00000000000E+00 0.  1.
         21    1    1    2  502  501 -0.43607343988E+02  0.29101714127E+02 -0.10534646093E+03  0.11767067199E+03  0.00000000000E+00 0. -1.
<scales pt_clust_5="13000.00000" pt_clust_6="13000.00000" pt_clust_7="13000.00000" pt_clust_8="13000.00000" pt_clust_9="52.42624"></scales>
<clustering>
<clus scale="   52.426">  2  9  1 -1</clus>
<clus scale="   80.408">  5  6 -1 -1</clus>
<clus scale="   94.902">  7  8 -1 -1</clus>
<clus scale="  177.163">  2  5  1 -1</clus>
<clus scale="   52.426">  2  5  1 -1</clus>
</clustering>
</event>
<event>
 9    1  0.2674825E-005  0.9396284E+02  0.7546771E-02  0.1301437E+00
          1   -1    0    0  502    0  0.00000000000E+00  0.00000000000E+00  0.58142321125E+02  0.58142321125E+02  0.00000000000E+00 0. -1.
         -2   -1    0    0    0  501 -0.00000000000E+00 -0.00000000000E+00 -0.45723313690E+03  0.45723313690E+03  0.00000000000E+00 0.  1.
        -24    2    1    2    0    0  0.12746146512E+02 -0.17720029348E+02 -0.38546218829E+03  0.39404898893E+03  0.78848230055E+02 0.  0.
         23    2    1    2    0    0  0.68942999137E+01  0.16970757807E+01 -0.21638257745E+02  0.94743836528E+02  0.91966129223E+02 0.  0.
         11    1    3    3    0    0 -0.14977143568E+02  0.23113908138E+02 -0.79599661409E+02  0.84229885880E+02  0.00000000000E+00 0. -1.
        -12    1    3    3    0    0  0.27723290080E+02 -0.40833937487E+02 -0.30586252689E+03  0.30981910305E+03  0.00000000000E+00 0.  1.
        -11    1    4    4    0    0  0.43917325030E+02 -0.21112408408E+02 -0.12555699410E+02  0.50320083607E+02  0.00000000000E+00 0.  1.
         11    1    4    4    0    0 -0.37023025116E+02  0.22809484188E+02 -0.90825583358E+01  0.44423752921E+02  0.00000000000E+00 0. -1.
         21    1    1    2  502  501 -0.19640446426E+02  0.16022953568E+02  0.80096302684E+01  0.26582632561E+02  0.00000000000E+00 0. -1.
<scales pt_clust_5="13000.00000" pt_clust_6="13000.00000" pt_clust_7="13000.00000" pt_clust_8="13000.00000" pt_clust_9="25.34723"></scales>
<clustering>
<clus scale="   25.347">  1  9  2 -1</clus>
<clus scale="   78.848">  5  6 -1 -1</clus>
<clus scale="   81.168">  2  5  1 -1</clus>
<clus scale="   91.966">  7  8 -1 -1</clus>
<clus scale="   25.347">  1  5  2 -1</clus>
</clustering>
</event>
<event>
 9    1  0.2674825E-005  0.1105232E+03  0.7546771E-02  0.1265615E+00
          1   -1    0    0  502    0  0.00000000000E+00  0.00000000000E+00  0.97519352005E+02  0.97519352005E+02  0.00000000000E+00 0. -1.
         -2   -1    0    0    0  501 -0.00000000000E+00 -0.00000000000E+00 -0.49920417059E+03  0.49920417059E+03  0.00000000000E+00 0.  1.
        -24    2    1    2    0    0  0.38709794570E+02 -0.44220236981E+02 -0.24772747753E+03  0.26582780896E+03  0.76430643977E+02 0.  0.
         23    2    1    2    0    0 -0.83706765002E+02  0.10619956723E+01 -0.21202567328E+03  0.24569423272E+03  0.91666894339E+02 0.  0.
         13    1    3    3    0    0 -0.10840584601E+02 -0.35706832054E+02 -0.53701508308E+02  0.65393792705E+02  0.00000000000E+00 0. -1.
        -14    1    3    3    0    0  0.49550379171E+02 -0.85134049270E+01 -0.19402596922E+03  0.20043401626E+03  0.00000000000E+00 0.  1.
        -13    1    4    4    0    0 -0.29274382878E+02 -0.40069471635E+02 -0.12910729684E+03  0.13831574801E+03  0.00000000000E+00 0.  1.
         13    1    4    4    0    0 -0.54432382124E+02  0.41131467307E+02 -0.82918376449E+02  0.10737848471E+03  0.00000000000E+00 0. -1.
         21    1    1    2  502  501  0.44996970432E+02  0.43158241309E+02  0.58068332235E+02  0.85201480911E+02  0.00000000000E+00 0. -1.
<scales pt_clust_5="13000.00000" pt_clust_6="13000.00000" pt_clust_7="13000.00000" pt_clust_8="13000.00000" pt_clust_9="62.34871"></scales>
<clustering>
<clus scale="   62.349">  1  9  2 -1</clus>
<clus scale="   76.431">  5  6 -1 -1</clus>
<clus scale="   91.667">  7  8 -1 -1</clus>
<clus scale="   98.256">  2  5  1 -1</clus>
<clus scale="   62.349">  1  5  2 -1</clus>
</clustering>
</event>
<event>
 9    1  0.2674825E-005  0.1046585E+03  0.7546771E-02  0.1276771E+00
         -2   -1    0    0    0  501 -0.00000000000E+00  0.00000000000E+00  0.13518438088E+03  0.13518438088E+03  0.00000000000E+00 0.  1.
          1   -1    0    0  502    0  0.00000000000E+00 -0.00000000000E+00 -0.13246784444E+03  0.13246784444E+03  0.00000000000E+00 0. -1.
         23    2    1    2    0    0 -0.37554479963E+02 -0.33318169336E+02  0.53274093093E+02  0.11518591157E+03  0.88933828519E+02 0.  0.
        -24    2    1    2    0    0  0.11705572180E+02  0.58029875906E+02 -0.62998361977E+02  0.11460329602E+03  0.75237191127E+02 0.  0.
         13    1    4    4    0    0  0.10363051759E+02  0.48774388662E+02 -0.80538972971E+02  0.94725181438E+02  0.00000000000E+00 0. -1.
        -14    1    4    4    0    0  0.13425204207E+01  0.92554872442E+01  0.17540610994E+02  0.19878114580E+02  0.00000000000E+00 0.  1.
        -11    1    3    3    0    0 -0.14888222309E+02 -0.24631239256E+02  0.76411052721E+02  0.81651736593E+02  0.00000000000E+00 0.  1.
         11    1    3    3    0    0 -0.22666257654E+02 -0.86869300805E+01 -0.23136959628E+02  0.33534174972E+02  0.00000000000E+00 0. -1.
         21    1    1    2  502  501  0.25848907783E+02 -0.24711706570E+02  0.12440805318E+02  0.37863017737E+02  0.00000000000E+00 0. -1.
<scales pt_clust_5="13000.00000" pt_clust_6="13000.00000" pt_clust_7="13000.00000" pt_clust_8="13000.00000" pt_clust_9="35.76080"></scales>
<clustering>
<clus scale="   35.761">  1  9  2 -1</clus>
<clus scale="   75.237">  5  6 -1 -1</clus>
<clus scale="   88.934">  7  8 -1 -1</clus>
<clus scale="   93.300">  2  5  1 -1</clus>
<clus scale="   93.300">  2  5  1 -1</clus>
</clustering>
</event>
<event>
 9    1  0.2674825E-005  0.9748219E+02  0.7546771E-02  0.1291968E+00
         -2   -1    0    0    0  501 -0.00000000000E+00  0.00000000000E+00  0.18329448619E+03  0.18329448619E+03  0.00000000000E+00 0.  1.
          1   -1    0    0  502    0  0.00000000000E+00 -0.00000000000E+00 -0.93101540298E+02  0.93101540298E+02  0.00000000000E+00 0. -1.
         23    2    1    2    0    0  0.24081666458E+02  0.14023248260E+02  0.10453354313E+03  0.14153793612E+03  0.91264163674E+02 0.  0.
        -24    2    1    2    0    0 -0.56439709054E+02 -0.11788391119E+02 -0.23728973872E+02  0.10109155185E+03  0.79574058156E+02 0.  0.
         13    1    4    4    0    0 -0.51649115556E+02  0.26432718163E+02 -0.23424525170E+02  0.62570185445E+02  0.00000000000E+00 0. -1.
        -14    1    4    4    0    0 -0.47905934983E+01 -0.38221109282E+02 -0.30444870198E+00  0.38521366407E+02  0.00000000000E+00 0.  1.
        -13    1    3    3    0    0 -0.27092134549E+02 -0.16233267661E+02  0.17409606961E+02  0.36063792755E+02  0.00000000000E+00 0. -1.
         13    1    3    3    0    0  0.51173801007E+02  0.30256515921E+02  0.87123936173E+02  0.10547414337E+03  0.00000000000E+00 0.  1.
         21    1    1    2  502  501  0.32358042596E+02 -0.22348571405E+01  0.93883766257E+01  0.33766538507E+02  0.00000000000E+00 0.  1.
<scales pt_clust_5="13000.00000" pt_clust_6="13000.00000" pt_clust_7="13000.00000" pt_clust_8="13000.00000" pt_clust_9="32.43513"></scales>
<clustering>
<clus scale="   32.435">  2  9  1 -1</clus>
<clus scale="   79.574">  5  6 -1 -1</clus>
<clus scale="   86.635">  2  5  1 -1</clus>
<clus scale="   91.264">  7  8 -1 -1</clus>
<clus scale="   32.435">  2  5  1 -1</clus>
</clustering>
</event>
<event>
 9    1  0.2674825E-005  0.1196768E+03  0.7546771E-02  0.1247360E+00
          3   -1    0    0  502    0  0.00000000000E+00  0.00000000000E+00  0.39766222417E+03  0.39766222417E+03  0.00000000000E+00 0. -1.
         -4   -1    0    0    0  501 -0.00000000000E+00 -0.00000000000E+00 -0.14102946767E+03  0.14102946767E+03  0.00000000000E+00 0.  1.
        -24    2    1    2    0    0  0.67209400154E+02 -0.35011582736E+02 -0.96710793902E+02  0.14649204749E+03  0.79774857734E+02 0.  0.
         23    2    1    2    0    0 -0.97415537083E+02  0.17681997832E+02  0.29346727297E+03  0.32293281376E+03  0.91433702677E+02 0.  0.
         11    1    3    3    0    0  0.22069838160E+02 -0.54991505846E+02 -0.64299477773E+02  0.87438929051E+02  0.00000000000E+00 0. -1.
        -12    1    3    3    0    0  0.45139561994E+02  0.19979923110E+02 -0.32411316129E+02  0.59053118441E+02  0.00000000000E+00 0.  1.
        -11    1    4    4    0    0 -0.15793339696E+02 -0.31532033247E+02  0.11916153348E+03  0.12427055066E+03  0.00000000000E+00 0. -1.
         11    1    4    4    0    0 -0.81622197387E+02  0.49214031079E+02  0.17430573949E+03  0.19866226310E+03  0.00000000000E+00 0.  1.
         21    1    1    2  502  501  0.30206136930E+02  0.17329584905E+02  0.59876277434E+02  0.69266830594E+02  0.00000000000E+00 0.  1.
<scales pt_clust_5="13000.00000" pt_clust_6="13000.00000" pt_clust_7="13000.00000" pt_clust_8="13000.00000" pt_clust_9="34.82420"></scales>
<clustering>
<clus scale="   34.824">  1  9  2 -1</clus>
<clus scale="   79.775">  5  6 -1 -1</clus>
<clus scale="   91.434">  7  8 -1 -1</clus>
<clus scale="  111.025">  2  5  1 -1</clus>
<clus scale="   34.824">  1  5  2 -1</clus>
</clustering>
</event>
<event>
 9    1  0.2674825E-005  0.9315149E+02  0.7546771E-02  0.1300869E+00
         -2   -1    0    0    0  501 -0.00000000000E+00  0.00000000000E+00  0.29224970257E+03  0.29224970257E+03  0.00000000000E+00 0.  1.
          1   -1    0    0  502    0  0.00000000000E+00 -0.00000000000E+00 -0.10750241075E+03  0.10750241075E+03  0.00000000000E+00 0. -1.
        -24    2    1    2    0    0 -0.22810587166E+02 -0.19016709371E+01  0.23830423565E+03  0.25286799282E+03  0.81420966750E+02 0.  0.
         23    2    1    2    0    0  0.85941471319E+01 -0.32563053118E+02 -0.24920866317E+02  0.99874022576E+02  0.90661783648E+02 0.  0.
         11    1    3    3    0    0  0.18824531545E+02  0.23500019649E+02  0.50145118429E+02  0.58490570297E+02  0.00000000000E+00 0. -1.
        -12    1    3    3    0    0 -0.41635118711E+02 -0.25401690586E+02  0.18815911722E+03  0.19437742252E+03  0.00000000000E+00 0.  1.
        -11    1    4    4    0    0  0.11608670036E+02 -0.58930309147E+02 -0.37181259157E+02  0.70639851279E+02  0.00000000000E+00 0.  1.
         11    1    4    4    0    0 -0.30145229044E+01  0.26367256029E+02  0.12260392840E+02  0.29234171297E+02  0.00000000000E+00 0. -1.
         21    1    1    2  502  501  0.14216440035E+02  0.34464724055E+02 -0.28636077506E+02  0.47010097919E+02  0.00000000000E+00 0.  1.
<scales pt_clust_5="13000.00000" pt_clust_6="13000.00000" pt_clust_7="13000.00000" pt_clust_8="13000.00000" pt_clust_9="37.28169"></scales>
<clustering>
<clus scale="   37.282">  2  9  1 -1</clus>
<clus scale="   81.421">  5  6 -1 -1</clus>
<clus scale="   84.184">  1  5  2 -1</clus>
<clus scale="   90.662">  7  8 -1 -1</clus>
<clus scale="   37.282">  2  5  1 -1</clus>
</clustering>
</event>
<event>
 9    1  0.2674825E-005  0.1062177E+03  0.7546771E-02  0.1271122E+00
          1   -1    0    0  502    0  0.00000000000E+00  0.00000000000E+00  0.34846226859E+03  0.34846226859E+03  0.00000000000E+00 0. -1.
         -2   -1    0    0    0  501 -0.00000000000E+00 -0.00000000000E+00 -0.53814255489E+02  0.53814255489E+02  0.00000000000E+00 0.  1.
        -24    2    1    2    0    0  0.30894268776E+02 -0.43996356794E+02  0.27439398445E+02  0.10182714540E+03  0.82010436525E+02 0.  0.
         23    2    1    2    0    0 -0.53435274710E+02  0.40541712512E+02  0.19857827659E+03  0.22812956937E+03  0.90060032478E+02 0.  0.
         11    1    3    3    0    0  0.51503413806E+02 -0.20070575337E+02  0.39590894220E+02  0.67991679882E+02  0.00000000000E+00 0. -1.
        -12    1    3    3    0    0 -0.20609145031E+02 -0.23925781457E+02 -0.12151495775E+02  0.33835465518E+02  0.00000000000E+00 0.  1.
        -11    1    4    4    0    0 -0.53999758913E+01 -0.23012974438E+02  0.14960688352E+02  0.27974612206E+02  0.00000000000E+00 0.  1.
         11    1    4    4    0    0 -0.48035298818E+02  0.63554686951E+02  0.18361758824E+03  0.20015495717E+03  0.00000000000E+00 0. -1.
         21    1    1    2  502  501  0.22541005934E+02  0.34546442822E+01  0.68630338062E+02  0.72319809306E+02  0.00000000000E+00 0.  1.
<scales pt_clust_5="13000.00000" pt_clust_6="13000.00000" pt_clust_7="13000.00000" pt_clust_8="13000.00000" pt_clust_9="22.80420"></scales>
<clustering>
<clus scale="   22.804">  1  9  2 -1</clus>
<clus scale="   82.010">  5  6 -1 -1</clus>
<clus scale="   90.060">  7  8 -1 -1</clus>
<clus scale="   99.484">  2  5  1 -1</clus>
<clus scale="   22.804">  1  5  2 -1</clus>
</clustering>
</event>
<event>
 9    1  0.2674825E-005  0.9672728E+02  0.7546771E-02  0.1296354E+00
          1   -1    0    0  502    0  0.00000000000E+00  0.00000000000E+00  0.18758891252E+03  0.18758891252E+03  0.00000000000E+00 0. -1.
         -2   -1    0    0    0  501 -0.00000000000E+00 -0.00000000000E+00 -0.21073343378E+03  0.21073343378E+03  0.00000000000E+00 0.  1.
        -24    2    1    2    0    0  0.21924344493E+02 -0.23399334784E+02 -0.16080061818E+03  0.18038278690E+03  0.75185804866E+02 0.  0.
         23    2    1    2    0    0  0.22069077708E+02  0.59285790443E+02  0.10277123527E+03  0.15130464010E+03  0.91265098357E+02 0.  0.
         11    1    3    3    0    0 -0.25959819495E+02 -0.39901467224E+01 -0.30724597147E+02  0.40420717075E+02  0.00000000000E+00 0. -1.
        -12    1    3    3    0    0  0.47884163988E+02 -0.19409188062E+02 -0.13007602104E+03  0.13996206983E+03  0.00000000000E+00 0.  1.
        -11    1    4    4    0    0  0.48524557112E+02  0.13031557932E+02  0.22723895131E+02  0.55143717276E+02  0.00000000000E+00 0.  1.
         11    1    4    4    0    0 -0.26455479404E+02  0.46254232510E+02  0.80047340135E+02  0.96160922823E+02  0.00000000000E+00 0. -1.
         21    1    1    2  502  501 -0.43993422202E+02 -0.35886455658E+02  0.34884861660E+02  0.66634919297E+02  0.00000000000E+00 0. -1.
<scales pt_clust_5="13000.00000" pt_clust_6="13000.00000" pt_clust_7="13000.00000" pt_clust_8="13000.00000" pt_clust_9="56.77375"></scales>
<clustering>
<clus scale="   56.774">  1  9  2 -1</clus>
<clus scale="   75.186">  5  6 -1 -1</clus>
<clus scale="   81.730">  2  5  1 -1</clus>
<clus scale="   91.265">  7  8 -1 -1</clus>
<clus scale="   56.774">  1  5  2 -1</clus>
</clustering>
</event>
<event>
 9    1  0.2674825E-005  0.9788541E+02  0.7546771E-02  0.1286493E+00
          1   -1    0    0  502    0  0.00000000000E+00  0.00000000000E+00  0.34000472371E+03  0.34000472371E+03  0.00000000000E+00 0. -1.
         -2   -1    0    0    0  501 -0.00000000000E+00 -0.00000000000E+00 -0.64844679549E+02  0.64844679549E+02  0.00000000000E+00 0.  1.
         23    2    1    2    0    0 -0.12160878393E+02 -0.35936708763E+02 -0.70506531409E+01  0.98751664303E+02  0.90900195230E+02 0.  0.
        -24    2    1    2    0    0  0.29115241050E+02  0.18906361908E+02  0.21575414224E+03  0.23542980536E+03  0.87591070201E+02 0.  0.
         13    1    4    4    0    0 -0.66617825897E+01  0.36366754191E+02  0.37036448985E+02  0.52331813566E+02  0.00000000000E+00 0. -1.
        -14    1    4    4    0    0  0.35777023639E+02 -0.17460392282E+02  0.17871769325E+03  0.18309799180E+03  0.00000000000E+00 0.  1.
        -11    1    3    3    0    0  0.26670919572E+02 -0.47655464190E+02 -0.16605421769E+02  0.57079954889E+02  0.00000000000E+00 0.  1.
         11    1    3    3    0    0 -0.38831797966E+02  0.11718755427E+02  0.95547686279E+01  0.41671709415E+02  0.00000000000E+00 0. -1.
         21    1    1    2  502  501 -0.16954362656E+02  0.17030346854E+02  0.66456555065E+02  0.70667933592E+02  0.00000000000E+00 0. -1.
<scales pt_clust_5="13000.00000" pt_clust_6="13000.00000" pt_clust_7="13000.00000" pt_clust_8="13000.00000" pt_clust_9="24.03088"></scales>
<clustering>
<clus scale="   24.031">  1  9  2 -1</clus>
<clus scale="   87.591">  5  6 -1 -1</clus>
<clus scale="   90.900">  7  8 -1 -1</clus>
<clus scale="   94.820">  1  5  2 -1</clus>
<clus scale="   24.031">  1  5  2 -1</clus>
</clustering>
</event>
<event>
 9    1  0.2674825E-005  0.1379547E+03  0.7546771E-02  0.1231582E+00
         -4   -1    0    0    0  501 -0.00000000000E+00  0.00000000000E+00  0.12666602693E+03  0.12666602693E+03  0.00000000000E+00 0.  1.
          3   -1    0    0  502    0  0.00000000000E+00 -0.00000000000E+00 -0.27913009057E+03  0.27913009057E+03  0.00000000000E+00 0. -1.
        -24    2    1    2    0    0 -0.56641193038E+02 -0.70648132705E+00  0.70225990490E+02  0.12103904617E+03  0.80684800883E+02 0.  0.
         23    2    1    2    0    0  0.77979765804E+02 -0.18811483002E+02 -0.19157871683E+03  0.24228118491E+03  0.12475196211E+03 0.  0.
         13    1    3    3    0    0 -0.70133592881E+02 -0.13945764667E+02  0.72702161332E+02  0.10197455303E+03  0.00000000000E+00 0. -1.
        -14    1    3    3    0    0  0.13492399843E+02  0.13239283340E+02 -0.24761708423E+01  0.19064493146E+02  0.00000000000E+00 0.  1.
        -13    1    4    4    0    0  0.87920206522E+02  0.34222498719E+02 -0.12032567779E+03  0.15290327292E+03  0.00000000000E+00 0.  1.
         13    1    4    4    0    0 -0.99404407181E+01 -0.53033981721E+02 -0.71253039045E+02  0.89377911992E+02  0.00000000000E+00 0. -1.
         21    1    1    2  502  501 -0.21338572766E+02  0.19517964329E+02 -0.31111337292E+02  0.42475886422E+02  0.00000000000E+00 0.  1.
<scales pt_clust_5="13000.00000" pt_clust_6="13000.00000" pt_clust_7="13000.00000" pt_clust_8="13000.00000" pt_clust_9="28.91860"></scales>
<clustering>
<clus scale="   28.919">  2  9  1 -1</clus>
<clus scale="   80.685">  5  6 -1 -1</clus>
<clus scale="   99.892">  1  5  2 -1</clus>
<clus scale="  124.752">  7  8 -1 -1</clus>
<clus scale="   28.919">  2  5  1 -1</clus>
</clustering>
</event>
<event>
 9    1  0.2674825E-005  0.9935638E+02  0.7546771E-02  0.1286772E+00
         -2   -1    0    0    0  501 -0.00000000000E+00  0.00000000000E+00  0.45307451472E+02  0.45307451472E+02  0.00000000000E+00 0.  1.
          1   -1    0    0  502    0  0.00000000000E+00 -0.00000000000E+00 -0.49570566683E+03  0.49570566683E+03  0.00000000000E+00 0. -1.
        -24    2    1    2    0    0 -0.17219504010E+02  0.48916485655E+02 -0.50062324810E+02  0.10780267828E+03  0.80161382169E+02 0.  0.
         23    2    1    2    0    0  0.40018335333E+02  0.12642470950E+02 -0.25340587932E+03  0.27228275425E+03  0.90344116331E+02 0.  0.
         13    1    3    3    0    0  0.21258037982E+02  0.40227301734E+02 -0.18868139145E+01  0.45537896860E+02  0.00000000000E+00 0. -1.
        -14    1    3    3    0    0 -0.38477541992E+02  0.86891839207E+01 -0.48175510896E+02  0.62264781418E+02  0.00000000000E+00 0.  1.
        -11    1    4    4    0    0  0.35830575698E+02 -0.24088950363E+02 -0.21375133889E+03  0.21806820621E+03  0.00000000000E+00 0. -1.
         11    1    4    4    0    0  0.41877596353E+01  0.36731421314E+02 -0.39654540434E+02  0.54214548043E+02  0.00000000000E+00 0.  1.
         21    1    1    2  502  501 -0.22798831323E+02 -0.61558956605E+02 -0.14693001123E+03  0.16092768577E+03  0.00000000000E+00 0.  1.
<scales pt_clust_5="13000.00000" pt_clust_6="13000.00000" pt_clust_7="13000.00000" pt_clust_8="13000.00000" pt_clust_9="65.64520"></scales>
<clustering>
<clus scale="   65.645">  2  9  1 -1</clus>
<clus scale="   80.161">  5  6 -1 -1</clus>
<clus scale="   90.197">  1  5  2 -1</clus>
<clus scale="   90.344">  7  8 -1 -1</clus>
<clus scale="   65.645">  2  5  1 -1</clus>
</clustering>
</event>
<event>
 9    1  0.2674825E-005  0.1415097E+03  0.7546771E-02  0.1236477E+00
          1   -1    0    0  502    0  0.00000000000E+00  0.00000000000E+00  0.80834525140E+03  0.80834525140E+03  0.00000000000E+00 0. -1.
         -2   -1    0    0    0  501 -0.00000000000E+00 -0.00000000000E+00 -0.35378788475E+03  0.35378788475E+03  0.00000000000E+00 0.  1.
        -24    2    1    2    0    0  0.20981716592E+02 -0.88959877973E+00 -0.17990170044E+03  0.19842406471E+03  0.81033720239E+02 0.  0.
         23    2    1    2    0    0 -0.54880573136E+02  0.10411260561E+03 -0.12650211739E+03  0.19503095551E+03  0.90459802944E+02 0.  0.
         13    1    3    3    0    0  0.38498135560E+02 -0.30627663998E+02 -0.10502247576E+03  0.11597362053E+03  0.00000000000E+00 0. -1.
        -14    1    3    3    0    0 -0.17516418968E+02  0.29738065218E+02 -0.74879224678E+02  0.82450444176E+02  0.00000000000E+00 0.  1.
        -11    1    4    4    0    0 -0.32265225904E+02  0.11433009407E+03 -0.12108751498E+03  0.16963077992E+03  0.00000000000E+00 0.  1.
         11    1    4    4    0    0 -0.22615347232E+02 -0.10217488459E+02 -0.54146024126E+01  0.25400175592E+02  0.00000000000E+00 0. -1.
         21    1    1    2  502  501  0.33898856544E+02 -0.10322300683E+03  0.76096118449E+03  0.76867811593E+03  0.00000000000E+00 0. -1.
<scales pt_clust_5="13000.00000" pt_clust_6="13000.00000" pt_clust_7="13000.00000" pt_clust_8="13000.00000" pt_clust_9="108.82100"></scales>
<clustering>
<clus scale="   81.034">  5  6 -1 -1</clus>
<clus scale="   83.711">  2  5  1 -1</clus>
<clus scale="   90.460">  7  8 -1 -1</clus>
<clus scale="  108.821">  1  9  2 -1</clus>
<clus scale="  108.821">  1  5  2 -1</clus>
</clustering>
</event>
<event>
 9    1  0.2674825E-005  0.9256103E+02  0.7546771E-02  0.1303932E+00
         -2   -1    0    0    0  501 -0.00000000000E+00  0.00000000000E+00  0.15089433883E+03  0.15089433883E+03  0.00000000000E+00 0.  1.
          1   -1    0    0  502    0  0.00000000000E+00 -0.00000000000E+00 -0.19512982972E+03  0.19512982972E+03  0.00000000000E+00 0. -1.
        -24    2    1    2    0    0  0.11110593510E+02 -0.15412336628E+02  0.10812173217E+03  0.13549451189E+03  0.79419571742E+02 0.  0.
         23    2    1    2    0    0  0.32552187466E+02  0.14701786042E+02 -0.81674944692E+02  0.12744579662E+03  0.91081540747E+02 0.  0.
         13    1    3    3    0    0  0.40796991030E+02 -0.26452191005E+02  0.53024259919E+02  0.71942233952E+02  0.00000000000E+00 0. -1.
        -14    1    3    3    0    0 -0.29686397519E+02  0.11039854377E+02  0.55097472251E+02  0.63552277935E+02  0.00000000000E+00 0.  1.
        -13    1    4    4    0    0  0.55437794084E+02  0.18273110430E+02 -0.85944699527E+02  0.10389295912E+03  0.00000000000E+00 0. -1.
         13    1    4    4    0    0 -0.22885606618E+02 -0.35713243884E+01  0.42697548352E+01  0.23552837504E+02  0.00000000000E+00 0.  1.
         21    1    1    2  502  501 -0.43662780976E+02  0.71055058652E+00 -0.70682278360E+02  0.83083860039E+02  0.00000000000E+00 0. -1.
<scales pt_clust_5="13000.00000" pt_clust_6="13000.00000" pt_clust_7="13000.00000" pt_clust_8="13000.00000" pt_clust_9="43.66856"></scales>
<clustering>
<clus scale="   43.669">  2  9  1 -1</clus>
<clus scale="   79.420">  5  6 -1 -1</clus>
<clus scale="   81.112">  1  5  2 -1</clus>
<clus scale="   91.082">  7  8 -1 -1</clus>
<clus scale="   43.669">  2  5  1 -1</clus>
</clustering>
</event>
<event>
 9    1  0.2674825E-005  0.9295191E+02  0.7546771E-02  0.1299693E+00
          1   -1    0    0  502    0  0.00000000000E+00  0.00000000000E+00  0.14102843941E+03  0.14102843941E+03  0.00000000000E+00 0. -1.
         -2   -1    0    0    0  501 -0.00000000000E+00 -0.00000000000E+00 -0.12845472209E+03  0.12845472209E+03  0.00000000000E+00 0.  1.
         23    2    1    2    0    0 -0.30357407061E+02 -0.85689874227E+01 -0.74081356357E+02  0.11782719996E+03  0.86024426657E+02 0.  0.
        -24    2    1    2    0    0  0.48231205830E+02  0.23775920911E+02  0.85285665080E+02  0.12814854168E+03  0.79100318816E+02 0.  0.
         11    1    4    4    0    0  0.35668724162E+02  0.43118092343E+02  0.88656394360E+02  0.10483980175E+03  0.00000000000E+00 0. -1.
        -12    1    4    4    0    0  0.12562481668E+02 -0.19342171431E+02 -0.33707292799E+01  0.23308739932E+02  0.00000000000E+00 0.  1.
        -11    1    3    3    0    0 -0.49016888559E+02  0.11737821804E+01 -0.81831295788E+02  0.95395985760E+02  0.00000000000E+00 0.  1.
         11    1    3    3    0    0  0.18659481498E+02 -0.97427696031E+01  0.77499394309E+01  0.22431214200E+02  0.00000000000E+00 0. -1.
         21    1    1    2  502  501 -0.17873798768E+02 -0.15206933489E+02  0.13694085975E+01  0.23507419859E+02  0.00000000000E+00 0.  1.
<scales pt_clust_5="13000.00000" pt_clust_6="13000.00000" pt_clust_7="13000.00000" pt_clust_8="13000.00000" pt_clust_9="23.46750"></scales>
<clustering>
<clus scale="   23.467">  1  9  2 -1</clus>
<clus scale="   79.100">  5  6 -1 -1</clus>
<clus scale="   86.024">  7  8 -1 -1</clus>
<clus scale="   86.584">  1  5  2 -1</clus>
<clus scale="   23.467">  1  5  2 -1</clus>
</clustering>
</event>
<event>
 9    1  0.2674825E-005  0.1556116E+03  0.7546771E-02  0.1218211E+00
          1   -1    0    0  502    0  0.00000000000E+00  0.00000000000E+00  0.83931411753E+03  0.83931411753E+03  0.00000000000E+00 0. -1.
         -2   -1    0    0    0  501 -0.00000000000E+00 -0.00000000000E+00 -0.55185288576E+02  0.55185288576E+02  0.00000000000E+00 0.  1.
        -24    2    1    2    0    0  0.45673195873E+02  0.22080851655E+02  0.10392602978E+03  0.13876320112E+03  0.76687687983E+02 0.  0.
         23    2    1    2    0    0 -0.58999793324E+02  0.11041654213E+03  0.54191483944E+03  0.56375517111E+03  0.92061997408E+02 0.  0.
         11    1    3    3    0    0 -0.13866727657E+02  0.25131533002E+02  0.53354227872E+02  0.60585094856E+02  0.00000000000E+00 0. -1.
        -12    1    3    3    0    0  0.59539923531E+02 -0.30506813470E+01  0.50571801904E+02  0.78178106261E+02  0.00000000000E+00 0.  1.
        -13    1    4    4    0    0 -0.60082297846E+02  0.30858824766E+02  0.34166882714E+03  0.34828111781E+03  0.00000000000E+00 0. -1.
         13    1    4    4    0    0  0.10825045228E+01  0.79557717363E+02  0.20024601230E+03  0.21547405331E+03  0.00000000000E+00 0.  1.
         21    1    1    2  502  501  0.13326597450E+02 -0.13249739378E+03  0.13828795974E+03  0.19198103388E+03  0.00000000000E+00 0. -1.
<scales pt_clust_5="13000.00000" pt_clust_6="13000.00000" pt_clust_7="13000.00000" pt_clust_8="13000.00000" pt_clust_9="125.45739"></scales>
<clustering>
<clus scale="   76.688">  5  6 -1 -1</clus>
<clus scale="   91.949">  2  5  1 -1</clus>
<clus scale="   92.062">  7  8 -1 -1</clus>
<clus scale="  125.457">  2  9  1 -1</clus>
<clus scale="  155.612">  1  5  2 -1</clus>
</clustering>
</event>
<event>
 9    1  0.2674825E-005  0.1023955E+03  0.7546771E-02  0.1289476E+00
         -2   -1    0    0    0  501 -0.00000000000E+00  0.00000000000E+00  0.37573274923E+02  0.37573274923E+02  0.00000000000E+00 0.  1.
          1   -1    0    0  502    0  0.00000000000E+00 -0.00000000000E+00 -0.35371561369E+03  0.35371561369E+03  0.00000000000E+00 0. -1.
         23    2    1    2    0    0 -0.23563374192E+02  0.18247062375E+02 -0.67951271969E+02  0.11978125632E+03  0.94031835644E+02 0.  0.
        -24    2    1    2    0    0  0.44170717551E+02 -0.52250769756E+01 -0.21997960291E+03  0.23422330048E+03  0.67016229925E+02 0.  0.
         11    1    4    4    0    0  0.41085420944E+02  0.18763048713E+02 -0.19199210944E+03  0.19723345025E+03  0.00000000000E+00 0. -1.
        -12    1    4    4    0    0  0.30852966070E+01 -0.23988125689E+02 -0.27987493471E+02  0.36989850229E+02  0.00000000000E+00 0.  1.
        -11    1    3    3    0    0 -0.34104707910E+02 -0.32313557024E+02 -0.31437269361E+02  0.56529629169E+02  0.00000000000E+00 0.  1.
         11    1    3    3    0    0  0.10541333718E+02  0.50560619399E+02 -0.36514002609E+02  0.63251627150E+02  0.00000000000E+00 0. -1.
         21    1    1    2  502  501 -0.20607343360E+02 -0.13021985399E+02 -0.28211463887E+02  0.37284331813E+02  0.00000000000E+00 0.  1.
<scales pt_clust_5="13000.00000" pt_clust_6="13000.00000" pt_clust_7="13000.00000" pt_clust_8="13000.00000" pt_clust_9="24.37693"></scales>
<clustering>
<clus scale="   24.377">  1  9  2 -1</clus>
<clus scale="   67.016">  5  6 -1 -1</clus>
<clus scale="   78.320">  2  5  1 -1</clus>
<clus scale="   94.032">  7  8 -1 -1</clus>
<clus scale="   78.320">  2  5  1 -1</clus>
</clustering>
</event>
<event>
 9    1  0.2674825E-005  0.2215074E+03  0.7546771E-02  0.1134253E+00
          1   -1    0    0  502    0  0.00000000000E+00  0.00000000000E+00  0.42542699042E+03  0.42542699042E+03  0.00000000000E+00 0. -1.
         -2   -1    0    0    0  501 -0.00000000000E+00 -0.00000000000E+00 -0.39400180542E+03  0.39400180542E+03  0.00000000000E+00 0.  1.
        -24    2    1    2    0    0  0.17713340632E+03  0.95409819764E+02 -0.31082792327E+03  0.37838468428E+03  0.77985217002E+02 0.  0.
         23    2    1    2    0    0 -0.17220579259E+03 -0.46082030360E+02  0.33374167079E+03  0.39074543611E+03  0.97571022803E+02 0.  0.
         11    1    3    3    0    0  0.12302423949E+02  0.39357258724E+02 -0.69470546886E+02  0.80786758407E+02  0.00000000000E+00 0. -1.
        -12    1    3    3    0    0  0.16483098237E+03  0.56052561040E+02 -0.24135737638E+03  0.29759792587E+03  0.00000000000E+00 0.  1.
        -13    1    4    4    0    0 -0.11426469548E+03  0.11833725019E+02  0.14499453058E+03  0.18498613888E+03  0.00000000000E+00 0.  1.
         13    1    4    4    0    0 -0.57941097111E+02 -0.57915755379E+02  0.18874714021E+03  0.20575929722E+03  0.00000000000E+00 0. -1.
         21    1    1    2  502  501 -0.49276137316E+01 -0.49327789404E+02  0.85114374799E+01  0.50298675456E+02  0.00000000000E+00 0. -1.
<scales pt_clust_5="13000.00000" pt_clust_6="13000.00000" pt_clust_7="13000.00000" pt_clust_8="13000.00000" pt_clust_9="49.57330"></scales>
<clustering>
<clus scale="   49.573">  1  9  2 -1</clus>
<clus scale="   77.985">  5  6 -1 -1</clus>
<clus scale="   97.571">  7  8 -1 -1</clus>
<clus scale="  213.605">  2  5  1 -1</clus>
<clus scale="   49.573">  1  5  2 -1</clus>
</clustering>
</event>
<event>
 9    1  0.2674825E-005  0.9658145E+02  0.7546771E-02  0.1293979E+00
          1   -1    0    0  502    0  0.00000000000E+00  0.00000000000E+00  0.34391631811E+02  0.34391631811E+02  0.00000000000E+00 0. -1.
         -2   -1    0    0    0  501 -0.00000000000E+00 -0.00000000000E+00 -0.86405014168E+03  0.86405014168E+03  0.00000000000E+00 0.  1.
        -24    2    1    2    0    0  0.11982346104E+02 -0.32503614769E+02 -0.72121822402E+03  0.72643892939E+03  0.79735374059E+02 0.  0.
         23    2    1    2    0    0 -0.23978675109E+02  0.14365797832E+01 -0.10034482497E+03  0.13773027403E+03  0.91233238818E+02 0.  0.
         13    1    3    3    0    0  0.38244896318E+02 -0.38267235233E+00 -0.20365379649E+03  0.20721410994E+03  0.00000000000E+00 0. -1.
        -14    1    3    3    0    0 -0.26262550214E+02 -0.32120942417E+02 -0.51756442753E+03  0.51922481945E+03  0.00000000000E+00 0.  1.
        -11    1    4    4    0    0  0.15012982754E+02  0.36115336257E+02 -0.26246907564E+02  0.47102094654E+02  0.00000000000E+00 0. -1.
         11    1    4    4    0    0 -0.38991657863E+02 -0.34678756474E+02 -0.74097917401E+02  0.90628179374E+02  0.00000000000E+00 0.  1.
         21    1    1    2  502  501  0.11996329005E+02  0.31067034986E+02 -0.80954608774E+01  0.34272570070E+02  0.00000000000E+00 0.  1.
<scales pt_clust_5="13000.00000" pt_clust_6="13000.00000" pt_clust_7="13000.00000" pt_clust_8="13000.00000" pt_clust_9="33.30274"></scales>
<clustering>
<clus scale="   33.303">  1  9  2 -1</clus>
<clus scale="   79.735">  5  6 -1 -1</clus>
<clus scale="   85.803">  2  5  1 -1</clus>
<clus scale="   91.233">  7  8 -1 -1</clus>
<clus scale="   33.303">  1  5  2 -1</clus>
</clustering>
</event>
<event>
 9    1  0.2674825E-005  0.1001517E+03  0.7546771E-02  0.1285817E+00
         -2   -1    0    0    0  501 -0.00000000000E+00  0.00000000000E+00  0.43448220194E+03  0.43448220194E+03  0.00000000000E+00 0.  1.
          1   -1    0    0  502    0  0.00000000000E+00 -0.00000000000E+00 -0.40486052650E+02  0.40486052650E+02  0.00000000000E+00 0. -1.
         23    2    1    2    0    0  0.13815307830E+02 -0.26838357303E+02  0.22190587266E+03  0.24221867506E+03  0.92284939579E+02 0.  0.
        -24    2    1    2    0    0 -0.35736504795E+02  0.34804105566E+02  0.18363397167E+03  0.20672557298E+03  0.80781207180E+02 0.  0.
         13    1    4    4    0    0  0.60659330698E+01  0.30370309465E+02  0.14921585157E+03  0.15239593696E+03  0.00000000000E+00 0. -1.
        -14    1    4    4    0    0 -0.41802437865E+02  0.44337961009E+01  0.34418120101E+02  0.54329636025E+02  0.00000000000E+00 0.  1.
        -13    1    3    3    0    0  0.84536637090E+01 -0.61471706066E+02  0.14174802010E+03  0.15473440561E+03  0.00000000000E+00 0. -1.
         13    1    3    3    0    0  0.53616441212E+01  0.34633348763E+02  0.80157852559E+02  0.87484269450E+02  0.00000000000E+00 0.  1.
         21    1    1    2  502  501  0.21921196965E+02 -0.79657482627E+01 -0.11543695041E+02  0.26024006551E+02  0.00000000000E+00 0. -1.
<scales pt_clust_5="13000.00000" pt_clust_6="13000.00000" pt_clust_7="13000.00000" pt_clust_8="13000.00000" pt_clust_9="23.32364"></scales>
<clustering>
<clus scale="   23.324">  2  9  1 -1</clus>
<clus scale="   80.781">  5  6 -1 -1</clus>
<clus scale="   89.663">  2  5  1 -1</clus>
<clus scale="   92.285">  7  8 -1 -1</clus>
<clus scale="   23.324">  2  5  1 -1</clus>
</clustering>
</event>
<event>
 9    1  0.2674825E-005  0.1100537E+03  0.7546771E-02  0.1263510E+00
         -2   -1    0    0    0  501 -0.00000000000E+00  0.00000000000E+00  0.14959744586E+03  0.14959744586E+03  0.00000000000E+00 0.  1.
          1   -1    0    0  502    0  0.00000000000E+00 -0.00000000000E+00 -0.20913336589E+03  0.20913336589E+03  0.00000000000E+00 0. -1.
         23    2    1    2    0    0  0.71249337690E+02  0.26487635268E+02  0.74043699063E+02  0.13881052865E+03  0.89486482500E+02 0.  0.
        -24    2    1    2    0    0  0.27330119270E+00 -0.48781670385E+02 -0.99620738216E+02  0.13766630164E+03  0.81535225921E+02 0.  0.
         11    1    4    4    0    0  0.38833118813E+02 -0.19985606326E+02 -0.65289206594E+02  0.78550086407E+02  0.00000000000E+00 0. -1.
        -12    1    4    4    0    0 -0.38559817620E+02 -0.28796064059E+02 -0.34331531622E+02  0.59116215234E+02  0.00000000000E+00 0.  1.
        -11    1    3    3    0    0  0.73281607270E+02 -0.14912646656E+02  0.38016793435E+02  0.83891939884E+02  0.00000000000E+00 0.  1.
         11    1    3    3    0    0 -0.20322695809E+01  0.41400281924E+02  0.36026905628E+02  0.54918588767E+02  0.00000000000E+00 0. -1.
         21    1    1    2  502  501 -0.71522638882E+02  0.22294035117E+02 -0.33958880877E+02  0.82253981453E+02  0.00000000000E+00 0. -1.
<scales pt_clust_5="13000.00000" pt_clust_6="13000.00000" pt_clust_7="13000.00000" pt_clust_8="13000.00000" pt_clust_9="74.91670"></scales>
<clustering>
<clus scale="   74.917">  2  9  1 -1</clus>
<clus scale="   81.535">  5  6 -1 -1</clus>
<clus scale="   89.486">  7  8 -1 -1</clus>
<clus scale="  103.692">  2  5  1 -1</clus>
<clus scale="   74.917">  2  5  1 -1</clus>
</clustering>
</event>
<event>
 9    1  0.2674825E-005  0.1420906E+03  0.7546771E-02  0.1212984E+00
          1   -1    0    0  502    0  0.00000000000E+00  0.00000000000E+00  0.46664206921E+02  0.46664206921E+02  0.00000000000E+00 0. -1.
         -2   -1    0    0    0  501 -0.00000000000E+00 -0.00000000000E+00 -0.49635303246E+03  0.49635303246E+03  0.00000000000E+00 0.  1.
         23    2    1    2    0    0 -0.12919210359E+02 -0.10322346719E+03 -0.24761218333E+03  0.28394732964E+03  0.92153689561E+02 0.  0.
        -24    2    1    2    0    0  0.33839767129E+02  0.10963616479E+03 -0.17405044591E+03  0.22351347481E+03  0.80619459381E+02 0.  0.
         11    1    4    4    0    0  0.16909673670E+02  0.11146888023E+03 -0.11104537511E+03  0.15824766556E+03  0.00000000000E+00 0. -1.
        -12    1    4    4    0    0  0.16930093459E+02 -0.18327154349E+01 -0.63005070798E+02  0.65265809247E+02  0.00000000000E+00 0.  1.
        -11    1    3    3    0    0  0.14423495427E+02 -0.10386818298E+03 -0.15319397634E+03  0.18564759908E+03  0.00000000000E+00 0.  1.
         11    1    3    3    0    0 -0.27342705786E+02  0.64471578065E+00 -0.94418206986E+02  0.98299730562E+02  0.00000000000E+00 0. -1.
         21    1    1    2  502  501 -0.20920556770E+02 -0.64126975969E+01 -0.28026196294E+02  0.35556434927E+02  0.00000000000E+00 0.  1.
<scales pt_clust_5="13000.00000" pt_clust_6="13000.00000" pt_clust_7="13000.00000" pt_clust_8="13000.00000" pt_clust_9="21.88133"></scales>
<clustering>
<clus scale="   21.881">  1  9  2 -1</clus>
<clus scale="   80.619">  5  6 -1 -1</clus>
<clus scale="   92.154">  7  8 -1 -1</clus>
<clus scale="  134.896">  1  5  2 -1</clus>
<clus scale="   21.881">  1  5  2 -1</clus>
</clustering>
</event>
<event>
 9    1  0.2674825E-005  0.1282417E+03  0.7546771E-02  0.1233527E+00
          1   -1    0    0  502    0  0.00000000000E+00  0.00000000000E+00  0.26925150174E+03  0.26925150174E+03  0.00000000000E+00 0. -1.
         -2   -1    0    0    0  501 -0.00000000000E+00 -0.00000000000E+00 -0.14931875327E+03  0.14931875327E+03  0.00000000000E+00 0.  1.
         23    2    1    2    0    0 -0.89004119675E+02 -0.29401807236E+02 -0.98028304097E+02  0.16334441299E+03  0.91025541822E+02 0.  0.
        -24    2    1    2    0    0  0.63642605511E+02  0.34366351218E+02  0.16681774496E+03  0.19792408802E+03  0.78194355637E+02 0.  0.
         13    1    4    4    0    0  0.39193165481E+02  0.28363761696E+02  0.16581485575E+03  0.17272861252E+03  0.00000000000E+00 0. -1.
        -14    1    4    4    0    0  0.24449440030E+02  0.60025895214E+01  0.10028892116E+01  0.25195475497E+02  0.00000000000E+00 0.  1.
        -13    1    3    3    0    0  0.88527995650E+01  0.18933589606E+02 -0.10231254245E+02  0.23270828067E+02  0.00000000000E+00 0. -1.
         13    1    3    3    0    0 -0.97856919240E+02 -0.48335396842E+02 -0.87797049852E+02  0.14007358492E+03  0.00000000000E+00 0.  1.
         21    1    1    2  502  501  0.25361514164E+02 -0.49645439817E+01  0.51143307612E+02  0.57301753997E+02  0.00000000000E+00 0. -1.
<scales pt_clust_5="13000.00000" pt_clust_6="13000.00000" pt_clust_7="13000.00000" pt_clust_8="13000.00000" pt_clust_9="25.84285"></scales>
<clustering>
<clus scale="   25.843">  1  9  2 -1</clus>
<clus scale="   78.194">  5  6 -1 -1</clus>
<clus scale="   91.026">  7  8 -1 -1</clus>
<clus scale="  119.477">  1  5  2 -1</clus>
<clus scale="   25.843">  1  5  2 -1</clus>
</clustering>
</event>
<event>
 9    1  0.2674825E-005  0.9624833E+02  0.7546771E-02  0.1295537E+00
         -4   -1    0    0    0  501 -0.00000000000E+00  0.00000000000E+00  0.80256826456E+02  0.80256826456E+02  0.00000000000E+00 0.  1.
          3   -1    0    0  502    0  0.00000000000E+00 -0.00000000000E+00 -0.14500257688E+03  0.14500257688E+03  0.00000000000E+00 0. -1.
         23    2    1    2    0    0 -0.21716467298E+02  0.35700028485E+02 -0.30123863525E+01  0.10015635908E+03  0.90973209286E+02 0.  0.
        -24    2    1    2    0    0  0.18657471329E+02 -0.96807123147E+01 -0.36644113459E+02  0.88828635002E+02  0.78140373161E+02 0.  0.
         11    1    4    4    0    0 -0.40308140080E+01 -0.31234434124E+02  0.96596959918E+01  0.32941570443E+02  0.00000000000E+00 0. -1.
        -12    1    4    4    0    0  0.22688285337E+02  0.21553721809E+02 -0.46303809451E+02  0.55887064559E+02  0.00000000000E+00 0.  1.
        -13    1    3    3    0    0  0.24978197122E+02  0.39296904112E+02  0.16528736865E+02  0.49410081426E+02  0.00000000000E+00 0.  1.
         13    1    3    3    0    0 -0.46694664419E+02 -0.35968756270E+01 -0.19541123217E+02  0.50746277658E+02  0.00000000000E+00 0. -1.
         21    1    1    2  502  501  0.30589959686E+01 -0.26019316170E+02 -0.25089250617E+02  0.36274409255E+02  0.00000000000E+00 0. -1.
<scales pt_clust_5="13000.00000" pt_clust_6="13000.00000" pt_clust_7="13000.00000" pt_clust_8="13000.00000" pt_clust_9="26.19852"></scales>
<clustering>
<clus scale="   26.199">  2  9  1 -1</clus>
<clus scale="   78.140">  5  6 -1 -1</clus>
<clus scale="   84.223">  2  5  1 -1</clus>
<clus scale="   90.973">  7  8 -1 -1</clus>
<clus scale="   26.199">  2  5  1 -1</clus>
</clustering>
</event>
<event>
 9    1  0.2674825E-005  0.1110987E+03  0.7546771E-02  0.1262303E+00
          1   -1    0    0  502    0  0.00000000000E+00  0.00000000000E+00  0.72203680129E+02  0.72203680129E+02  0.00000000000E+00 0. -1.
         -2   -1    0    0    0  501 -0.00000000000E+00 -0.00000000000E+00 -0.21497025899E+03  0.21497025899E+03  0.00000000000E+00 0.  1.
        -24    2    1    2    0    0  0.58292646458E+02 -0.45917884776E+02 -0.10091821196E+03  0.14935013734E+03  0.81329534898E+02 0.  0.
         23    2    1    2    0    0 -0.36727979195E+02  0.45190400678E+02 -0.26534856634E+02  0.11136500921E+03  0.91142470291E+02 0.  0.
         13    1    3    3    0    0  0.74126321693E+02 -0.15625786942E+02 -0.73204417487E+02  0.10534592315E+03  0.00000000000E+00 0. -1.
        -14    1    3    3    0    0 -0.15833675235E+02 -0.30292097834E+02 -0.27713794470E+02  0.44004214191E+02  0.00000000000E+00 0.  1.
        -11    1    4    4    0    0 -0.29557021652E+02  0.24562363042E+02 -0.60090348219E+02  0.71328655926E+02  0.00000000000E+00 0.  1.
         11    1    4    4    0    0 -0.71709575435E+01  0.20628037636E+02  0.33555491585E+02  0.40036353285E+02  0.00000000000E+00 0. -1.
         21    1    1    2  502  501 -0.21564667263E+02  0.72748409761E+00 -0.15313510273E+02  0.26458792568E+02  0.00000000000E+00 0.  1.
<scales pt_clust_5="13000.00000" pt_clust_6="13000.00000" pt_clust_7="13000.00000" pt_clust_8="13000.00000" pt_clust_9="21.57693"></scales>
<clustering>
<clus scale="   21.577">  2  9  1 -1</clus>
<clus scale="   81.330">  5  6 -1 -1</clus>
<clus scale="   91.142">  7  8 -1 -1</clus>
<clus scale="  103.201">  2  5  1 -1</clus>
<clus scale="  111.099">  1  5  2 -1</clus>
</clustering>
</event>
<event>
 9    1  0.2674825E-005  0.1244472E+03  0.7546771E-02  0.1256740E+00
          1   -1    0    0  502    0  0.00000000000E+00  0.00000000000E+00  0.76024343637E+02  0.76024343637E+02  0.00000000000E+00 0. -1.
         -2   -1    0    0    0  501 -0.00000000000E+00 -0.00000000000E+00 -0.43896065278E+03  0.43896065278E+03  0.00000000000E+00 0.  1.
        -24    2    1    2    0    0  0.17140008848E+02 -0.82080581440E+00 -0.25645956661E+03  0.26922471654E+03  0.80099844368E+02 0.  0.
         23    2    1    2    0    0 -0.31061323349E+02 -0.80510394766E+02 -0.10296240719E+03  0.16317143233E+03  0.92611713957E+02 0.  0.
         13    1    3    3    0    0 -0.30373277450E+02 -0.84229228475E+01 -0.13385580381E+03  0.13751675471E+03  0.00000000000E+00 0. -1.
        -14    1    3    3    0    0  0.47513286298E+02  0.76021170331E+01 -0.12260376280E+03  0.13170796183E+03  0.00000000000E+00 0.  1.
        -13    1    4    4    0    0 -0.41761572600E+01 -0.39322918615E+02  0.92859851813E+01  0.40619721055E+02  0.00000000000E+00 0. -1.
         13    1    4    4    0    0 -0.26885166089E+02 -0.41187476151E+02 -0.11224839237E+03  0.12255171128E+03  0.00000000000E+00 0.  1.
         21    1    1    2  502  501  0.13921314501E+02  0.81331200580E+02 -0.35143353461E+01  0.82588847541E+02  0.00000000000E+00 0.  1.
<scales pt_clust_5="13000.00000" pt_clust_6="13000.00000" pt_clust_7="13000.00000" pt_clust_8="13000.00000" pt_clust_9="83.12750"></scales>
<clustering>
<clus scale="   80.100">  5  6 -1 -1</clus>
<clus scale="   81.917">  2  5  1 -1</clus>
<clus scale="   83.127">  1  9  2 -1</clus>
<clus scale="   92.612">  7  8 -1 -1</clus>
<clus scale="   83.127">  1  5  2 -1</clus>
</clustering>
</event>
<event>
 9    1  0.2674825E-005  0.9831411E+02  0.7546771E-02  0.1290921E+00
          1   -1    0    0  502    0  0.00000000000E+00  0.00000000000E+00  0.12778293506E+03  0.12778293506E+03  0.00000000000E+00 0. -1.
         -2   -1    0    0    0  501 -0.00000000000E+00 -0.00000000000E+00 -0.10411822597E+03  0.10411822597E+03  0.00000000000E+00 0.  1.
         23    2    1    2    0    0 -0.19663944922E+02  0.40752615838E+02 -0.31216023258E+02  0.10746065939E+03  0.92335836926E+02 0.  0.
        -24    2    1    2    0    0  0.10380184516E+02 -0.11359255603E+02  0.36795203431E+02  0.88701948374E+02  0.79229841167E+02 0.  0.
         11    1    4    4    0    0  0.44746989946E+02 -0.41335737939E+01  0.26212874554E+02  0.52023978452E+02  0.00000000000E+00 0. -1.
        -12    1    4    4    0    0 -0.34366805431E+02 -0.72256818095E+01  0.10582328877E+02  0.36677969922E+02  0.00000000000E+00 0.  1.
        -11    1    3    3    0    0 -0.20215184310E+02 -0.21297330062E+02 -0.34521020005E+02  0.45320312959E+02  0.00000000000E+00 0. -1.
         11    1    3    3    0    0  0.55123938772E+00  0.62049945900E+02  0.33049967470E+01  0.62140346431E+02  0.00000000000E+00 0.  1.
         21    1    1    2  502  501  0.92837604062E+01 -0.29393360234E+02  0.18085528918E+02  0.35738553264E+02  0.00000000000E+00 0. -1.
<scales pt_clust_5="13000.00000" pt_clust_6="13000.00000" pt_clust_7="13000.00000" pt_clust_8="13000.00000" pt_clust_9="30.82463"></scales>
<clustering>
<clus scale="   30.825">  1  9  2 -1</clus>
<clus scale="   79.230">  5  6 -1 -1</clus>
<clus scale="   86.123">  1  5  2 -1</clus>
<clus scale="   92.336">  7  8 -1 -1</clus>
<clus scale="   30.825">  1  5  2 -1</clus>
</clustering>
</event>
<event>
 9    1  0.2674825E-005  0.1154620E+03  0.7546771E-02  0.1254090E+00
          1   -1    0    0  502    0  0.00000000000E+00  0.00000000000E+00  0.21446397597E+03  0.21446397597E+03  0.00000000000E+00 0. -1.
         -2   -1    0    0    0  501 -0.00000000000E+00 -0.00000000000E+00 -0.14343664968E+03  0.14343664968E+03  0.00000000000E+00 0.  1.
         23    2    1    2    0    0 -0.34024523255E+02  0.60291077285E+02 -0.87325215053E+02  0.14301195091E+03  0.89632821753E+02 0.  0.
        -24    2    1    2    0    0  0.43630824450E+02 -0.80627437597E+02  0.12290276352E+03  0.17290611501E+03  0.79918726157E+02 0.  0.
         11    1    4    4    0    0  0.49921574336E+02 -0.15586772706E+02  0.76877848154E+02  0.92980183934E+02  0.00000000000E+00 0. -1.
        -12    1    4    4    0    0 -0.62907498862E+01 -0.65040664891E+02  0.46024915367E+02  0.79925931074E+02  0.00000000000E+00 0.  1.
        -11    1    3    3    0    0  0.76945778930E+00  0.48126181615E+02  0.10198724387E+00  0.48132440448E+02  0.00000000000E+00 0. -1.
         11    1    3    3    0    0 -0.34793981044E+02  0.12164895670E+02 -0.87427202297E+02  0.94879510460E+02  0.00000000000E+00 0.  1.
         21    1    1    2  502  501 -0.96063011952E+01  0.20336360312E+02  0.35449777827E+02  0.41982559728E+02  0.00000000000E+00 0. -1.
<scales pt_clust_5="13000.00000" pt_clust_6="13000.00000" pt_clust_7="13000.00000" pt_clust_8="13000.00000" pt_clust_9="22.49108"></scales>
<clustering>
<clus scale="   22.491">  1  9  2 -1</clus>
<clus scale="   79.919">  5  6 -1 -1</clus>
<clus scale="   89.633">  7  8 -1 -1</clus>
<clus scale="  108.095">  1  5  2 -1</clus>
<clus scale="   22.491">  1  5  2 -1</clus>
</clustering>
</event>
<event>
 9    1  0.2674825E-005  0.1318091E+03  0.7546771E-02  0.1227897E+00
          1   -1    0    0  502    0  0.00000000000E+00  0.00000000000E+00  0.92963386490E+02  0.92963386490E+02  0.00000000000E+00 0. -1.
         -2   -1    0    0    0  501 -0.00000000000E+00 -0.00000000000E+00 -0.48234911546E+03  0.48234911546E+03  0.00000000000E+00 0.  1.
        -24    2    1    2    0    0 -0.59024364382E+02  0.61641001388E+02 -0.29918885573E+03  0.32100127433E+03  0.79021250865E+02 0.  0.
         23    2    1    2    0    0  0.11280160231E+03 -0.95866169361E+02 -0.68962579465E+02  0.18712306888E+03  0.91349228941E+02 0.  0.
         13    1    3    3    0    0 -0.71258505673E+02  0.54946858039E+02 -0.18245520156E+03  0.20343753934E+03  0.00000000000E+00 0. -1.
        -14    1    3    3    0    0  0.12234141291E+02  0.66941433496E+01 -0.11673365417E+03  0.11756373499E+03  0.00000000000E+00 0.  1.
        -13    1    4    4    0    0  0.42032966803E+02 -0.86423526826E+02 -0.14206185745E+02  0.97147372588E+02  0.00000000000E+00 0.  1.
         13    1    4    4    0    0  0.70768635509E+02 -0.94426425348E+01 -0.54756393720E+02  0.89975696291E+02  0.00000000000E+00 0. -1.
         21    1    1    2  502  501 -0.53777237930E+02  0.34225167973E+02 -0.21234293771E+02  0.67188158734E+02  0.00000000000E+00 0. -1.
<scales pt_clust_5="13000.00000" pt_clust_6="13000.00000" pt_clust_7="13000.00000" pt_clust_8="13000.00000" pt_clust_9="63.74444"></scales>
<clustering>
<clus scale="   63.744">  1  9  2 -1</clus>
<clus scale="   79.021">  5  6 -1 -1</clus>
<clus scale="   91.349">  7  8 -1 -1</clus>
<clus scale="  123.585">  2  5  1 -1</clus>
<clus scale="   63.744">  1  5  2 -1</clus>
</clustering>
</event>
<event>
 9    1  0.2674825E-005  0.1014231E+03  0.7546771E-02  0.1283181E+00
         -2   -1    0    0    0  501 -0.00000000000E+00  0.00000000000E+00  0.44914854409E+02  0.44914854409E+02  0.00000000000E+00 0.  1.
          1   -1    0    0  502    0  0.00000000000E+00 -0.00000000000E+00 -0.37759013083E+03  0.37759013083E+03  0.00000000000E+00 0. -1.
        -24    2    1    2    0    0  0.46956586481E+02 -0.11610858064E+02 -0.28863396801E+02  0.96714276741E+02  0.78618207890E+02 0.  0.
         23    2    1    2    0    0 -0.28627443455E+02  0.20107388764E+02 -0.24434714004E+03  0.26298781230E+03  0.90737131147E+02 0.  0.
         11    1    3    3    0    0  0.55205780203E+02 -0.36432717796E+02 -0.20178121191E+02  0.69153291090E+02  0.00000000000E+00 0. -1.
        -12    1    3    3    0    0 -0.82491937216E+01  0.24821859732E+02 -0.86852756098E+01  0.27560985651E+02  0.00000000000E+00 0.  1.
        -13    1    4    4    0    0 -0.61098222297E+02  0.17011691933E+02 -0.17998351259E+03  0.19083095984E+03  0.00000000000E+00 0. -1.
         13    1    4    4    0    0  0.32470778842E+02  0.30956968313E+01 -0.64363627456E+02  0.72156852459E+02  0.00000000000E+00 0.  1.
         21    1    1    2  502  501 -0.18329143026E+02 -0.84965307002E+01 -0.59464739571E+02  0.62802896193E+02  0.00000000000E+00 0. -1.
<scales pt_clust_5="13000.00000" pt_clust_6="13000.00000" pt_clust_7="13000.00000" pt_clust_8="13000.00000" pt_clust_9="20.20269"></scales>
<clustering>
<clus scale="   20.203">  2  9  1 -1</clus>
<clus scale="   78.618">  5  6 -1 -1</clus>
<clus scale="   90.737">  7  8 -1 -1</clus>
<clus scale="   90.743">  1  5  2 -1</clus>
<clus scale="   20.203">  2  5  1 -1</clus>
</clustering>
</event>
<event>
 9    1  0.2674825E-005  0.1100563E+03  0.7546771E-02  0.1261168E+00
          1   -1    0    0  502    0  0.00000000000E+00  0.00000000000E+00  0.59242466894E+02  0.59242466894E+02  0.00000000000E+00 0. -1.
         -2   -1    0    0    0  501 -0.00000000000E+00 -0.00000000000E+00 -0.97138096796E+03  0.97138096796E+03  0.00000000000E+00 0.  1.
        -24    2    1    2    0    0  0.36722082150E+02  0.56699152138E+02 -0.79983989230E+03  0.80684859585E+03  0.81838243711E+02 0.  0.
         23    2    1    2    0    0 -0.53420139390E+02 -0.10370100241E+03 -0.81640077671E+02  0.16522618767E+03  0.83827093570E+02 0.  0.
         11    1    3    3    0    0  0.12004481894E+02  0.17756939484E+02 -0.38113845921E+02  0.43727356841E+02  0.00000000000E+00 0. -1.
        -12    1    3    3    0    0  0.24717600255E+02  0.38942212654E+02 -0.76172604638E+03  0.76312123901E+03  0.00000000000E+00 0.  1.
        -11    1    4    4    0    0  0.89236178729E+01 -0.68669088204E+02 -0.23706352791E+02  0.73191979024E+02  0.00000000000E+00 0.  1.
         11    1    4    4    0    0 -0.62343757262E+02 -0.35031914204E+02 -0.57933724880E+02  0.92034208645E+02  0.00000000000E+00 0. -1.
         21    1    1    2  502  501  0.16698057240E+02  0.47001850270E+02 -0.30658531089E+02  0.58548651333E+02  0.00000000000E+00 0. -1.
<scales pt_clust_5="13000.00000" pt_clust_6="13000.00000" pt_clust_7="13000.00000" pt_clust_8="13000.00000" pt_clust_9="49.87985"></scales>
<clustering>
<clus scale="   49.880">  1  9  2 -1</clus>
<clus scale="   81.838">  5  6 -1 -1</clus>
<clus scale="   83.827">  7  8 -1 -1</clus>
<clus scale="  108.549">  2  5  1 -1</clus>
<clus scale="   49.880">  1  5  2 -1</clus>
</clustering>
</event>
<event>
 9    1  0.2674825E-005  0.1087033E+03  0.7546771E-02  0.1266827E+00
         -2   -1    0    0    0  501 -0.00000000000E+00  0.00000000000E+00  0.61000345833E+02  0.61000345833E+02  0.00000000000E+00 0.  1.
          1   -1    0    0  502    0  0.00000000000E+00 -0.00000000000E+00 -0.88990003482E+03  0.88990003482E+03  0.00000000000E+00 0. -1.
         23    2    1    2    0    0  0.63875815217E+02 -0.53928074283E+01  0.43578906495E+01  0.10967506143E+03  0.88884339158E+02 0.  0.
        -24    2    1    2    0    0 -0.43066525150E+02 -0.71821210065E+01 -0.69452977643E+03  0.70038300044E+03  0.79110230068E+02 0.  0.
         13    1    4    4    0    0 -0.56988411811E+02  0.88918393592E+01 -0.31359043737E+03  0.31885060184E+03  0.00000000000E+00 0. -1.
        -14    1    4    4    0    0  0.13921886662E+02 -0.16073960366E+02 -0.38093933907E+03  0.38153239860E+03  0.00000000000E+00 0.  1.
        -11    1    3    3    0    0  0.74208878191E+02 -0.32124421261E+02  0.48834780883E+01  0.81011014078E+02  0.00000000000E+00 0.  1.
         11    1    3    3    0    0 -0.10333062974E+02  0.26731613833E+02 -0.52558743874E+00  0.28664047354E+02  0.00000000000E+00 0. -1.
         21    1    1    2  502  501 -0.20809290068E+02  0.12574928435E+02 -0.13872780320E+03  0.14084231878E+03  0.00000000000E+00 0. -1.
<scales pt_clust_5="13000.00000" pt_clust_6="13000.00000" pt_clust_7="13000.00000" pt_clust_8="13000.00000" pt_clust_9="24.31369"></scales>
<clustering>
<clus scale="   24.314">  2  9  1 -1</clus>
<clus scale="   79.110">  5  6 -1 -1</clus>
<clus scale="   88.884">  7  8 -1 -1</clus>
<clus scale="  100.868">  2  5  1 -1</clus>
<clus scale="   24.314">  2  5  1 -1</clus>
</clustering>
</event>
<event>
 9    1  0.2674825E-005  0.2250851E+03  0.7546771E-02  0.1130856E+00
         -2   -1    0    0    0  501 -0.00000000000E+00  0.00000000000E+00  0.42130224022E+03  0.42130224022E+03  0.00000000000E+00 0.  1.
          1   -1    0    0  502    0  0.00000000000E+00 -0.00000000000E+00 -0.23059674023E+03  0.23059674023E+03  0.00000000000E+00 0. -1.
         23    2    1    2    0    0  0.19866160003E+03  0.32439485671E+02  0.13747670697E+03  0.25987446001E+03  0.90089613420E+02 0.  0.
        -24    2    1    2    0    0 -0.19105162952E+03 -0.10390822018E+03  0.14661174013E+03  0.27418536535E+03  0.79906000190E+02 0.  0.
         11    1    4    4    0    0 -0.85709483052E+02 -0.67722832480E+01  0.74539115844E+02  0.11378953861E+03  0.00000000000E+00 0. -1.
        -12    1    4    4    0    0 -0.10534214646E+03 -0.97135936930E+02  0.72072624283E+02  0.16039582674E+03  0.00000000000E+00 0.  1.
        -11    1    3    3    0    0  0.17550177934E+03  0.47777091199E+02  0.14322231068E+03  0.23150843456E+03  0.00000000000E+00 0.  1.
         11    1    3    3    0    0  0.23159820687E+02 -0.15337605528E+02 -0.57456037073E+01  0.28366025446E+02  0.00000000000E+00 0. -1.
         21    1    1    2  502  501 -0.76099705155E+01  0.71468734507E+02 -0.93382947112E+02  0.11783915510E+03  0.00000000000E+00 0. -1.
<scales pt_clust_5="13000.00000" pt_clust_6="13000.00000" pt_clust_7="13000.00000" pt_clust_8="13000.00000" pt_clust_9="71.87275"></scales>
<clustering>
<clus scale="   71.873">  2  9  1 -1</clus>
<clus scale="   79.906">  5  6 -1 -1</clus>
<clus scale="   90.090">  7  8 -1 -1</clus>
<clus scale="  221.206">  2  5  1 -1</clus>
<clus scale="   71.873">  2  5  1 -1</clus>
</clustering>
</event>
<event>
 9    1  0.2674825E-005  0.1148253E+03  0.7546771E-02  0.1254741E+00
          3   -1    0    0  502    0  0.00000000000E+00  0.00000000000E+00  0.42474620434E+03  0.42474620434E+03  0.00000000000E+00 0. -1.
         -4   -1    0    0    0  501 -0.00000000000E+00 -0.00000000000E+00 -0.86918588496E+02  0.86918588496E+02  0.00000000000E+00 0.  1.
         23    2    1    2    0    0 -0.60779577926E+02  0.36620657749E+02 -0.25009891627E+02  0.11960382481E+03  0.92974999661E+02 0.  0.
        -24    2    1    2    0    0  0.33305777337E+02 -0.45616036711E+02  0.17981672717E+03  0.20677110705E+03  0.85030216573E+02 0.  0.
         13    1    4    4    0    0  0.26099993712E+02 -0.70673771957E+02  0.14335193502E+03  0.16194372167E+03  0.00000000000E+00 0. -1.
        -14    1    4    4    0    0  0.72057836251E+01  0.25057735246E+02  0.36464792156E+02  0.44827385383E+02  0.00000000000E+00 0.  1.
        -13    1    3    3    0    0 -0.19697859598E+02  0.20833373802E+02 -0.57934203107E+02  0.64640598902E+02  0.00000000000E+00 0.  1.
         13    1    3    3    0    0 -0.41081718328E+02  0.15787283947E+02  0.32924311481E+02  0.54963225903E+02  0.00000000000E+00 0. -1.
         21    1    1    2  502  501  0.27473800589E+02  0.89953789618E+01  0.18302078029E+03  0.18528986098E+03  0.00000000000E+00 0. -1.
<scales pt_clust_5="13000.00000" pt_clust_6="13000.00000" pt_clust_7="13000.00000" pt_clust_8="13000.00000" pt_clust_9="28.90894"></scales>
<clustering>
<clus scale="   28.909">  1  9  2 -1</clus>
<clus scale="   85.030">  5  6 -1 -1</clus>
<clus scale="   92.975">  7  8 -1 -1</clus>
<clus scale="  108.493">  1  5  2 -1</clus>
<clus scale="   28.909">  1  5  2 -1</clus>
</clustering>
</event>
<event>
 9    1  0.2674825E-005  0.2423730E+03  0.7546771E-02  0.1159212E+00
         -2   -1    0    0    0  501 -0.00000000000E+00  0.00000000000E+00  0.24929654751E+03  0.24929654751E+03  0.00000000000E+00 0.  1.
          1   -1    0    0  502    0  0.00000000000E+00 -0.00000000000E+00 -0.32068243737E+03  0.32068243737E+03  0.00000000000E+00 0. -1.
        -24    2    1    2    0    0 -0.86381631817E+01 -0.39664407149E+02 -0.94802835096E+01  0.90439173495E+02  0.80258864117E+02 0.  0.
         23    2    1    2    0    0 -0.10472174704E+03 -0.17221071928E+03  0.28441503826E+02  0.22282179729E+03  0.90650196200E+02 0.  0.
         11    1    3    3    0    0  0.70334275922E+01 -0.51536856021E+02 -0.31586992920E+02  0.60854373334E+02  0.00000000000E+00 0. -1.
        -12    1    3    3    0    0 -0.15671590774E+02  0.11872448872E+02  0.22106709410E+02  0.29584800161E+02  0.00000000000E+00 0.  1.
        -11    1    4    4    0    0 -0.72394488064E+02 -0.67976569481E+02  0.50612622166E+02  0.11146036705E+03  0.00000000000E+00 0. -1.
         11    1    4    4    0    0 -0.32327258972E+02 -0.10423414980E+03 -0.22171118340E+02  0.11136143024E+03  0.00000000000E+00 0.  1.
         21    1    1    2  502  501  0.11335991022E+03  0.21187512643E+03 -0.90347110174E+02  0.25671801409E+03  0.00000000000E+00 0. -1.
<scales pt_clust_5="13000.00000" pt_clust_6="13000.00000" pt_clust_7="13000.00000" pt_clust_8="13000.00000" pt_clust_9="224.78263"></scales>
<clustering>
<clus scale="   80.259">  5  6 -1 -1</clus>
<clus scale="   89.941">  1  5  2 -1</clus>
<clus scale="   90.650">  7  8 -1 -1</clus>
<clus scale="  224.783">  2  9  1 -1</clus>
<clus scale="  224.783">  2  5  1 -1</clus>
</clustering>
</event>
<event>
 9    1  0.2674825E-005  0.1356718E+03  0.7546771E-02  0.1240493E+00
         -2   -1    0    0    0  501 -0.00000000000E+00  0.00000000000E+00  0.83967270355E+02  0.83967270355E+02  0.00000000000E+00 0.  1.
          1   -1    0    0  502    0  0.00000000000E+00 -0.00000000000E+00 -0.79017296484E+03  0.79017296484E+03  0.00000000000E+00 0. -1.
        -24    2    1    2    0    0 -0.29156617951E+02 -0.32783620474E+01  0.32919084514E+02  0.93514848950E+02  0.82465173382E+02 0.  0.
         23    2    1    2    0    0 -0.59032812141E+02 -0.54083109210E+02 -0.23069722618E+03  0.26142764893E+03  0.93345325798E+02 0.  0.
         11    1    3    3    0    0  0.21306188723E+02 -0.18685247297E+02 -0.46847968884E+01  0.28723500245E+02  0.00000000000E+00 0. -1.
        -12    1    3    3    0    0 -0.50462806674E+02  0.15406885250E+02  0.37603881402E+02  0.64791348705E+02  0.00000000000E+00 0.  1.
        -13    1    4    4    0    0 -0.37556625731E+02 -0.74754033061E+02 -0.11663786082E+03  0.14353764723E+03  0.00000000000E+00 0.  1.
         13    1    4    4    0    0 -0.21476186410E+02  0.20670923851E+02 -0.11405936536E+03  0.11789000171E+03  0.00000000000E+00 0. -1.
         21    1    1    2  502  501  0.88189430092E+02  0.57361471258E+02 -0.50842755282E+03  0.51919773731E+03  0.00000000000E+00 0. -1.
<scales pt_clust_5="13000.00000" pt_clust_6="13000.00000" pt_clust_7="13000.00000" pt_clust_8="13000.00000" pt_clust_9="98.45549"></scales>
<clustering>
<clus scale="   82.465">  5  6 -1 -1</clus>
<clus scale="   87.529">  1  5  2 -1</clus>
<clus scale="   93.345">  7  8 -1 -1</clus>
<clus scale="   98.455">  2  9  1 -1</clus>
<clus scale="   98.455">  2  5  1 -1</clus>
</clustering>
</event>
<event>
 9    1  0.2674825E-005  0.2880465E+03  0.7546771E-02  0.1091796E+00
          1   -1    0    0  502    0  0.00000000000E+00  0.00000000000E+00  0.63406548265E+03  0.63406548265E+03  0.00000000000E+00 0. -1.
         -2   -1    0    0    0  501 -0.00000000000E+00 -0.00000000000E+00 -0.17342471437E+03  0.17342471437E+03  0.00000000000E+00 0.  1.
        -24    2    1    2    0    0 -0.25063459198E+03  0.11451927416E+03  0.41946552289E+02  0.29020507808E+03  0.80790539304E+02 0.  0.
         23    2    1    2    0    0  0.25020767451E+03 -0.94454263196E+02  0.37874342367E+03  0.47257658809E+03  0.91414235333E+02 0.  0.
         11    1    3    3    0    0 -0.88672690289E+02  0.46248368394E+02  0.54681150271E+02  0.11398151507E+03  0.00000000000E+00 0. -1.
        -12    1    3    3    0    0 -0.16196190169E+03  0.68270905771E+02 -0.12734597982E+02  0.17622356301E+03  0.00000000000E+00 0.  1.
        -13    1    4    4    0    0  0.22409978942E+03 -0.77447328267E+02  0.37128904669E+03  0.44053871620E+03  0.00000000000E+00 0. -1.
         13    1    4    4    0    0  0.26107885086E+02 -0.17006934929E+02  0.74543769738E+01  0.32037871893E+02  0.00000000000E+00 0.  1.
         21    1    1    2  502  501  0.42691746925E+00 -0.20065010968E+02  0.39950792322E+02  0.44708530851E+02  0.00000000000E+00 0. -1.
<scales pt_clust_5="13000.00000" pt_clust_6="13000.00000" pt_clust_7="13000.00000" pt_clust_8="13000.00000" pt_clust_9="20.06955"></scales>
<clustering>
<clus scale="   20.070">  1  9  2 -1</clus>
<clus scale="   80.791">  5  6 -1 -1</clus>
<clus scale="   91.414">  7  8 -1 -1</clus>
<clus scale="  284.853">  2  5  1 -1</clus>
<clus scale="   20.070">  1  5  2 -1</clus>
</clustering>
</event>
<event>
 9    1  0.2674825E-005  0.1673174E+03  0.7546771E-02  0.1181419E+00
         -2   -1    0    0    0  501 -0.00000000000E+00  0.00000000000E+00  0.75671826114E+02  0.75671826114E+02  0.00000000000E+00 0.  1.
          1   -1    0    0  502    0  0.00000000000E+00 -0.00000000000E+00 -0.75967171099E+03  0.75967171099E+03  0.00000000000E+00 0. -1.
         23    2    1    2    0    0 -0.10146040444E+03  0.10388421654E+03 -0.51578528569E+02  0.17683629841E+03  0.86744381425E+02 0.  0.
        -24    2    1    2    0    0  0.73326885874E+02 -0.92115130524E+02 -0.46711668138E+03  0.49041309303E+03  0.91896563233E+02 0.  0.
         11    1    4    4    0    0  0.57067696392E+02 -0.73112146034E+02 -0.45150121200E+03  0.46092890157E+03  0.00000000000E+00 0. -1.
        -12    1    4    4    0    0  0.16259189482E+02 -0.19002984490E+02 -0.15615469378E+02  0.29484191459E+02  0.00000000000E+00 0.  1.
        -11    1    3    3    0    0 -0.99859671909E+02  0.74659214124E+02 -0.87871867561E+01  0.12499266770E+03  0.00000000000E+00 0.  1.
         11    1    3    3    0    0 -0.16007325359E+01  0.29225002416E+02 -0.42791341813E+02  0.51843630709E+02  0.00000000000E+00 0. -1.
         21    1    1    2  502  501  0.28133518571E+02 -0.11769086017E+02 -0.16530467493E+03  0.16809414566E+03  0.00000000000E+00 0. -1.
<scales pt_clust_5="13000.00000" pt_clust_6="13000.00000" pt_clust_7="13000.00000" pt_clust_8="13000.00000" pt_clust_9="30.49600"></scales>
<clustering>
<clus scale="   30.496">  2  9  1 -1</clus>
<clus scale="   86.744">  7  8 -1 -1</clus>
<clus scale="   91.897">  5  6 -1 -1</clus>
<clus scale="  164.544">  1  7  2 -1</clus>
<clus scale="   30.496">  2  5  1 -1</clus>
</clustering>
</event>
<event>
 9    1  0.2674825E-005  0.1094852E+03  0.7546771E-02  0.1266210E+00
         -2   -1    0    0    0  501 -0.00000000000E+00  0.00000000000E+00  0.26903208549E+03  0.26903208549E+03  0.00000000000E+00 0.  1.
          1   -1    0    0  502    0  0.00000000000E+00 -0.00000000000E+00 -0.61268709046E+02  0.61268709046E+02  0.00000000000E+00 0. -1.
         23    2    1    2    0    0  0.16248319091E+02  0.50659357458E+02  0.13170468226E+03  0.16898425354E+03  0.91537840503E+02 0.  0.
        -24    2    1    2    0    0 -0.38040235457E+02 -0.59643428737E+02  0.84701281316E+02  0.13621085502E+03  0.79841667458E+02 0.  0.
         11    1    4    4    0    0  0.28823539872E+01 -0.40462813864E+02  0.40944373554E+00  0.40567411977E+02  0.00000000000E+00 0. -1.
        -12    1    4    4    0    0 -0.40922589444E+02 -0.19180614873E+02  0.84291837581E+02  0.95643443039E+02  0.00000000000E+00 0.  1.
        -11    1    3    3    0    0 -0.35559116282E+02  0.34983749796E+02  0.47482236775E+02  0.68868543688E+02  0.00000000000E+00 0.  1.
         11    1    3    3    0    0  0.51807435374E+02  0.15675607661E+02  0.84222445490E+02  0.10011570986E+03  0.00000000000E+00 0. -1.
         21    1    1    2  502  501  0.21791916365E+02  0.89840712797E+01 -0.86425871413E+01  0.25105685972E+02  0.00000000000E+00 0.  1.
<scales pt_clust_5="13000.00000" pt_clust_6="13000.00000" pt_clust_7="13000.00000" pt_clust_8="13000.00000" pt_clust_9="23.57119"></scales>
<clustering>
<clus scale="   23.571">  2  9  1 -1</clus>
<clus scale="   79.842">  5  6 -1 -1</clus>
<clus scale="   91.538">  7  8 -1 -1</clus>
<clus scale="   99.913">  2  5  1 -1</clus>
<clus scale="   23.571">  2  5  1 -1</clus>
</clustering>
</event>
<event>
 9    1  0.2674825E-005  0.1195090E+03  0.7546771E-02  0.1248080E+00
          1   -1    0    0  502    0  0.00000000000E+00  0.00000000000E+00  0.71643426874E+03  0.71643426874E+03  0.00000000000E+00 0. -1.
         -2   -1    0    0    0  501 -0.00000000000E+00 -0.00000000000E+00 -0.49595324223E+02  0.49595324223E+02  0.00000000000E+00 0.  1.
        -24    2    1    2    0    0  0.71632025339E+02  0.28992011894E+02  0.31292799708E+02  0.11536800782E+03  0.79742423503E+02 0.  0.
         23    2    1    2    0    0 -0.62823263977E+02 -0.10082231727E+02  0.58961121740E+03  0.60021169299E+03  0.92543367249E+02 0.  0.
         11    1    3    3    0    0  0.46033716124E+02  0.40977983166E+02  0.51750343579E+02  0.80476059702E+02  0.00000000000E+00 0. -1.
        -12    1    3    3    0    0  0.25598309215E+02 -0.11985971272E+02 -0.20457543871E+02  0.34891948115E+02  0.00000000000E+00 0.  1.
        -11    1    4    4    0    0  0.22427787616E+02  0.23910046099E+01  0.71125888699E+02  0.74616449953E+02  0.00000000000E+00 0.  1.
         11    1    4    4    0    0 -0.85251051593E+02 -0.12473236337E+02  0.51848532870E+03  0.52559524303E+03  0.00000000000E+00 0. -1.
         21    1    1    2  502  501 -0.88087613617E+01 -0.18909780167E+02  0.45934927407E+02  0.50449892156E+02  0.00000000000E+00 0.  1.
<scales pt_clust_5="13000.00000" pt_clust_6="13000.00000" pt_clust_7="13000.00000" pt_clust_8="13000.00000" pt_clust_9="20.86083"></scales>
<clustering>
<clus scale="   20.861">  1  9  2 -1</clus>
<clus scale="   79.742">  5  6 -1 -1</clus>
<clus scale="   92.543">  7  8 -1 -1</clus>
<clus scale="  109.895">  2  5  1 -1</clus>
<clus scale="   20.861">  1  5  2 -1</clus>
</clustering>
</event>
<event>
 9    1  0.2674825E-005  0.8435241E+02  0.7546771E-02  0.1319699E+00
          1   -1    0    0  502    0  0.00000000000E+00  0.00000000000E+00  0.34835409657E+03  0.34835409657E+03  0.00000000000E+00 0. -1.
         -2   -1    0    0    0  501 -0.00000000000E+00 -0.00000000000E+00 -0.71752930293E+02  0.71752930293E+02  0.00000000000E+00 0.  1.
         23    2    1    2    0    0 -0.72107875446E+01  0.12757288206E+02 -0.34432118332E+02  0.90801514417E+02  0.82732100108E+02 0.  0.
        -24    2    1    2    0    0  0.35235184757E+01 -0.34303986553E+02  0.23898112349E+03  0.25401029291E+03  0.78867438425E+02 0.  0.
         11    1    4    4    0    0  0.34691219561E+02 -0.11884611885E+02  0.17954967685E+03  0.18325613543E+03  0.00000000000E+00 0. -1.
        -12    1    4    4    0    0 -0.31167701085E+02 -0.22419374669E+02  0.59431446634E+02  0.70754157478E+02  0.00000000000E+00 0.  1.
        -13    1    3    3    0    0  0.23485085331E+02 -0.24010897735E+02 -0.34638128100E+01  0.33764929176E+02  0.00000000000E+00 0.  1.
         13    1    3    3    0    0 -0.30695872876E+02  0.36768185942E+02 -0.30968305522E+02  0.57036585241E+02  0.00000000000E+00 0. -1.
         21    1    1    2  502  501  0.36872690689E+01  0.21546698347E+02  0.72052161124E+02  0.75295219539E+02  0.00000000000E+00 0. -1.
<scales pt_clust_5="13000.00000" pt_clust_6="13000.00000" pt_clust_7="13000.00000" pt_clust_8="13000.00000" pt_clust_9="21.85992"></scales>
<clustering>
<clus scale="   21.860">  1  9  2 -1</clus>
<clus scale="   78.867">  5  6 -1 -1</clus>
<clus scale="   80.566">  1  5  2 -1</clus>
<clus scale="   82.732">  7  8 -1 -1</clus>
<clus scale="   21.860">  1  5  2 -1</clus>
</clustering>
</event>
<event>
 9    1  0.2674825E-005  0.9672257E+02  0.7546771E-02  0.1292044E+00
          1   -1    0    0  502    0  0.00000000000E+00  0.00000000000E+00  0.40990292842E+03  0.40990292842E+03  0.00000000000E+00 0. -1.
         -2   -1    0    0    0  501 -0.00000000000E+00 -0.00000000000E+00 -0.34830115460E+02  0.34830115460E+02  0.00000000000E+00 0.  1.
        -24    2    1    2    0    0  0.17237907098E+02  0.37132099721E+02  0.61620557354E+02  0.10897566458E+03  0.80016648963E+02 0.  0.
         23    2    1    2    0    0  0.38337937505E+01 -0.33670122213E+02  0.21689004786E+03  0.23686217299E+03  0.88960783672E+02 0.  0.
         11    1    3    3    0    0  0.20980555984E+02  0.61782671296E+00  0.68488860683E+02  0.71633019459E+02  0.00000000000E+00 0. -1.
        -12    1    3    3    0    0 -0.37426488859E+01  0.36514273008E+02 -0.68683033290E+01  0.37342645121E+02  0.00000000000E+00 0.  1.
        -11    1    4    4    0    0  0.17717516350E+02  0.27361309032E+02  0.72723261608E+02  0.79694569428E+02  0.00000000000E+00 0.  1.
         11    1    4    4    0    0 -0.13883722600E+02 -0.61031431245E+02  0.14416678625E+03  0.15716760357E+03  0.00000000000E+00 0. -1.
         21    1    1    2  502  501 -0.21071700849E+02 -0.34619775082E+01  0.96562207752E+02  0.98895206309E+02  0.00000000000E+00 0. -1.
<scales pt_clust_5="13000.00000" pt_clust_6="13000.00000" pt_clust_7="13000.00000" pt_clust_8="13000.00000" pt_clust_9="21.35420"></scales>
<clustering>
<clus scale="   21.354">  1  9  2 -1</clus>
<clus scale="   80.017">  5  6 -1 -1</clus>
<clus scale="   88.566">  2  5  1 -1</clus>
<clus scale="   88.961">  7  8 -1 -1</clus>
<clus scale="   21.354">  1  5  2 -1</clus>
</clustering>
</event>
<event>
 9    1  0.2674825E-005  0.9759623E+02  0.7546771E-02  0.1295000E+00
          1   -1    0    0  502    0  0.00000000000E+00  0.00000000000E+00  0.13097540262E+03  0.13097540262E+03  0.00000000000E+00 0. -1.
         -2   -1    0    0    0  501 -0.00000000000E+00 -0.00000000000E+00 -0.34803765920E+03  0.34803765920E+03  0.00000000000E+00 0.  1.
        -24    2    1    2    0    0 -0.37189288725E+01 -0.22655852292E+02 -0.28416659608E+03  0.29596531051E+03  0.79483914213E+02 0.  0.
         23    2    1    2    0    0 -0.27697710342E+02 -0.33350596776E+02  0.32475464705E+02  0.11008963644E+03  0.95841779930E+02 0.  0.
         13    1    3    3    0    0  0.27570790819E+02 -0.45537509395E+01 -0.38054371246E+02  0.47212501786E+02  0.00000000000E+00 0. -1.
        -14    1    3    3    0    0 -0.31289719692E+02 -0.18102101353E+02 -0.24611222484E+03  0.24875280872E+03  0.00000000000E+00 0.  1.
        -11    1    4    4    0    0  0.15789451477E+01 -0.53126498782E+02  0.47890521925E+02  0.71543134058E+02  0.00000000000E+00 0. -1.
         11    1    4    4    0    0 -0.29276655489E+02  0.19775902005E+02 -0.15415057220E+02  0.38546502382E+02  0.00000000000E+00 0.  1.
         21    1    1    2  502  501  0.31416639214E+02  0.56006449069E+02  0.34628874798E+02  0.72958114878E+02  0.00000000000E+00 0.  1.
<scales pt_clust_5="13000.00000" pt_clust_6="13000.00000" pt_clust_7="13000.00000" pt_clust_8="13000.00000" pt_clust_9="64.21626"></scales>
<clustering>
<clus scale="   64.216">  1  9  2 -1</clus>
<clus scale="   79.484">  5  6 -1 -1</clus>
<clus scale="   81.591">  2  5  1 -1</clus>
<clus scale="   95.842">  7  8 -1 -1</clus>
<clus scale="   64.216">  1  5  2 -1</clus>
</clustering>
</event>
<event>
 9    1  0.2674825E-005  0.9092794E+02  0.7546771E-02  0.1306773E+00
         -2   -1    0    0    0  501 -0.00000000000E+00  0.00000000000E+00  0.57873333315E+02  0.57873333315E+02  0.00000000000E+00 0.  1.
          1   -1    0    0  502    0  0.00000000000E+00 -0.00000000000E+00 -0.59766922990E+03  0.59766922990E+03  0.00000000000E+00 0. -1.
         23    2    1    2    0    0 -0.22747234238E+01  0.37063881243E+01 -0.42744290965E+01  0.90757904912E+02  0.90552829224E+02 0.  0.
        -24    2    1    2    0    0  0.20434070335E+02  0.63563944463E+02 -0.25426062187E+03  0.27502143979E+03  0.80810904233E+02 0.  0.
         11    1    4    4    0    0  0.43720372552E+02  0.13680457878E+02 -0.15365690448E+03  0.16034048209E+03  0.00000000000E+00 0. -1.
        -12    1    4    4    0    0 -0.23286302216E+02  0.49883486585E+02 -0.10060371739E+03  0.11468095770E+03  0.00000000000E+00 0.  1.
        -13    1    3    3    0    0  0.65519437266E+01 -0.34722662650E+02  0.23581096035E+02  0.42481282446E+02  0.00000000000E+00 0.  1.
         13    1    3    3    0    0 -0.88266671504E+01  0.38429050774E+02 -0.27855525131E+02  0.48276622466E+02  0.00000000000E+00 0. -1.
         21    1    1    2  502  501 -0.18159346912E+02 -0.67270332587E+02 -0.28126084562E+03  0.28976321851E+03  0.00000000000E+00 0.  1.
<scales pt_clust_5="13000.00000" pt_clust_6="13000.00000" pt_clust_7="13000.00000" pt_clust_8="13000.00000" pt_clust_9="69.67826"></scales>
<clustering>
<clus scale="   69.678">  2  9  1 -1</clus>
<clus scale="   80.811">  5  6 -1 -1</clus>
<clus scale="   81.231">  2  5  1 -1</clus>
<clus scale="   90.553">  7  8 -1 -1</clus>
<clus scale="   69.678">  2  5  1 -1</clus>
</clustering>
</event>
<event>
 9    1  0.3282939E-005  0.1455017E+03  0.7546771E-02  0.1208925E+00
         -2   -1    0    0    0  501 -0.00000000000E+00  0.00000000000E+00  0.20431152356E+03  0.20431152356E+03  0.00000000000E+00 0.  1.
          1   -1    0    0  502    0  0.00000000000E+00 -0.00000000000E+00 -0.68053168263E+03  0.68053168263E+03  0.00000000000E+00 0. -1.
        -24    2    1    2    0    0  0.10530016701E+03  0.40857201366E+02  0.15482123724E+03  0.20781637836E+03  0.80377829872E+02 0.  0.
         23    2    1    2    0    0 -0.78347513724E+02  0.20343915170E+02 -0.57934087716E+03  0.59249892791E+03  0.94164323609E+02 0.  0.
         11    1    3    3    0    0  0.19765505587E+02 -0.95354056250E+01  0.81492258883E+02  0.84395423036E+02  0.00000000000E+00 0. -1.
        -12    1    3    3    0    0  0.85534661427E+02  0.50392606991E+02  0.73328978361E+02  0.12342095532E+03  0.00000000000E+00 0.  1.
        -11    1    4    4    0    0 -0.72034613914E+01 -0.31608799992E+02 -0.99799941849E+02  0.10493347648E+03  0.00000000000E+00 0.  1.
         11    1    4    4    0    0 -0.71144052333E+02  0.51952715162E+02 -0.47954093531E+03  0.48756545144E+03  0.00000000000E+00 0. -1.
         21    1    1    2  502  501 -0.26952653289E+02 -0.61201116536E+02 -0.51700519157E+02  0.84527899925E+02  0.00000000000E+00 0. -1.
<scales pt_clust_5="13000.00000" pt_clust_6="13000.00000" pt_clust_7="13000.00000" pt_clust_8="13000.00000" pt_clust_9="66.87318"></scales>
<clustering>
<clus scale="   66.873">  2  9  1 -1</clus>
<clus scale="   80.378">  5  6 -1 -1</clus>
<clus scale="   94.164">  7  8 -1 -1</clus>
<clus scale="  136.983">  1  5  2 -1</clus>
<clus scale="   66.873">  2  5  1 -1</clus>
</clustering>
</event>
<event>
 9    1  0.2674825E-005  0.1226143E+03  0.7546771E-02  0.1252052E+00
         -2   -1    0    0    0  501 -0.00000000000E+00  0.00000000000E+00  0.77453788074E+03  0.77453788074E+03  0.00000000000E+00 0.  1.
          1   -1    0    0  502    0  0.00000000000E+00 -0.00000000000E+00 -0.78526391964E+02  0.78526391964E+02  0.00000000000E+00 0. -1.
        -24    2    1    2    0    0  0.31453627968E+02 -0.55715011015E+02  0.47514210550E+03  0.48610211668E+03  0.80260539854E+02 0.  0.
         23    2    1    2    0    0  0.62908423010E+01  0.22071288164E+02  0.27190082876E+03  0.29512377108E+03  0.11243337190E+03 0.  0.
         13    1    3    3    0    0 -0.25891404791E+02 -0.86760501430E+01  0.97840720717E+02  0.10157974857E+03  0.00000000000E+00 0. -1.
        -14    1    3    3    0    0  0.57345032758E+02 -0.47038960872E+02  0.37730138478E+03  0.38452236811E+03  0.00000000000E+00 0.  1.
        -11    1    4    4    0    0 -0.42500354573E+02  0.13108544604E+02  0.46567538459E+02  0.64394485156E+02  0.00000000000E+00 0. -1.
         11    1    4    4    0    0  0.48791196874E+02  0.89627435594E+01  0.22533329030E+03  0.23072928592E+03  0.00000000000E+00 0.  1.
         21    1    1    2  502  501 -0.37744470269E+02  0.33643722852E+02 -0.51031445484E+02  0.71838384944E+02  0.00000000000E+00 0. -1.
<scales pt_clust_5="13000.00000" pt_clust_6="13000.00000" pt_clust_7="13000.00000" pt_clust_8="13000.00000" pt_clust_9="50.56229"></scales>
<clustering>
<clus scale="   50.562">  2  9  1 -1</clus>
<clus scale="   80.261">  5  6 -1 -1</clus>
<clus scale="   93.993">  1  5  2 -1</clus>
<clus scale="  112.433">  7  8 -1 -1</clus>
<clus scale="   50.562">  2  5  1 -1</clus>
</clustering>
</event>
<event>
 9    1  0.2674825E-005  0.8892670E+02  0.7546771E-02  0.1311850E+00
          1   -1    0    0  502    0  0.00000000000E+00  0.00000000000E+00  0.29155562433E+03  0.29155562433E+03  0.00000000000E+00 0. -1.
         -2   -1    0    0    0  501 -0.00000000000E+00 -0.00000000000E+00 -0.88562749815E+02  0.88562749815E+02  0.00000000000E+00 0.  1.
        -24    2    1    2    0    0 -0.34041535303E+02 -0.19012413955E+02 -0.40182607163E+02  0.98706354385E+02  0.81289633209E+02 0.  0.
         23    2    1    2    0    0  0.12657483505E+02  0.30923256900E+02  0.64957771695E+02  0.10152122510E+03  0.70502392419E+02 0.  0.
         13    1    3    3    0    0 -0.20920548833E+02 -0.17772823467E+01  0.23457117385E+02  0.31481176154E+02  0.00000000000E+00 0. -1.
        -14    1    3    3    0    0 -0.13120986469E+02 -0.17235131608E+02 -0.63639724549E+02  0.67225178230E+02  0.00000000000E+00 0.  1.
        -11    1    4    4    0    0  0.30063174209E+02 -0.62349091329E+01  0.48307790414E+02  0.57239070136E+02  0.00000000000E+00 0. -1.
         11    1    4    4    0    0 -0.17405690704E+02  0.37158166033E+02  0.16649981281E+02  0.44282154967E+02  0.00000000000E+00 0.  1.
         21    1    1    2  502  501  0.21384051798E+02 -0.11910842945E+02  0.17821770999E+03  0.17989079466E+03  0.00000000000E+00 0. -1.
<scales pt_clust_5="13000.00000" pt_clust_6="13000.00000" pt_clust_7="13000.00000" pt_clust_8="13000.00000" pt_clust_9="24.47746"></scales>
<clustering>
<clus scale="   24.477">  1  9  2 -1</clus>
<clus scale="   70.502">  7  8 -1 -1</clus>
<clus scale="   79.187">  1  7  2 -1</clus>
<clus scale="   81.290">  5  6 -1 -1</clus>
<clus scale="   24.477">  1  5  2 -1</clus>
</clustering>
</event>
<event>
 9    1  0.2674825E-005  0.1185025E+03  0.7546771E-02  0.1249389E+00
          1   -1    0    0  502    0  0.00000000000E+00  0.00000000000E+00  0.14299393577E+03  0.14299393577E+03  0.00000000000E+00 0. -1.
         -2   -1    0    0    0  501 -0.00000000000E+00 -0.00000000000E+00 -0.63767408407E+03  0.63767408407E+03  0.00000000000E+00 0.  1.
         23    2    1    2    0    0  0.57884113717E+02  0.51492515330E+02 -0.60411487044E+03  0.61570403449E+03  0.90192192796E+02 0.  0.
        -24    2    1    2    0    0 -0.59124980389E+02 -0.31137483720E+02  0.90144955128E+02  0.13689332143E+03  0.78411493541E+02 0.  0.
         11    1    4    4    0    0 -0.65572371347E+02 -0.31903038955E+02  0.10080277170E+03  0.12441357868E+03  0.00000000000E+00 0. -1.
        -12    1    4    4    0    0  0.64473909588E+01  0.76555523534E+00 -0.10657816571E+02  0.12479742748E+02  0.00000000000E+00 0.  1.
        -13    1    3    3    0    0  0.43687319400E+02  0.77442064484E+02 -0.43032099681E+03  0.43941098703E+03  0.00000000000E+00 0.  1.
         13    1    3    3    0    0  0.14196794317E+02 -0.25949549154E+02 -0.17379387363E+03  0.17629304746E+03  0.00000000000E+00 0. -1.
         21    1    1    2  502  501  0.12408666714E+01 -0.20355031611E+02  0.19289767005E+02  0.28070663923E+02  0.00000000000E+00 0. -1.
<scales pt_clust_5="13000.00000" pt_clust_6="13000.00000" pt_clust_7="13000.00000" pt_clust_8="13000.00000" pt_clust_9="20.39282"></scales>
<clustering>
<clus scale="   20.393">  1  9  2 -1</clus>
<clus scale="   78.411">  5  6 -1 -1</clus>
<clus scale="   90.192">  7  8 -1 -1</clus>
<clus scale="  109.802">  1  5  2 -1</clus>
<clus scale="   20.393">  1  5  2 -1</clus>
</clustering>
</event>
<event>
 9    1  0.2674825E-005  0.1009840E+03  0.7546771E-02  0.1284203E+00
          1   -1    0    0  502    0  0.00000000000E+00  0.00000000000E+00  0.26719057332E+03  0.26719057332E+03  0.00000000000E+00 0. -1.
         -2   -1    0    0    0  501 -0.00000000000E+00 -0.00000000000E+00 -0.15959816704E+03  0.15959816704E+03  0.00000000000E+00 0.  1.
         23    2    1    2    0    0 -0.37972860044E+01  0.45093532032E+02 -0.13072636804E+03  0.16544684680E+03  0.90749268879E+02 0.  0.
        -24    2    1    2    0    0  0.18487191832E+02 -0.31044279169E+02  0.20197968575E+03  0.21970411987E+03  0.78540329133E+02 0.  0.
         11    1    4    4    0    0  0.28332000260E+02 -0.50077748152E+02  0.18014741837E+03  0.18911259991E+03  0.00000000000E+00 0. -1.
        -12    1    4    4    0    0 -0.98448084288E+01  0.19033468983E+02  0.21832267381E+02  0.30591519961E+02  0.00000000000E+00 0.  1.
        -13    1    3    3    0    0  0.11709486407E+01  0.70184847092E+02 -0.11693890704E+03  0.13638911929E+03  0.00000000000E+00 0.  1.
         13    1    3    3    0    0 -0.49682346451E+01 -0.25091315060E+02 -0.13787461005E+02  0.29057727507E+02  0.00000000000E+00 0. -1.
         21    1    1    2  502  501 -0.14689905827E+02 -0.14049252863E+02  0.36339088574E+02  0.41637773688E+02  0.00000000000E+00 0.  1.
<scales pt_clust_5="13000.00000" pt_clust_6="13000.00000" pt_clust_7="13000.00000" pt_clust_8="13000.00000" pt_clust_9="20.32670"></scales>
<clustering>
<clus scale="   20.327">  1  9  2 -1</clus>
<clus scale="   78.540">  5  6 -1 -1</clus>
<clus scale="   90.172">  1  5  2 -1</clus>
<clus scale="   90.749">  7  8 -1 -1</clus>
<clus scale="   20.327">  1  5  2 -1</clus>
</clustering>
</event>
<event>
 9    1  0.2674825E-005  0.1786717E+03  0.7546771E-02  0.1170610E+00
          1   -1    0    0  502    0  0.00000000000E+00  0.00000000000E+00  0.13028458352E+03  0.13028458352E+03  0.00000000000E+00 0. -1.
         -2   -1    0    0    0  501 -0.00000000000E+00 -0.00000000000E+00 -0.49633856892E+03  0.49633856892E+03  0.00000000000E+00 0.  1.
        -24    2    1    2    0    0  0.96178249483E+02 -0.11231722296E+03 -0.32909581435E+03  0.36935311200E+03  0.79071183552E+02 0.  0.
         23    2    1    2    0    0 -0.11515091043E+03  0.12713333800E+03 -0.78140809810E+02  0.20956795596E+03  0.91597621172E+02 0.  0.
         13    1    3    3    0    0  0.38307395230E+02 -0.40206909092E+02 -0.47871966639E+02  0.73319692156E+02  0.00000000000E+00 0. -1.
        -14    1    3    3    0    0  0.57870854253E+02 -0.72110313871E+02 -0.28122384772E+03  0.29603341984E+03  0.00000000000E+00 0.  1.
        -11    1    4    4    0    0 -0.26151484721E+02  0.92821971956E+02 -0.56470374756E+02  0.11175295010E+03  0.00000000000E+00 0.  1.
         11    1    4    4    0    0 -0.88999425710E+02  0.34311366043E+02 -0.21670435055E+02  0.97815005863E+02  0.00000000000E+00 0. -1.
         21    1    1    2  502  501  0.18972660949E+02 -0.14816115035E+02  0.41182638768E+02  0.47702084484E+02  0.00000000000E+00 0.  1.
<scales pt_clust_5="13000.00000" pt_clust_6="13000.00000" pt_clust_7="13000.00000" pt_clust_8="13000.00000" pt_clust_9="24.07237"></scales>
<clustering>
<clus scale="   24.072">  1  9  2 -1</clus>
<clus scale="   79.071">  5  6 -1 -1</clus>
<clus scale="   91.598">  7  8 -1 -1</clus>
<clus scale="  172.585">  2  5  1 -1</clus>
<clus scale="   24.072">  1  5  2 -1</clus>
</clustering>
</event>
<event>
 9    1  0.2674825E-005  0.1825663E+03  0.7546771E-02  0.1166557E+00
          1   -1    0    0  502    0  0.00000000000E+00  0.00000000000E+00  0.12611100386E+03  0.12611100386E+03  0.00000000000E+00 0. -1.
         -2   -1    0    0    0  501 -0.00000000000E+00 -0.00000000000E+00 -0.81353205274E+03  0.81353205274E+03  0.00000000000E+00 0.  1.
        -24    2    1    2    0    0 -0.14513194035E+03 -0.67078627091E+02 -0.68555844261E+03  0.70854910612E+03  0.80552065389E+02 0.  0.
         23    2    1    2    0    0  0.11337990162E+03  0.10243182522E+03 -0.22434976403E+02  0.17931303705E+03  0.91118363570E+02 0.  0.
         11    1    3    3    0    0 -0.10897451927E+03 -0.64359159410E+02 -0.37282725898E+03  0.39372288769E+03  0.00000000000E+00 0. -1.
        -12    1    3    3    0    0 -0.36157421084E+02 -0.27194676818E+01 -0.31273118362E+03  0.31482621843E+03  0.00000000000E+00 0.  1.
        -11    1    4    4    0    0  0.21626687403E+02 -0.16832074065E+02 -0.45372274870E+01  0.27778026544E+02  0.00000000000E+00 0. -1.
         11    1    4    4    0    0  0.91753214212E+02  0.11926389929E+03 -0.17897748916E+02  0.15153501050E+03  0.00000000000E+00 0.  1.
         21    1    1    2  502  501  0.31752038737E+02 -0.35353198132E+02  0.20572370128E+02  0.51780913422E+02  0.00000000000E+00 0. -1.
<scales pt_clust_5="13000.00000" pt_clust_6="13000.00000" pt_clust_7="13000.00000" pt_clust_8="13000.00000" pt_clust_9="47.51884"></scales>
<clustering>
<clus scale="   47.519">  1  9  2 -1</clus>
<clus scale="   80.552">  5  6 -1 -1</clus>
<clus scale="   91.118">  7  8 -1 -1</clus>
<clus scale="  177.529">  2  5  1 -1</clus>
<clus scale="   47.519">  1  5  2 -1</clus>
</clustering>
</event>
<event>
 9    1  0.2674825E-005  0.9873181E+02  0.7546771E-02  0.1289300E+00
         -2   -1    0    0    0  501 -0.00000000000E+00  0.00000000000E+00  0.26044061700E+03  0.26044061700E+03  0.00000000000E+00 0.  1.
          1   -1    0    0  502    0  0.00000000000E+00 -0.00000000000E+00 -0.16965125056E+03  0.16965125056E+03  0.00000000000E+00 0. -1.
        -24    2    1    2    0    0  0.28099037752E+02  0.11622370091E+02  0.19083927394E+03  0.20922449283E+03  0.80191174781E+02 0.  0.
         23    2    1    2    0    0 -0.59761431302E+02 -0.65106639535E+02 -0.38440705791E+02  0.13335298746E+03  0.92168477372E+02 0.  0.
         13    1    3    3    0    0 -0.15739135719E+02  0.23251027206E+02  0.26024536282E+02  0.38283248922E+02  0.00000000000E+00 0. -1.
        -14    1    3    3    0    0  0.43838173471E+02 -0.11628657115E+02  0.16481473765E+03  0.17094124390E+03  0.00000000000E+00 0.  1.
        -11    1    4    4    0    0 -0.45592794689E+02  0.13291908707E+02 -0.20286147948E+02  0.51642091003E+02  0.00000000000E+00 0.  1.
         11    1    4    4    0    0 -0.14168636613E+02 -0.78398548242E+02 -0.18154557843E+02  0.81710896461E+02  0.00000000000E+00 0. -1.
         21    1    1    2  502  501  0.31662393550E+02  0.53484269445E+02 -0.61609201713E+02  0.87514387269E+02  0.00000000000E+00 0. -1.
<scales pt_clust_5="13000.00000" pt_clust_6="13000.00000" pt_clust_7="13000.00000" pt_clust_8="13000.00000" pt_clust_9="62.15363"></scales>
<clustering>
<clus scale="   62.154">  2  9  1 -1</clus>
<clus scale="   80.191">  5  6 -1 -1</clus>
<clus scale="   87.656">  1  5  2 -1</clus>
<clus scale="   92.168">  7  8 -1 -1</clus>
<clus scale="   62.154">  2  5  1 -1</clus>
</clustering>
</event>
<event>
 9    1  0.2674825E-005  0.1056712E+03  0.7546771E-02  0.1272481E+00
         -2   -1    0    0    0  501 -0.00000000000E+00  0.00000000000E+00  0.72388061095E+02  0.72388061095E+02  0.00000000000E+00 0.  1.
          1   -1    0    0  502    0  0.00000000000E+00 -0.00000000000E+00 -0.35753073430E+03  0.35753073430E+03  0.00000000000E+00 0. -1.
         23    2    1    2    0    0  0.70264694069E+02  0.12989727966E+02 -0.33119158735E+01  0.11494402595E+03  0.89973885378E+02 0.  0.
        -24    2    1    2    0    0 -0.46880866188E+02 -0.25591586694E+02 -0.26780656923E+03  0.28493665862E+03  0.81337543486E+02 0.  0.
         13    1    4    4    0    0 -0.27497166377E+02 -0.33142680902E+02 -0.25864577785E+03  0.26220634976E+03  0.00000000000E+00 0. -1.
        -14    1    4    4    0    0 -0.19383699812E+02  0.75510942088E+01 -0.91607913783E+01  0.22730308859E+02  0.00000000000E+00 0.  1.
        -13    1    3    3    0    0  0.26455012709E+02  0.10049465401E+02 -0.45804290859E+02  0.53841364334E+02  0.00000000000E+00 0. -1.
         13    1    3    3    0    0  0.43809681360E+02  0.29402625644E+01  0.42492374986E+02  0.61102661618E+02  0.00000000000E+00 0.  1.
         21    1    1    2  502  501 -0.23383827880E+02  0.12601858728E+02 -0.14024188104E+02  0.30038110821E+02  0.00000000000E+00 0.  1.
<scales pt_clust_5="13000.00000" pt_clust_6="13000.00000" pt_clust_7="13000.00000" pt_clust_8="13000.00000" pt_clust_9="26.56333"></scales>
<clustering>
<clus scale="   26.563">  1  9  2 -1</clus>
<clus scale="   81.338">  5  6 -1 -1</clus>
<clus scale="   89.974">  7  8 -1 -1</clus>
<clus scale="   98.422">  2  5  1 -1</clus>
<clus scale="   98.422">  2  5  1 -1</clus>
</clustering>
</event>
<event>
 9    1  0.2674825E-005  0.1916978E+03  0.7546771E-02  0.1158123E+00
         -2   -1    0    0    0  501 -0.00000000000E+00  0.00000000000E+00  0.60419305808E+03  0.60419305808E+03  0.00000000000E+00 0.  1.
          1   -1    0    0  502    0  0.00000000000E+00 -0.00000000000E+00 -0.68998003590E+03  0.68998003590E+03  0.00000000000E+00 0. -1.
         23    2    1    2    0    0 -0.16908888967E+03 -0.27234483481E+02  0.57301418679E+03  0.60466066243E+03  0.89086972831E+02 0.  0.
        -24    2    1    2    0    0  0.12902511796E+03  0.10868081691E+02 -0.40698513507E+03  0.43400454980E+03  0.77184537388E+02 0.  0.
         11    1    4    4    0    0  0.10877907205E+03  0.68684215964E+01 -0.39579503209E+03  0.41052864597E+03  0.00000000000E+00 0. -1.
        -12    1    4    4    0    0  0.20246045914E+02  0.39996600949E+01 -0.11190102981E+02  0.23475903833E+02  0.00000000000E+00 0.  1.
        -13    1    3    3    0    0 -0.87018427728E+02 -0.12829934348E+02  0.43203560207E+03  0.44089859995E+03  0.00000000000E+00 0.  1.
         13    1    3    3    0    0 -0.82070461941E+02 -0.14404549133E+02  0.14097858472E+03  0.16376206248E+03  0.00000000000E+00 0. -1.
         21    1    1    2  502  501  0.40063771706E+02  0.16366401789E+02 -0.25181602953E+03  0.25550788176E+03  0.00000000000E+00 0. -1.
<scales pt_clust_5="13000.00000" pt_clust_6="13000.00000" pt_clust_7="13000.00000" pt_clust_8="13000.00000" pt_clust_9="43.27776"></scales>
<clustering>
<clus scale="   43.278">  2  9  1 -1</clus>
<clus scale="   77.185">  5  6 -1 -1</clus>
<clus scale="   89.087">  7  8 -1 -1</clus>
<clus scale="  186.464">  2  5  1 -1</clus>
<clus scale="   43.278">  2  5  1 -1</clus>
</clustering>
</event>
<event>
 9    1  0.2674825E-005  0.1396509E+03  0.7546771E-02  0.1216359E+00
         -2   -1    0    0    0  501 -0.00000000000E+00  0.00000000000E+00  0.33336074751E+02  0.33336074751E+02  0.00000000000E+00 0.  1.
          1   -1    0    0  502    0  0.00000000000E+00 -0.00000000000E+00 -0.10797462964E+04  0.10797462964E+04  0.00000000000E+00 0. -1.
         23    2    1    2    0    0  0.25835334613E+02  0.11488289686E+03 -0.19035584711E+03  0.24173065532E+03  0.91284263092E+02 0.  0.
        -24    2    1    2    0    0 -0.12236407509E+02 -0.66002895215E+02 -0.68720848408E+03  0.69504765999E+03  0.79559017223E+02 0.  0.
         11    1    4    4    0    0 -0.12731265462E+02 -0.82616986913E+02 -0.48445134659E+03  0.49161037302E+03  0.00000000000E+00 0. -1.
        -12    1    4    4    0    0  0.49485795338E+00  0.16614091698E+02 -0.20275713749E+03  0.20343728697E+03  0.00000000000E+00 0.  1.
        -11    1    3    3    0    0 -0.69211138510E+01  0.11305354030E+03 -0.16560474492E+03  0.20063383646E+03  0.00000000000E+00 0.  1.
         11    1    3    3    0    0  0.32756448464E+02  0.18293565648E+01 -0.24751102187E+02  0.41096818866E+02  0.00000000000E+00 0. -1.
         21    1    1    2  502  501 -0.13598927105E+02 -0.48880001646E+02 -0.16884589041E+03  0.17630405579E+03  0.00000000000E+00 0. -1.
<scales pt_clust_5="13000.00000" pt_clust_6="13000.00000" pt_clust_7="13000.00000" pt_clust_8="13000.00000" pt_clust_9="50.73643"></scales>
<clustering>
<clus scale="   50.736">  2  9  1 -1</clus>
<clus scale="   79.559">  5  6 -1 -1</clus>
<clus scale="   91.284">  7  8 -1 -1</clus>
<clus scale="  132.284">  2  5  1 -1</clus>
<clus scale="   50.736">  2  5  1 -1</clus>
</clustering>
</event>
<event>
 9    1  0.2674825E-005  0.1269669E+03  0.7546771E-02  0.1234468E+00
          1   -1    0    0  502    0  0.00000000000E+00  0.00000000000E+00  0.44090845686E+03  0.44090845686E+03  0.00000000000E+00 0. -1.
         -2   -1    0    0    0  501 -0.00000000000E+00 -0.00000000000E+00 -0.10435733652E+03  0.10435733652E+03  0.00000000000E+00 0.  1.
        -24    2    1    2    0    0  0.78833686729E+02 -0.48931692980E+02 -0.49168126032E+02  0.13242240895E+03  0.80679173485E+02 0.  0.
         23    2    1    2    0    0 -0.60515056304E+02  0.25543096606E+02  0.34475873339E+03  0.36224336185E+03  0.89705892429E+02 0.  0.
         11    1    3    3    0    0 -0.75847983652E+01 -0.18545633437E+02  0.10967993074E+02  0.22842210004E+02  0.00000000000E+00 0. -1.
        -12    1    3    3    0    0  0.86418485094E+02 -0.30386059543E+02 -0.60136119106E+02  0.10958019895E+03  0.00000000000E+00 0.  1.
        -13    1    4    4    0    0 -0.29148310742E+01 -0.22731327199E+02  0.25617515857E+02  0.34372468563E+02  0.00000000000E+00 0.  1.
         13    1    4    4    0    0 -0.57600225229E+02  0.48274423806E+02  0.31914121753E+03  0.32787089329E+03  0.00000000000E+00 0. -1.
         21    1    1    2  502  501 -0.18318630426E+02  0.23388596373E+02  0.40960512988E+02  0.50600022582E+02  0.00000000000E+00 0. -1.
<scales pt_clust_5="13000.00000" pt_clust_6="13000.00000" pt_clust_7="13000.00000" pt_clust_8="13000.00000" pt_clust_9="29.70856"></scales>
<clustering>
<clus scale="   29.709">  1  9  2 -1</clus>
<clus scale="   80.679">  5  6 -1 -1</clus>
<clus scale="   89.706">  7  8 -1 -1</clus>
<clus scale="  120.758">  2  5  1 -1</clus>
<clus scale="   29.709">  1  5  2 -1</clus>
</clustering>
</event>
<event>
 9    1  0.2674825E-005  0.1268837E+03  0.7546771E-02  0.1236556E+00
         -2   -1    0    0    0  501 -0.00000000000E+00  0.00000000000E+00  0.25007519395E+03  0.25007519395E+03  0.00000000000E+00 0.  1.
          1   -1    0    0  502    0  0.00000000000E+00 -0.00000000000E+00 -0.98443632199E+02  0.98443632199E+02  0.00000000000E+00 0. -1.
        -24    2    1    2    0    0 -0.29803294004E+02  0.88427652928E+02  0.15115259925E+03  0.19507690942E+03  0.80623856243E+02 0.  0.
         23    2    1    2    0    0  0.39078744321E+02 -0.70406386194E+02 -0.17573618971E+02  0.12629977733E+03  0.95700544377E+02 0.  0.
         13    1    3    3    0    0 -0.20310683532E+02  0.23276198905E+02  0.75687513892E+00  0.30901102909E+02  0.00000000000E+00 0. -1.
        -14    1    3    3    0    0 -0.94926104713E+01  0.65151454023E+02  0.15039572411E+03  0.16417580652E+03  0.00000000000E+00 0.  1.
        -11    1    4    4    0    0  0.37716172224E+02 -0.93216428579E+01 -0.44893375002E+02  0.59370175946E+02  0.00000000000E+00 0. -1.
         11    1    4    4    0    0  0.13625720968E+01 -0.61084743336E+02  0.27319756031E+02  0.66929601379E+02  0.00000000000E+00 0.  1.
         21    1    1    2  502  501 -0.92754503176E+01 -0.18021266734E+02  0.18052581470E+02  0.27142139397E+02  0.00000000000E+00 0. -1.
<scales pt_clust_5="13000.00000" pt_clust_6="13000.00000" pt_clust_7="13000.00000" pt_clust_8="13000.00000" pt_clust_9="20.26820"></scales>
<clustering>
<clus scale="   20.268">  1  9  2 -1</clus>
<clus scale="   80.624">  5  6 -1 -1</clus>
<clus scale="   95.701">  7  8 -1 -1</clus>
<clus scale="  115.936">  1  5  2 -1</clus>
<clus scale="  126.884">  2  5  1 -1</clus>
</clustering>
</event>
<event>
 9    1  0.2674825E-005  0.9741637E+02  0.7546771E-02  0.1290765E+00
         -2   -1    0    0    0  501 -0.00000000000E+00  0.00000000000E+00  0.11284264427E+03  0.11284264427E+03  0.00000000000E+00 0.  1.
          1   -1    0    0  502    0  0.00000000000E+00 -0.00000000000E+00 -0.19343431504E+03  0.19343431504E+03  0.00000000000E+00 0. -1.
         23    2    1    2    0    0 -0.27026422532E+02 -0.19514929172E+02  0.38411673364E+02  0.10433308851E+03  0.91097073130E+02 0.  0.
        -24    2    1    2    0    0  0.55576741888E+02 -0.31827180716E+02 -0.83642271241E+02  0.13337610534E+03  0.81801052967E+02 0.  0.
         11    1    4    4    0    0  0.74918360716E+02 -0.13670462903E+02 -0.70468253811E+02  0.10375652810E+03  0.00000000000E+00 0. -1.
        -12    1    4    4    0    0 -0.19341618828E+02 -0.18156717813E+02 -0.13174017430E+02  0.29619577240E+02  0.00000000000E+00 0.  1.
        -13    1    3    3    0    0 -0.45000053390E+02 -0.46376036197E+02  0.23795695346E+02  0.68862011701E+02  0.00000000000E+00 0.  1.
         13    1    3    3    0    0  0.17973630858E+02  0.26861107026E+02  0.14615978018E+02  0.35471076813E+02  0.00000000000E+00 0. -1.
         21    1    1    2  502  501 -0.28550319356E+02  0.51342109887E+02 -0.35361072894E+02  0.68567765453E+02  0.00000000000E+00 0. -1.
<scales pt_clust_5="13000.00000" pt_clust_6="13000.00000" pt_clust_7="13000.00000" pt_clust_8="13000.00000" pt_clust_9="58.74634"></scales>
<clustering>
<clus scale="   58.746">  2  9  1 -1</clus>
<clus scale="   81.801">  5  6 -1 -1</clus>
<clus scale="   88.784">  2  5  1 -1</clus>
<clus scale="   91.097">  7  8 -1 -1</clus>
<clus scale="   58.746">  2  5  1 -1</clus>
</clustering>
</event>
<event>
 9    1  0.2674825E-005  0.1278633E+03  0.7546771E-02  0.1233556E+00
          1   -1    0    0  502    0  0.00000000000E+00  0.00000000000E+00  0.32209570937E+03  0.32209570937E+03  0.00000000000E+00 0. -1.
         -2   -1    0    0    0  501 -0.00000000000E+00 -0.00000000000E+00 -0.65133860131E+02  0.65133860131E+02  0.00000000000E+00 0.  1.
        -24    2    1    2    0    0 -0.39804875520E+02 -0.84007604039E+02  0.73573101214E+02  0.14280433877E+03  0.79613895124E+02 0.  0.
         23    2    1    2    0    0  0.64855723421E+02  0.62644795867E+02  0.13427000858E+03  0.18529347008E+03  0.90413492025E+02 0.  0.
         11    1    3    3    0    0  0.76161215269E+01 -0.65408405103E+02  0.62264059471E+02  0.90626033053E+02  0.00000000000E+00 0. -1.
        -12    1    3    3    0    0 -0.47420997047E+02 -0.18599198936E+02  0.11309041743E+02  0.52178305713E+02  0.00000000000E+00 0.  1.
        -11    1    4    4    0    0  0.56175348956E+02  0.85640994370E+01  0.11309840949E+03  0.12657118100E+03  0.00000000000E+00 0. -1.
         11    1    4    4    0    0  0.86803744648E+01  0.54080696430E+02  0.21171599093E+02  0.58722289085E+02  0.00000000000E+00 0.  1.
         21    1    1    2  502  501 -0.25050847901E+02  0.21362808172E+02  0.49118739439E+02  0.59131760651E+02  0.00000000000E+00 0.  1.
<scales pt_clust_5="13000.00000" pt_clust_6="13000.00000" pt_clust_7="13000.00000" pt_clust_8="13000.00000" pt_clust_9="32.92286"></scales>
<clustering>
<clus scale="   32.923">  1  9  2 -1</clus>
<clus scale="   79.614">  5  6 -1 -1</clus>
<clus scale="   90.413">  7  8 -1 -1</clus>
<clus scale="  120.469">  2  5  1 -1</clus>
<clus scale="   32.923">  1  5  2 -1</clus>
</clustering>
</event>
<event>
 9    1  0.2674825E-005  0.9392447E+02  0.7546771E-02  0.1296701E+00
          1   -1    0    0  502    0  0.00000000000E+00  0.00000000000E+00  0.39938971782E+03  0.39938971782E+03  0.00000000000E+00 0. -1.
         -2   -1    0    0    0  501 -0.00000000000E+00 -0.00000000000E+00 -0.23176018682E+03  0.23176018682E+03  0.00000000000E+00 0.  1.
        -24    2    1    2    0    0 -0.68857729407E+01  0.26970564084E+02 -0.20936139128E+03  0.22733852732E+03  0.84117707096E+02 0.  0.
         23    2    1    2    0    0 -0.21897821449E+02 -0.45354100200E+02  0.33054006789E+03  0.34615609501E+03  0.89614712165E+02 0.  0.
         11    1    3    3    0    0  0.83462156704E+00  0.40047334534E+02 -0.37700950005E+02  0.55007701531E+02  0.00000000000E+00 0. -1.
        -12    1    3    3    0    0 -0.77203945078E+01 -0.13076770450E+02 -0.17166044128E+03  0.17233082579E+03  0.00000000000E+00 0.  1.
        -13    1    4    4    0    0  0.43247990577E+01  0.25876452475E+02  0.68809322439E+02  0.73641140228E+02  0.00000000000E+00 0.  1.
         13    1    4    4    0    0 -0.26222620506E+02 -0.71230552674E+02  0.26173074546E+03  0.27251495478E+03  0.00000000000E+00 0. -1.
         21    1    1    2  502  501  0.28783594389E+02  0.18383536116E+02  0.46450854382E+02  0.57655282316E+02  0.00000000000E+00 0.  1.
<scales pt_clust_5="13000.00000" pt_clust_6="13000.00000" pt_clust_7="13000.00000" pt_clust_8="13000.00000" pt_clust_9="34.15333"></scales>
<clustering>
<clus scale="   34.153">  1  9  2 -1</clus>
<clus scale="   84.118">  5  6 -1 -1</clus>
<clus scale="   88.695">  2  5  1 -1</clus>
<clus scale="   89.615">  7  8 -1 -1</clus>
<clus scale="   34.153">  1  5  2 -1</clus>
</clustering>
</event>
<event>
 9    1  0.2674825E-005  0.1153482E+03  0.7546771E-02  0.1253716E+00
          1   -1    0    0  502    0  0.00000000000E+00  0.00000000000E+00  0.83191725155E+03  0.83191725155E+03  0.00000000000E+00 0. -1.
         -2   -1    0    0    0  501 -0.00000000000E+00 -0.00000000000E+00 -0.29115907967E+02  0.29115907967E+02  0.00000000000E+00 0.  1.
        -24    2    1    2    0    0 -0.50844762064E+02  0.59138013014E+02  0.18795724782E+03  0.21925479062E+03  0.81622556867E+02 0.  0.
         23    2    1    2    0    0  0.87561823052E+01 -0.73675845944E+02  0.55565190722E+03  0.56770737379E+03  0.89653885855E+02 0.  0.
         13    1    3    3    0    0 -0.66158836554E+02  0.67954054854E+02  0.15142972829E+03  0.17867766462E+03  0.00000000000E+00 0. -1.
        -14    1    3    3    0    0  0.15314074490E+02 -0.88160418398E+01  0.36527519525E+02  0.40577125993E+02  0.00000000000E+00 0.  1.
        -13    1    4    4    0    0 -0.39509984073E+02 -0.43278605056E+02  0.24975865860E+03  0.25654134958E+03  0.00000000000E+00 0. -1.
         13    1    4    4    0    0  0.48266166378E+02 -0.30397240888E+02  0.30589324862E+03  0.31116602420E+03  0.00000000000E+00 0.  1.
         21    1    1    2  502  501  0.42088579758E+02  0.14537832930E+02  0.59192188548E+02  0.74070995116E+02  0.00000000000E+00 0. -1.
<scales pt_clust_5="13000.00000" pt_clust_6="13000.00000" pt_clust_7="13000.00000" pt_clust_8="13000.00000" pt_clust_9="44.52861"></scales>
<clustering>
<clus scale="   44.529">  2  9  1 -1</clus>
<clus scale="   81.623">  5  6 -1 -1</clus>
<clus scale="   89.654">  7  8 -1 -1</clus>
<clus scale="  109.223">  2  5  1 -1</clus>
<clus scale="  115.348">  1  5  2 -1</clus>
</clustering>
</event>
<event>
 9    1  0.2674825E-005  0.1204935E+03  0.7546771E-02  0.1246130E+00
         -2   -1    0    0    0  501 -0.00000000000E+00  0.00000000000E+00  0.95803752815E+02  0.95803752815E+02  0.00000000000E+00 0.  1.
          1   -1    0    0  502    0  0.00000000000E+00 -0.00000000000E+00 -0.43332605232E+03  0.43332605232E+03  0.00000000000E+00 0. -1.
        -24    2    1    2    0    0 -0.60158828899E+02 -0.34128205662E+02  0.20354915950E+02  0.10759986583E+03  0.79872331922E+02 0.  0.
         23    2    1    2    0    0  0.12014672683E+03  0.50035981296E+02 -0.23631872667E+03  0.28504524632E+03  0.92007697957E+02 0.  0.
         11    1    3    3    0    0 -0.26855225577E+02 -0.32722058113E+02 -0.26615805793E+02  0.50003373346E+02  0.00000000000E+00 0. -1.
        -12    1    3    3    0    0 -0.33303603322E+02 -0.14061475482E+01  0.46970721743E+02  0.57596492482E+02  0.00000000000E+00 0.  1.
        -13    1    4    4    0    0  0.56861589459E+02 -0.22172137087E+02 -0.68866864519E+02  0.92018960261E+02  0.00000000000E+00 0.  1.
         13    1    4    4    0    0  0.63285137370E+02  0.72208118384E+02 -0.16745186215E+03  0.19302628606E+03  0.00000000000E+00 0. -1.
         21    1    1    2  502  501 -0.59987897930E+02 -0.15907775635E+02 -0.12155848879E+03  0.13648469299E+03  0.00000000000E+00 0. -1.
<scales pt_clust_5="13000.00000" pt_clust_6="13000.00000" pt_clust_7="13000.00000" pt_clust_8="13000.00000" pt_clust_9="62.06130"></scales>
<clustering>
<clus scale="   62.061">  2  9  1 -1</clus>
<clus scale="   79.872">  5  6 -1 -1</clus>
<clus scale="   92.008">  7  8 -1 -1</clus>
<clus scale="  111.503">  1  5  2 -1</clus>
<clus scale="   62.061">  2  5  1 -1</clus>
</clustering>
</event>
<event>
 9    1  0.2674825E-005  0.1250959E+03  0.7546771E-02  0.1238643E+00
         -2   -1    0    0    0  501 -0.00000000000E+00  0.00000000000E+00  0.15783710528E+03  0.15783710528E+03  0.00000000000E+00 0.  1.
          1   -1    0    0  502    0  0.00000000000E+00 -0.00000000000E+00 -0.12087387259E+03  0.12087387259E+03  0.00000000000E+00 0. -1.
        -24    2    1    2    0    0 -0.48755336259E+02 -0.71132482223E+02  0.32295766228E+02  0.12225851596E+03  0.80418998793E+02 0.  0.
         23    2    1    2    0    0  0.68774330859E+02  0.46825358872E+02  0.42645219267E+01  0.12496026042E+03  0.93136232044E+02 0.  0.
         13    1    3    3    0    0 -0.62982040352E+02 -0.46651653949E+02 -0.12148531614E+01  0.78387435800E+02  0.00000000000E+00 0. -1.
        -14    1    3    3    0    0  0.14226704093E+02 -0.24480828274E+02  0.33510619389E+02  0.43871080157E+02  0.00000000000E+00 0.  1.
        -11    1    4    4    0    0  0.68584090213E+02  0.20950592043E+02  0.39011604093E+02  0.81637062608E+02  0.00000000000E+00 0.  1.
         11    1    4    4    0    0  0.19024064573E+00  0.25874766829E+02 -0.34747082167E+02  0.43323197816E+02  0.00000000000E+00 0. -1.
         21    1    1    2  502  501 -0.20018994600E+02  0.24307123351E+02  0.40294454048E+00  0.31492201490E+02  0.00000000000E+00 0. -1.
<scales pt_clust_5="13000.00000" pt_clust_6="13000.00000" pt_clust_7="13000.00000" pt_clust_8="13000.00000" pt_clust_9="31.48962"></scales>
<clustering>
<clus scale="   31.490">  2  9  1 -1</clus>
<clus scale="   80.419">  5  6 -1 -1</clus>
<clus scale="   93.136">  7  8 -1 -1</clus>
<clus scale="  115.939">  1  5  2 -1</clus>
<clus scale="   31.490">  2  5  1 -1</clus>
</clustering>
</event>
<event>
 9    1  0.2674825E-005  0.9060420E+02  0.7546771E-02  0.1306660E+00
          1   -1    0    0  502    0  0.00000000000E+00  0.00000000000E+00  0.33383892486E+03  0.33383892486E+03  0.00000000000E+00 0. -1.
         -2   -1    0    0    0  501 -0.00000000000E+00 -0.00000000000E+00 -0.84813345087E+02  0.84813345087E+02  0.00000000000E+00 0.  1.
         23    2    1    2    0    0  0.27016756408E+01  0.61336192925E+01 -0.47747409955E+02  0.10233675234E+03  0.90266690338E+02 0.  0.
        -24    2    1    2    0    0  0.10343345726E+02 -0.22769730864E+02  0.26179293332E+03  0.27544331267E+03  0.81902583056E+02 0.  0.
         11    1    4    4    0    0  0.14808116487E+02  0.27149443218E+02  0.14649328750E+03  0.14972192846E+03  0.00000000000E+00 0. -1.
        -12    1    4    4    0    0 -0.44647707610E+01 -0.49919174082E+02  0.11529964583E+03  0.12572138421E+03  0.00000000000E+00 0.  1.
        -13    1    3    3    0    0  0.29481341706E+02  0.31259951064E+02 -0.11177793347E+01  0.42983525680E+02  0.00000000000E+00 0. -1.
         13    1    3    3    0    0 -0.26779666065E+02 -0.25126331771E+02 -0.46629630620E+02  0.59353226657E+02  0.00000000000E+00 0.  1.
         21    1    1    2  502  501 -0.13045021367E+02  0.16636111572E+02  0.34980056401E+02  0.40872204938E+02  0.00000000000E+00 0. -1.
<scales pt_clust_5="13000.00000" pt_clust_6="13000.00000" pt_clust_7="13000.00000" pt_clust_8="13000.00000" pt_clust_9="21.14079"></scales>
<clustering>
<clus scale="   21.141">  1  9  2 -1</clus>
<clus scale="   81.903">  5  6 -1 -1</clus>
<clus scale="   82.274">  1  5  2 -1</clus>
<clus scale="   90.267">  7  8 -1 -1</clus>
<clus scale="   21.141">  1  5  2 -1</clus>
</clustering>
</event>
<event>
 9    1  0.2674825E-005  0.1292647E+03  0.7546771E-02  0.1231892E+00
         -2   -1    0    0    0  501 -0.00000000000E+00  0.00000000000E+00  0.32519483196E+03  0.32519483196E+03  0.00000000000E+00 0.  1.
          1   -1    0    0  502    0  0.00000000000E+00 -0.00000000000E+00 -0.89283632594E+02  0.89283632594E+02  0.00000000000E+00 0. -1.
        -24    2    1    2    0    0  0.33438452209E+02 -0.88220540774E+02  0.20791926044E+03  0.24171520437E+03  0.79339947460E+02 0.  0.
         23    2    1    2    0    0  0.65052950838E+01  0.87133905174E+02  0.36387468822E+02  0.13193228362E+03  0.91909973776E+02 0.  0.
         13    1    3    3    0    0  0.45871036821E+01 -0.25073524074E+02  0.33777626058E+01  0.25712495209E+02  0.00000000000E+00 0. -1.
        -14    1    3    3    0    0  0.28851348527E+02 -0.63147016700E+02  0.20454149783E+03  0.21600270916E+03  0.00000000000E+00 0.  1.
        -13    1    4    4    0    0  0.26404693393E+02 -0.13919002734E+00  0.33122832474E+02  0.42359759656E+02  0.00000000000E+00 0.  1.
         13    1    4    4    0    0 -0.19899398309E+02  0.87273095201E+02  0.32646363486E+01  0.89572523966E+02  0.00000000000E+00 0. -1.
         21    1    1    2  502  501 -0.39943747293E+02  0.10866355996E+01 -0.83955298936E+01  0.40830976561E+02  0.00000000000E+00 0. -1.
<scales pt_clust_5="13000.00000" pt_clust_6="13000.00000" pt_clust_7="13000.00000" pt_clust_8="13000.00000" pt_clust_9="39.95853"></scales>
<clustering>
<clus scale="   39.959">  2  9  1 -1</clus>
<clus scale="   79.340">  5  6 -1 -1</clus>
<clus scale="   91.910">  7  8 -1 -1</clus>
<clus scale="  120.651">  1  5  2 -1</clus>
<clus scale="   39.959">  2  5  1 -1</clus>
</clustering>
</event>
<event>
 9    1  0.2674825E-005  0.9955652E+02  0.7546771E-02  0.1287921E+00
         -2   -1    0    0    0  501 -0.00000000000E+00  0.00000000000E+00  0.35216694857E+02  0.35216694857E+02  0.00000000000E+00 0.  1.
          1   -1    0    0  502    0  0.00000000000E+00 -0.00000000000E+00 -0.53915566584E+03  0.53915566584E+03  0.00000000000E+00 0. -1.
         23    2    1    2    0    0  0.55762322725E+02 -0.26162987575E+02 -0.81812717756E+02  0.13460131611E+03  0.87351330601E+02 0.  0.
        -24    2    1    2    0    0 -0.11272438203E+02  0.16631143646E+02 -0.22964767429E+03  0.24198780661E+03  0.73596069462E+02 0.  0.
         13    1    4    4    0    0 -0.22109294288E+02 -0.18178246523E+02 -0.16756492732E+03  0.16999198337E+03  0.00000000000E+00 0. -1.
        -14    1    4    4    0    0  0.10836856085E+02  0.34809390168E+02 -0.62082746968E+02  0.71995823245E+02  0.00000000000E+00 0.  1.
        -11    1    3    3    0    0  0.42624715534E+02  0.21444559871E+02 -0.12201869046E+02  0.49250595231E+02  0.00000000000E+00 0.  1.
         11    1    3    3    0    0  0.13137607191E+02 -0.47607547446E+02 -0.69610848711E+02  0.85350720880E+02  0.00000000000E+00 0. -1.
         21    1    1    2  502  501 -0.44489884522E+02  0.95318439298E+01 -0.19247857893E+03  0.19778323797E+03  0.00000000000E+00 0. -1.
<scales pt_clust_5="13000.00000" pt_clust_6="13000.00000" pt_clust_7="13000.00000" pt_clust_8="13000.00000" pt_clust_9="45.49952"></scales>
<clustering>
<clus scale="   45.500">  2  9  1 -1</clus>
<clus scale="   73.596">  5  6 -1 -1</clus>
<clus scale="   87.351">  7  8 -1 -1</clus>
<clus scale="   87.736">  2  5  1 -1</clus>
<clus scale="   45.500">  2  5  1 -1</clus>
</clustering>
</event>
<event>
 9    1  0.6084237E-005  0.9399386E+02  0.7546771E-02  0.1301289E+00
         -2   -1    0    0    0  501 -0.00000000000E+00  0.00000000000E+00  0.28688445545E+03  0.28688445545E+03  0.00000000000E+00 0.  1.
          1   -1    0    0  502    0  0.00000000000E+00 -0.00000000000E+00 -0.54253277562E+03  0.54253277562E+03  0.00000000000E+00 0. -1.
         23    2    1    2    0    0  0.82214946331E+01 -0.41371028696E+02  0.26040462026E+03  0.27970168942E+03  0.92969424117E+02 0.  0.
        -24    2    1    2    0    0  0.64579103106E+01  0.11983920711E+02 -0.50984839038E+03  0.51628526366E+03  0.80123488066E+02 0.  0.
         13    1    4    4    0    0  0.26207326858E+02 -0.25842583280E+02 -0.18312933070E+03  0.18679136718E+03  0.00000000000E+00 0. -1.
        -14    1    4    4    0    0 -0.19749416548E+02  0.37826503991E+02 -0.32671905968E+03  0.32949389648E+03  0.00000000000E+00 0.  1.
        -11    1    3    3    0    0  0.46091413856E+02 -0.33712854079E+01  0.14990894719E+03  0.15687089100E+03  0.00000000000E+00 0.  1.
         11    1    3    3    0    0 -0.37869919222E+02 -0.37999743288E+02  0.11049567307E+03  0.12283079842E+03  0.00000000000E+00 0. -1.
         21    1    1    2  502  501 -0.14679404944E+02  0.29387107985E+02 -0.62045500448E+01  0.33430277990E+02  0.00000000000E+00 0. -1.
<scales pt_clust_5="13000.00000" pt_clust_6="13000.00000" pt_clust_7="13000.00000" pt_clust_8="13000.00000" pt_clust_9="32.84946"></scales>
<clustering>
<clus scale="   32.849">  1  9  2 -1</clus>
<clus scale="   80.123">  5  6 -1 -1</clus>
<clus scale="   81.310">  2  5  1 -1</clus>
<clus scale="   92.969">  7  8 -1 -1</clus>
<clus scale="   81.310">  2  5  1 -1</clus>
</clustering>
</event>
<event>
 9    1  0.2674825E-005  0.1309466E+03  0.7546771E-02  0.1230648E+00
         -2   -1    0    0    0  501 -0.00000000000E+00  0.00000000000E+00  0.14243637507E+03  0.14243637507E+03  0.00000000000E+00 0.  1.
          1   -1    0    0  502    0  0.00000000000E+00 -0.00000000000E+00 -0.30998222183E+03  0.30998222183E+03  0.00000000000E+00 0. -1.
        -24    2    1    2    0    0  0.11686932924E+03 -0.53752000760E+01 -0.25642226264E+00  0.14036818609E+03  0.77561775522E+02 0.  0.
         23    2    1    2    0    0 -0.22274279866E+02  0.95922307097E+02 -0.79063201616E+02  0.15415529257E+03  0.88406062208E+02 0.  0.
         11    1    3    3    0    0  0.44817835442E+02  0.29201933475E+02  0.21326314288E+02  0.57586482559E+02  0.00000000000E+00 0. -1.
        -12    1    3    3    0    0  0.72051493799E+02 -0.34577133551E+02 -0.21582736551E+02  0.82781703536E+02  0.00000000000E+00 0.  1.
        -11    1    4    4    0    0 -0.13005365634E+02  0.69771999970E+02 -0.64810496732E+00  0.70976697269E+02  0.00000000000E+00 0.  1.
         11    1    4    4    0    0 -0.92689142326E+01  0.26150307126E+02 -0.78415096649E+02  0.83178595301E+02  0.00000000000E+00 0. -1.
         21    1    1    2  502  501 -0.94595049374E+02 -0.90547107021E+02 -0.88226222883E+02  0.15789511823E+03  0.00000000000E+00 0.  1.
<scales pt_clust_5="13000.00000" pt_clust_6="13000.00000" pt_clust_7="13000.00000" pt_clust_8="13000.00000" pt_clust_9="130.94656"></scales>
<clustering>
<clus scale="   77.562">  5  6 -1 -1</clus>
<clus scale="   88.406">  7  8 -1 -1</clus>
<clus scale="  130.947">  2  9  1 -1</clus>
<clus scale="  119.073">  1  5  2 -1</clus>
<clus scale="  130.947">  2  5  1 -1</clus>
</clustering>
</event>
<event>
 9    1  0.2674825E-005  0.1061389E+03  0.7546771E-02  0.1272794E+00
         -2   -1    0    0    0  501 -0.00000000000E+00  0.00000000000E+00  0.36124724158E+02  0.36124724158E+02  0.00000000000E+00 0.  1.
          1   -1    0    0  502    0  0.00000000000E+00 -0.00000000000E+00 -0.76773602935E+03  0.76773602935E+03  0.00000000000E+00 0. -1.
         23    2    1    2    0    0  0.49058486001E+02  0.50186916828E+02 -0.13000303461E+03  0.17426776270E+03  0.92428363814E+02 0.  0.
        -24    2    1    2    0    0  0.30700732427E+02 -0.46008471476E+02 -0.24140660642E+03  0.26064281641E+03  0.81229389401E+02 0.  0.
         13    1    4    4    0    0  0.41171838054E+02 -0.55865540745E+02 -0.23475576810E+03  0.24479858976E+03  0.00000000000E+00 0. -1.
        -14    1    4    4    0    0 -0.10471105627E+02  0.98570692695E+01 -0.66508383142E+01  0.15844226643E+02  0.00000000000E+00 0.  1.
        -13    1    3    3    0    0  0.95959162542E+01  0.69275089474E+02 -0.96081203001E+02  0.11883903904E+03  0.00000000000E+00 0. -1.
         13    1    3    3    0    0  0.39462569747E+02 -0.19088172647E+02 -0.33921831611E+02  0.55428723653E+02  0.00000000000E+00 0.  1.
         21    1    1    2  502  501 -0.79759218428E+02 -0.41784453516E+01 -0.36020166416E+03  0.36895017440E+03  0.00000000000E+00 0. -1.
<scales pt_clust_5="13000.00000" pt_clust_6="13000.00000" pt_clust_7="13000.00000" pt_clust_8="13000.00000" pt_clust_9="79.86859"></scales>
<clustering>
<clus scale="   79.869">  2  9  1 -1</clus>
<clus scale="   81.229">  5  6 -1 -1</clus>
<clus scale="   92.428">  7  8 -1 -1</clus>
<clus scale="   96.544">  2  5  1 -1</clus>
<clus scale="   79.869">  2  5  1 -1</clus>
</clustering>
</event>
<event>
 9    1  0.2674825E-005  0.1130086E+03  0.7546771E-02  0.1258671E+00
          1   -1    0    0  502    0  0.00000000000E+00  0.00000000000E+00  0.25023069102E+03  0.25023069102E+03  0.00000000000E+00 0. -1.
         -2   -1    0    0    0  501 -0.00000000000E+00 -0.00000000000E+00 -0.30003978320E+03  0.30003978320E+03  0.00000000000E+00 0.  1.
        -24    2    1    2    0    0 -0.66284251846E+02 -0.18225690963E+02 -0.27406675930E+03  0.29384215631E+03  0.80652628079E+02 0.  0.
         23    2    1    2    0    0  0.44071031138E+02  0.15697804636E+02  0.18841378959E+03  0.21418378051E+03  0.90477946866E+02 0.  0.
         13    1    3    3    0    0 -0.29372119341E+01 -0.32897617510E+02 -0.45616899564E+02  0.56318575777E+02  0.00000000000E+00 0. -1.
        -14    1    3    3    0    0 -0.63347039912E+02  0.14671926547E+02 -0.22844985974E+03  0.23752358053E+03  0.00000000000E+00 0.  1.
        -13    1    4    4    0    0  0.44329709498E+01 -0.35968716403E+02  0.77756231889E+02  0.85787128339E+02  0.00000000000E+00 0.  1.
         13    1    4    4    0    0  0.39638060188E+02  0.51666521039E+02  0.11065755770E+03  0.12839665217E+03  0.00000000000E+00 0. -1.
         21    1    1    2  502  501  0.22213220707E+02  0.25278863267E+01  0.35843877537E+02  0.42244537403E+02  0.00000000000E+00 0.  1.
<scales pt_clust_5="13000.00000" pt_clust_6="13000.00000" pt_clust_7="13000.00000" pt_clust_8="13000.00000" pt_clust_9="22.35660"></scales>
<clustering>
<clus scale="   22.357">  1  9  2 -1</clus>
<clus scale="   80.653">  5  6 -1 -1</clus>
<clus scale="   90.478">  7  8 -1 -1</clus>
<clus scale="  105.307">  2  5  1 -1</clus>
<clus scale="   22.357">  1  5  2 -1</clus>
</clustering>
</event>
<event>
 9    1  0.2674825E-005  0.9089937E+02  0.7546771E-02  0.1303669E+00
          1   -1    0    0  502    0  0.00000000000E+00  0.00000000000E+00  0.15584712250E+03  0.15584712250E+03  0.00000000000E+00 0. -1.
         -2   -1    0    0    0  501 -0.00000000000E+00 -0.00000000000E+00 -0.91664802653E+02  0.91664802653E+02  0.00000000000E+00 0.  1.
        -24    2    1    2    0    0  0.19716264984E+02  0.14316749100E+02 -0.29123935576E+02  0.92405770686E+02  0.84243233692E+02 0.  0.
         23    2    1    2    0    0 -0.32837567462E+01  0.13082250089E+02  0.79750058670E+02  0.12040020463E+03  0.89186372794E+02 0.  0.
         13    1    3    3    0    0  0.28028872764E+02 -0.26321248198E+02 -0.33101626760E+02  0.50736017870E+02  0.00000000000E+00 0. -1.
        -14    1    3    3    0    0 -0.83126077798E+01  0.40637997299E+02  0.39776911842E+01  0.41669752815E+02  0.00000000000E+00 0.  1.
        -11    1    4    4    0    0 -0.30381769347E+02  0.34656710831E+02  0.17764716427E+02  0.49393569055E+02  0.00000000000E+00 0.  1.
         11    1    4    4    0    0  0.27098012600E+02 -0.21574460742E+02  0.61985342243E+02  0.71006635579E+02  0.00000000000E+00 0. -1.
         21    1    1    2  502  501 -0.16432508238E+02 -0.27398999189E+02  0.13556196754E+02  0.34705949836E+02  0.00000000000E+00 0. -1.
<scales pt_clust_5="13000.00000" pt_clust_6="13000.00000" pt_clust_7="13000.00000" pt_clust_8="13000.00000" pt_clust_9="31.94890"></scales>
<clustering>
<clus scale="   31.949">  1  9  2 -1</clus>
<clus scale="   84.243">  5  6 -1 -1</clus>
<clus scale="   86.055">  2  5  1 -1</clus>
<clus scale="   89.186">  7  8 -1 -1</clus>
<clus scale="   31.949">  1  5  2 -1</clus>
</clustering>
</event>
<event>
 9    1  0.2674825E-005  0.1928246E+03  0.7546771E-02  0.1156433E+00
          1   -1    0    0  502    0  0.00000000000E+00  0.00000000000E+00  0.13352235085E+04  0.13352235085E+04  0.00000000000E+00 0. -1.
         -2   -1    0    0    0  501 -0.00000000000E+00 -0.00000000000E+00 -0.81899503135E+02  0.81899503135E+02  0.00000000000E+00 0.  1.
        -24    2    1    2    0    0 -0.70055152440E+02 -0.16574277848E+03  0.77067465779E+02  0.21341710631E+03  0.85023961225E+02 0.  0.
         23    2    1    2    0    0 -0.37870897985E+01  0.14050241896E+03  0.62224852188E+03  0.64422879571E+03  0.89901315156E+02 0.  0.
         11    1    3    3    0    0 -0.80909505534E+02 -0.10238291167E+03  0.71740798453E+02  0.14891390415E+03  0.00000000000E+00 0. -1.
        -12    1    3    3    0    0  0.10854353095E+02 -0.63359866816E+02  0.53266673259E+01  0.64503202160E+02  0.00000000000E+00 0.  1.
        -11    1    4    4    0    0  0.40915325236E+02  0.53126131555E+02  0.29801741666E+03  0.30546821492E+03  0.00000000000E+00 0. -1.
         11    1    4    4    0    0 -0.44702415034E+02  0.87376287407E+02  0.32423110522E+03  0.33876058080E+03  0.00000000000E+00 0.  1.
         21    1    1    2  502  501  0.73842242238E+02  0.25240359523E+02  0.55400801772E+03  0.55947710962E+03  0.00000000000E+00 0. -1.
<scales pt_clust_5="13000.00000" pt_clust_6="13000.00000" pt_clust_7="13000.00000" pt_clust_8="13000.00000" pt_clust_9="78.03687"></scales>
<clustering>
<clus scale="   78.037">  1  9  2 -1</clus>
<clus scale="   85.024">  5  6 -1 -1</clus>
<clus scale="   89.901">  7  8 -1 -1</clus>
<clus scale="  190.599">  2  5  1 -1</clus>
<clus scale="   78.037">  1  5  2 -1</clus>
</clustering>
</event>
<event>
 9    1  0.2674825E-005  0.1018570E+03  0.7546771E-02  0.1279601E+00
          1   -1    0    0  502    0  0.00000000000E+00  0.00000000000E+00  0.99470857002E+03  0.99470857002E+03  0.00000000000E+00 0. -1.
         -2   -1    0    0    0  501 -0.00000000000E+00 -0.00000000000E+00 -0.28327999731E+02  0.28327999731E+02  0.00000000000E+00 0.  1.
        -24    2    1    2    0    0 -0.22901862067E+02 -0.15202432205E+02  0.13437974542E+03  0.16051156492E+03  0.83369282501E+02 0.  0.
         23    2    1    2    0    0  0.61205200487E+02  0.83182026954E+02  0.38308561841E+03  0.40687905277E+03  0.90170096887E+02 0.  0.
         13    1    3    3    0    0 -0.35627172498E+02  0.16499762079E+02  0.11437035547E+03  0.12092194085E+03  0.00000000000E+00 0. -1.
        -14    1    3    3    0    0  0.12725310431E+02 -0.31702194284E+02  0.20009389942E+02  0.39589624068E+02  0.00000000000E+00 0.  1.
        -11    1    4    4    0    0  0.18414314801E+02  0.90756293851E+02  0.23637915593E+03  0.25387181258E+03  0.00000000000E+00 0.  1.
         11    1    4    4    0    0  0.42790885686E+02 -0.75742668966E+01  0.14670646248E+03  0.15300724019E+03  0.00000000000E+00 0. -1.
         21    1    1    2  502  501 -0.38303338419E+02 -0.67979594750E+02  0.44891520647E+03  0.45564595206E+03  0.00000000000E+00 0. -1.
<scales pt_clust_5="13000.00000" pt_clust_6="13000.00000" pt_clust_7="13000.00000" pt_clust_8="13000.00000" pt_clust_9="78.02801"></scales>
<clustering>
<clus scale="   78.028">  1  9  2 -1</clus>
<clus scale="   83.369">  5  6 -1 -1</clus>
<clus scale="   90.170">  7  8 -1 -1</clus>
<clus scale="   95.889">  2  5  1 -1</clus>
<clus scale="   78.028">  1  5  2 -1</clus>
</clustering>
</event>
<event>
 9    1  0.2674825E-005  0.1143028E+03  0.7546771E-02  0.1257454E+00
          1   -1    0    0  502    0  0.00000000000E+00  0.00000000000E+00  0.53602222446E+03  0.53602222446E+03  0.00000000000E+00 0. -1.
         -2   -1    0    0    0  501 -0.00000000000E+00 -0.00000000000E+00 -0.31217315043E+02  0.31217315043E+02  0.00000000000E+00 0.  1.
         23    2    1    2    0    0 -0.40773965746E+02  0.65432986735E+02  0.25634812990E+03  0.28315118816E+03  0.92283474259E+02 0.  0.
        -24    2    1    2    0    0  0.55586049845E+01 -0.62116380769E+02  0.20030823921E+03  0.22434386671E+03  0.79482306141E+02 0.  0.
         13    1    4    4    0    0 -0.34651353858E+02 -0.16293462471E+02  0.57677803866E+02  0.69230934576E+02  0.00000000000E+00 0. -1.
        -14    1    4    4    0    0  0.40209958842E+02 -0.45822918298E+02  0.14263043534E+03  0.15511293214E+03  0.00000000000E+00 0.  1.
        -11    1    3    3    0    0 -0.59173047058E+02  0.75368665659E+02  0.17909289333E+03  0.20311609907E+03  0.00000000000E+00 0. -1.
         11    1    3    3    0    0  0.18399081312E+02 -0.99356789237E+01  0.77255236569E+02  0.80035089093E+02  0.00000000000E+00 0.  1.
         21    1    1    2  502  501  0.35215360762E+02 -0.33166059661E+01  0.48148540315E+02  0.59744484626E+02  0.00000000000E+00 0.  1.
<scales pt_clust_5="13000.00000" pt_clust_6="13000.00000" pt_clust_7="13000.00000" pt_clust_8="13000.00000" pt_clust_9="35.37120"></scales>
<clustering>
<clus scale="   35.371">  2  9  1 -1</clus>
<clus scale="   79.482">  5  6 -1 -1</clus>
<clus scale="   92.283">  7  8 -1 -1</clus>
<clus scale="  104.242">  1  5  2 -1</clus>
<clus scale="  104.242">  1  5  2 -1</clus>
</clustering>
</event>
<event>
 9    1  0.2674825E-005  0.9769068E+02  0.7546771E-02  0.1294336E+00
         -2   -1    0    0    0  501 -0.00000000000E+00  0.00000000000E+00  0.16096178707E+03  0.16096178707E+03  0.00000000000E+00 0.  1.
          1   -1    0    0  502    0  0.00000000000E+00 -0.00000000000E+00 -0.18692337260E+03  0.18692337260E+03  0.00000000000E+00 0. -1.
         23    2    1    2    0    0 -0.48450286836E+01  0.15647987951E+02  0.12746978563E+03  0.16076773574E+03  0.96588740426E+02 0.  0.
        -24    2    1    2    0    0 -0.16686723173E+02 -0.46153919100E+01 -0.12054632599E+03  0.14629144311E+03  0.81055666343E+02 0.  0.
         13    1    4    4    0    0 -0.27945985227E+02  0.33124327947E+02 -0.67715005389E+02  0.80396026936E+02  0.00000000000E+00 0. -1.
        -14    1    4    4    0    0  0.11259262055E+02 -0.37739719857E+02 -0.52831320600E+02  0.65895416178E+02  0.00000000000E+00 0.  1.
        -11    1    3    3    0    0 -0.30667975517E+02  0.15757984571E+02  0.13030480805E+03  0.13478939795E+03  0.00000000000E+00 0.  1.
         11    1    3    3    0    0  0.25822946834E+02 -0.10999662032E+00 -0.28350224130E+01  0.25978337793E+02  0.00000000000E+00 0. -1.
         21    1    1    2  502  501  0.21531751856E+02 -0.11032596041E+02 -0.32885045168E+02  0.40825980810E+02  0.00000000000E+00 0.  1.
<scales pt_clust_5="13000.00000" pt_clust_6="13000.00000" pt_clust_7="13000.00000" pt_clust_8="13000.00000" pt_clust_9="24.19369"></scales>
<clustering>
<clus scale="   24.194">  2  9  1 -1</clus>
<clus scale="   81.056">  5  6 -1 -1</clus>
<clus scale="   82.366">  2  5  1 -1</clus>
<clus scale="   96.589">  7  8 -1 -1</clus>
<clus scale="   24.194">  2  5  1 -1</clus>
</clustering>
</event>
<event>
 9    1  0.2674825E-005  0.1265161E+03  0.7546771E-02  0.1238861E+00
         -2   -1    0    0    0  501 -0.00000000000E+00  0.00000000000E+00  0.82685621121E+03  0.82685621121E+03  0.00000000000E+00 0.  1.
          1   -1    0    0  502    0  0.00000000000E+00 -0.00000000000E+00 -0.40770167615E+02  0.40770167615E+02  0.00000000000E+00 0. -1.
         23    2    1    2    0    0 -0.76348529528E+02 -0.13304794845E+02  0.66196136528E+03  0.67401145302E+03  0.10046130673E+03 0.  0.
        -24    2    1    2    0    0  0.77511465165E+02 -0.17669021621E+02  0.11454175444E+03  0.16117171148E+03  0.80847297498E+02 0.  0.
         11    1    4    4    0    0  0.92001871991E+02 -0.94226285194E+01  0.77916699430E+02  0.12093032055E+03  0.00000000000E+00 0. -1.
        -12    1    4    4    0    0 -0.14490406826E+02 -0.82463931016E+01  0.36625055014E+02  0.40241390930E+02  0.00000000000E+00 0.  1.
        -13    1    3    3    0    0 -0.83019869986E+02 -0.44833296884E+02  0.51290187444E+03  0.52150805951E+03  0.00000000000E+00 0.  1.
         13    1    3    3    0    0  0.66713404585E+01  0.31528502039E+02  0.14905949084E+03  0.15250339352E+03  0.00000000000E+00 0. -1.
         21    1    1    2  502  501 -0.11629356378E+01  0.30973816466E+02  0.95829238647E+01  0.32443214322E+02  0.00000000000E+00 0. -1.
<scales pt_clust_5="13000.00000" pt_clust_6="13000.00000" pt_clust_7="13000.00000" pt_clust_8="13000.00000" pt_clust_9="30.99564"></scales>
<clustering>
<clus scale="   30.996">  2  9  1 -1</clus>
<clus scale="   80.847">  5  6 -1 -1</clus>
<clus scale="  100.461">  7  8 -1 -1</clus>
<clus scale="  111.580">  2  5  1 -1</clus>
<clus scale="   30.996">  2  5  1 -1</clus>
</clustering>
</event>
<event>
 9    1  0.2674825E-005  0.2275897E+03  0.7546771E-02  0.1161039E+00
         -2   -1    0    0    0  501 -0.00000000000E+00  0.00000000000E+00  0.17924064900E+03  0.17924064900E+03  0.00000000000E+00 0.  1.
          1   -1    0    0  502    0  0.00000000000E+00 -0.00000000000E+00 -0.42447974517E+03  0.42447974517E+03  0.00000000000E+00 0. -1.
         23    2    1    2    0    0 -0.43903360477E+02  0.17741081314E+02 -0.18510246729E+02  0.10574115428E+03  0.92716295482E+02 0.  0.
        -24    2    1    2    0    0  0.85598892302E+02  0.19423877806E+03 -0.10541656903E+03  0.25020787847E+03  0.80221294917E+02 0.  0.
         13    1    4    4    0    0  0.36393919672E+02  0.98553124685E+02 -0.95806970279E+02  0.14218372385E+03  0.00000000000E+00 0. -1.
        -14    1    4    4    0    0  0.49204972630E+02  0.95685653377E+02 -0.96095987504E+01  0.10802415462E+03  0.00000000000E+00 0.  1.
        -11    1    3    3    0    0 -0.10049642416E+02  0.30110696076E+02 -0.49099822707E+02  0.58467443255E+02  0.00000000000E+00 0.  1.
         11    1    3    3    0    0 -0.33853718061E+02 -0.12369614763E+02  0.30589575978E+02  0.47273711029E+02  0.00000000000E+00 0. -1.
         21    1    1    2  502  501 -0.41695531825E+02 -0.21197985938E+03 -0.12131228041E+03  0.24777136141E+03  0.00000000000E+00 0. -1.
<scales pt_clust_5="13000.00000" pt_clust_6="13000.00000" pt_clust_7="13000.00000" pt_clust_8="13000.00000" pt_clust_9="212.98263"></scales>
<clustering>
<clus scale="   80.221">  5  6 -1 -1</clus>
<clus scale="   92.716">  7  8 -1 -1</clus>
<clus scale="  104.108">  1  7  2 -1</clus>
<clus scale="  212.983">  2  9  1 -1</clus>
<clus scale="  212.983">  2  5  1 -1</clus>
</clustering>
</event>
<event>
 9    1  0.2674825E-005  0.9203713E+02  0.7546771E-02  0.1305399E+00
         -2   -1    0    0    0  501 -0.00000000000E+00  0.00000000000E+00  0.34124379159E+03  0.34124379159E+03  0.00000000000E+00 0.  1.
          1   -1    0    0  502    0  0.00000000000E+00 -0.00000000000E+00 -0.17483504981E+03  0.17483504981E+03  0.00000000000E+00 0. -1.
        -24    2    1    2    0    0 -0.18947610525E+02  0.19365510848E+01  0.31081390421E+03  0.32099849697E+03  0.77922973705E+02 0.  0.
         23    2    1    2    0    0  0.31977642012E+02  0.27099137401E+02 -0.10607675095E+03  0.14526147198E+03  0.89953795442E+02 0.  0.
         13    1    3    3    0    0  0.13696646410E+01  0.36291472207E+02  0.98869541736E+02  0.10532869134E+03  0.00000000000E+00 0. -1.
        -14    1    3    3    0    0 -0.20317275166E+02 -0.34354921123E+02  0.21194436247E+03  0.21566980563E+03  0.00000000000E+00 0.  1.
        -13    1    4    4    0    0 -0.16075423066E+02  0.44216650860E+02 -0.62109415872E+02  0.77917334271E+02  0.00000000000E+00 0.  1.
         13    1    4    4    0    0  0.48053065079E+02 -0.17117513459E+02 -0.43967335076E+02  0.67344137712E+02  0.00000000000E+00 0. -1.
         21    1    1    2  502  501 -0.13030031487E+02 -0.29035688486E+02 -0.38328411475E+02  0.49818872454E+02  0.00000000000E+00 0.  1.
<scales pt_clust_5="13000.00000" pt_clust_6="13000.00000" pt_clust_7="13000.00000" pt_clust_8="13000.00000" pt_clust_9="31.82535"></scales>
<clustering>
<clus scale="   31.825">  2  9  1 -1</clus>
<clus scale="   77.923">  5  6 -1 -1</clus>
<clus scale="   80.319">  1  5  2 -1</clus>
<clus scale="   89.954">  7  8 -1 -1</clus>
<clus scale="   31.825">  2  5  1 -1</clus>
</clustering>
</event>
<event>
 9    1  0.2674825E-005  0.1089973E+03  0.7546771E-02  0.1266881E+00
         -2   -1    0    0    0  501 -0.00000000000E+00  0.00000000000E+00  0.14328861380E+03  0.14328861380E+03  0.00000000000E+00 0.  1.
          1   -1    0    0  502    0  0.00000000000E+00 -0.00000000000E+00 -0.47892102462E+03  0.47892102462E+03  0.00000000000E+00 0. -1.
         23    2    1    2    0    0 -0.29622687685E+02  0.56650837637E+02  0.99429732899E+02  0.15013219405E+03  0.92555836534E+02 0.  0.
        -24    2    1    2    0    0  0.48423976834E+02 -0.31261690420E+02 -0.42823737027E+03  0.43975601490E+03  0.81706379913E+02 0.  0.
         11    1    4    4    0    0  0.66363493688E+02 -0.29104761312E+02 -0.24126705899E+03  0.25191465654E+03  0.00000000000E+00 0. -1.
        -12    1    4    4    0    0 -0.17939516854E+02 -0.21569291088E+01 -0.18697031128E+03  0.18784135836E+03  0.00000000000E+00 0.  1.
        -11    1    3    3    0    0 -0.21993228426E+02  0.49400930902E+01  0.95041234698E+02  0.97677750328E+02  0.00000000000E+00 0.  1.
         11    1    3    3    0    0 -0.76294592584E+01  0.51710744547E+02  0.43884982018E+01  0.52454443726E+02  0.00000000000E+00 0. -1.
         21    1    1    2  502  501 -0.18801289150E+02 -0.25389147217E+02 -0.68247734506E+01  0.32321429466E+02  0.00000000000E+00 0.  1.
<scales pt_clust_5="13000.00000" pt_clust_6="13000.00000" pt_clust_7="13000.00000" pt_clust_8="13000.00000" pt_clust_9="31.59268"></scales>
<clustering>
<clus scale="   31.593">  1  9  2 -1</clus>
<clus scale="   81.706">  5  6 -1 -1</clus>
<clus scale="   92.556">  7  8 -1 -1</clus>
<clus scale="   99.949">  2  5  1 -1</clus>
<clus scale="   99.949">  2  5  1 -1</clus>
</clustering>
</event>
<event>
 9    1  0.2674825E-005  0.1697354E+03  0.7546771E-02  0.1193146E+00
         -2   -1    0    0    0  501 -0.00000000000E+00  0.00000000000E+00  0.26708176198E+03  0.26708176198E+03  0.00000000000E+00 0.  1.
          1   -1    0    0  502    0  0.00000000000E+00 -0.00000000000E+00 -0.26496472857E+03  0.26496472857E+03  0.00000000000E+00 0. -1.
         23    2    1    2    0    0 -0.10074827095E+03 -0.12482315971E+03  0.15606505127E+03  0.24113924573E+03  0.89781959787E+02 0.  0.
        -24    2    1    2    0    0  0.96613481345E+02  0.70245876728E+00 -0.90196776394E+02  0.15131044802E+03  0.73652800237E+02 0.  0.
         13    1    4    4    0    0  0.84956043991E+02 -0.91827991929E+01 -0.10121947490E+03  0.13246597793E+03  0.00000000000E+00 0. -1.
        -14    1    4    4    0    0  0.11657437353E+02  0.98852579602E+01  0.11022698503E+02  0.18844470087E+02  0.00000000000E+00 0.  1.
        -11    1    3    3    0    0 -0.79277892097E+02 -0.55996415751E+02  0.41025397147E+02  0.10537393398E+03  0.00000000000E+00 0. -1.
         11    1    3    3    0    0 -0.21470378852E+02 -0.68826743957E+02  0.11503965412E+03  0.13576531174E+03  0.00000000000E+00 0.  1.
         21    1    1    2  502  501  0.41347896039E+01  0.12412070094E+03 -0.63751241475E+02  0.13959679680E+03  0.00000000000E+00 0. -1.
<scales pt_clust_5="13000.00000" pt_clust_6="13000.00000" pt_clust_7="13000.00000" pt_clust_8="13000.00000" pt_clust_9="144.04621"></scales>
<clustering>
<clus scale="   73.653">  5  6 -1 -1</clus>
<clus scale="   89.782">  7  8 -1 -1</clus>
<clus scale="  121.488">  2  5  1 -1</clus>
<clus scale="  144.046">  2  9  1 -1</clus>
<clus scale="  121.488">  2  5  1 -1</clus>
</clustering>
</event>
<event>
 9    1  0.2674825E-005  0.1457769E+03  0.7546771E-02  0.1207396E+00
          1   -1    0    0  502    0  0.00000000000E+00  0.00000000000E+00  0.71292793609E+03  0.71292793609E+03  0.00000000000E+00 0. -1.
         -2   -1    0    0    0  501 -0.00000000000E+00 -0.00000000000E+00 -0.31607489429E+03  0.31607489429E+03  0.00000000000E+00 0.  1.
        -24    2    1    2    0    0 -0.52317649414E+02  0.11043807623E+03 -0.27089702452E+03  0.30770288126E+03  0.79763150158E+02 0.  0.
         23    2    1    2    0    0  0.12925707192E+03 -0.66407913788E+02  0.55437860726E+03  0.57738532975E+03  0.70148251366E+02 0.  0.
         13    1    3    3    0    0  0.21145046627E+02  0.27301674251E+02 -0.75091956537E+02  0.82651656671E+02  0.00000000000E+00 0. -1.
        -14    1    3    3    0    0 -0.73462696041E+02  0.83136401975E+02 -0.19580506798E+03  0.22505122459E+03  0.00000000000E+00 0.  1.
        -11    1    4    4    0    0  0.19328415884E+02  0.15015719340E+02  0.77491379280E+02  0.81264834650E+02  0.00000000000E+00 0.  1.
         11    1    4    4    0    0  0.10992865604E+03 -0.81423633129E+02  0.47688722798E+03  0.49612049510E+03  0.00000000000E+00 0. -1.
         21    1    1    2  502  501 -0.76939422506E+02 -0.44030162438E+02  0.11337145906E+03  0.14391461937E+03  0.00000000000E+00 0.  1.
<scales pt_clust_5="13000.00000" pt_clust_6="13000.00000" pt_clust_7="13000.00000" pt_clust_8="13000.00000" pt_clust_9="88.64722"></scales>
<clustering>
<clus scale="   70.148">  7  8 -1 -1</clus>
<clus scale="   79.763">  5  6 -1 -1</clus>
<clus scale="   88.647">  1  9  2 -1</clus>
<clus scale="  140.746">  1  7  2 -1</clus>
<clus scale="   88.647">  1  5  2 -1</clus>
</clustering>
</event>
<event>
 9    1  0.2674825E-005  0.1175935E+03  0.7546771E-02  0.1249064E+00
         -2   -1    0    0    0  501 -0.00000000000E+00  0.00000000000E+00  0.35419536225E+03  0.35419536225E+03  0.00000000000E+00 0.  1.
          1   -1    0    0  502    0  0.00000000000E+00 -0.00000000000E+00 -0.95768271862E+02  0.95768271862E+02  0.00000000000E+00 0. -1.
         23    2    1    2    0    0  0.59818680298E+01 -0.55374035219E+02  0.21980853186E+03  0.24512088452E+03  0.93093452122E+02 0.  0.
        -24    2    1    2    0    0  0.76803575298E+01  0.92432830243E+02  0.71879080763E+02  0.15320678311E+03  0.98503300150E+02 0.  0.
         13    1    4    4    0    0 -0.11971250601E+02  0.41480006512E+02 -0.19009943104E+02  0.47172870572E+02  0.00000000000E+00 0. -1.
        -14    1    4    4    0    0  0.19651608131E+02  0.50952823731E+02  0.90889023866E+02  0.10603391254E+03  0.00000000000E+00 0.  1.
        -11    1    3    3    0    0  0.11448937658E+02  0.18977176088E+02  0.13973216770E+02  0.26200423139E+02  0.00000000000E+00 0. -1.
         11    1    3    3    0    0 -0.54670696283E+01 -0.74351211307E+02  0.20583531509E+03  0.21892046138E+03  0.00000000000E+00 0.  1.
         21    1    1    2  502  501 -0.13662225560E+02 -0.37058795024E+02 -0.33260522232E+02  0.51635966487E+02  0.00000000000E+00 0. -1.
<scales pt_clust_5="13000.00000" pt_clust_6="13000.00000" pt_clust_7="13000.00000" pt_clust_8="13000.00000" pt_clust_9="39.49697"></scales>
<clustering>
<clus scale="   39.497">  2  9  1 -1</clus>
<clus scale="   93.093">  7  8 -1 -1</clus>
<clus scale="   98.503">  5  6 -1 -1</clus>
<clus scale="  113.101">  1  7  2 -1</clus>
<clus scale="   39.497">  2  5  1 -1</clus>
</clustering>
</event>
<event>
 9    1  0.2674825E-005  0.9256042E+02  0.7546771E-02  0.1303164E+00
         -2   -1    0    0    0  501 -0.00000000000E+00  0.00000000000E+00  0.22898606364E+03  0.22898606364E+03  0.00000000000E+00 0.  1.
          1   -1    0    0  502    0  0.00000000000E+00 -0.00000000000E+00 -0.77369032510E+02  0.77369032510E+02  0.00000000000E+00 0. -1.
        -24    2    1    2    0    0  0.95115783419E+01  0.53545201126E+01  0.16726773017E+03  0.18631283172E+03  0.81331646371E+02 0.  0.
         23    2    1    2    0    0 -0.44261194343E+01 -0.27829074340E+02 -0.11974136448E+02  0.96708070791E+02  0.91733435020E+02 0.  0.
         11    1    3    3    0    0  0.74811008246E+01  0.24925450307E+02  0.10095044914E+02  0.27913345811E+02  0.00000000000E+00 0. -1.
        -12    1    3    3    0    0  0.20304775173E+01 -0.19570930194E+02  0.15717268525E+03  0.15839948591E+03  0.00000000000E+00 0.  1.
        -11    1    4    4    0    0 -0.28901241525E+02  0.23421417272E+02  0.47501334451E+01  0.37502110827E+02  0.00000000000E+00 0.  1.
         11    1    4    4    0    0  0.24475122091E+02 -0.51250491612E+02 -0.16724269893E+02  0.59205959964E+02  0.00000000000E+00 0. -1.
         21    1    1    2  502  501 -0.50854589076E+01  0.22474554227E+02 -0.36765625908E+01  0.23334193633E+02  0.00000000000E+00 0. -1.
<scales pt_clust_5="13000.00000" pt_clust_6="13000.00000" pt_clust_7="13000.00000" pt_clust_8="13000.00000" pt_clust_9="23.04273"></scales>
<clustering>
<clus scale="   23.043">  2  9  1 -1</clus>
<clus scale="   81.332">  5  6 -1 -1</clus>
<clus scale="   82.263">  1  5  2 -1</clus>
<clus scale="   91.733">  7  8 -1 -1</clus>
<clus scale="   23.043">  2  5  1 -1</clus>
</clustering>
</event>
<event>
 9    1  0.2674825E-005  0.1548214E+03  0.7546771E-02  0.1196722E+00
          3   -1    0    0  502    0  0.00000000000E+00  0.00000000000E+00  0.30324228351E+03  0.30324228351E+03  0.00000000000E+00 0. -1.
         -4   -1    0    0    0  501 -0.00000000000E+00 -0.00000000000E+00 -0.99367922566E+02  0.99367922566E+02  0.00000000000E+00 0.  1.
         23    2    1    2    0    0  0.11295173375E+03  0.47127460554E+01  0.64325370494E+02  0.16120104325E+03  0.95224571017E+02 0.  0.
        -24    2    1    2    0    0 -0.13248659165E+03  0.18586992205E+02  0.85753698953E+02  0.17961578240E+03  0.83725498847E+02 0.  0.
         13    1    4    4    0    0 -0.53614887497E+02  0.45640592435E+02  0.59540325896E+02  0.92209924883E+02  0.00000000000E+00 0. -1.
        -14    1    4    4    0    0 -0.78871704155E+02 -0.27053600230E+02  0.26213373056E+02  0.87405857520E+02  0.00000000000E+00 0.  1.
        -11    1    3    3    0    0  0.96995673324E+02  0.38254164205E+02  0.25232601217E+02  0.10727639949E+03  0.00000000000E+00 0. -1.
         11    1    3    3    0    0  0.15956060422E+02 -0.33541418150E+02  0.39092769277E+02  0.53924643767E+02  0.00000000000E+00 0.  1.
         21    1    1    2  502  501  0.19534857907E+02 -0.23299738261E+02  0.53795291500E+02  0.61793380422E+02  0.00000000000E+00 0.  1.
<scales pt_clust_5="13000.00000" pt_clust_6="13000.00000" pt_clust_7="13000.00000" pt_clust_8="13000.00000" pt_clust_9="30.40540"></scales>
<clustering>
<clus scale="   30.405">  1  9  2 -1</clus>
<clus scale="   83.725">  5  6 -1 -1</clus>
<clus scale="   95.225">  7  8 -1 -1</clus>
<clus scale="  148.027">  1  5  2 -1</clus>
<clus scale="   30.405">  1  5  2 -1</clus>
</clustering>
</event>
<event>
 9    1  0.2674825E-005  0.9339594E+02  0.7546771E-02  0.1305646E+00
         -2   -1    0    0    0  501 -0.00000000000E+00  0.00000000000E+00  0.65240044106E+02  0.65240044106E+02  0.00000000000E+00 0.  1.
          1   -1    0    0  502    0  0.00000000000E+00 -0.00000000000E+00 -0.36624547025E+03  0.36624547025E+03  0.00000000000E+00 0. -1.
        -24    2    1    2    0    0  0.16652765938E+02 -0.17778968727E+02  0.23448561041E+02  0.80641788306E+02  0.73211041953E+02 0.  0.
         23    2    1    2    0    0 -0.20976493907E+02 -0.18531715654E+02 -0.25929924678E+03  0.27612893085E+03  0.90706390588E+02 0.  0.
         13    1    3    3    0    0 -0.25609366942E+02 -0.17595429166E+02 -0.22945860747E+01  0.31156121838E+02  0.00000000000E+00 0. -1.
        -14    1    3    3    0    0  0.42262132881E+02 -0.18353956110E+00  0.25743147115E+02  0.49485666468E+02  0.00000000000E+00 0.  1.
        -13    1    4    4    0    0 -0.36350918542E+01 -0.42111920180E+02 -0.23292470759E+03  0.23672884725E+03  0.00000000000E+00 0.  1.
         13    1    4    4    0    0 -0.17341402053E+02  0.23580204527E+02 -0.26374539187E+02  0.39400083604E+02  0.00000000000E+00 0. -1.
         21    1    1    2  502  501  0.43237279686E+01  0.36310684381E+02 -0.65154740410E+02  0.74714795199E+02  0.00000000000E+00 0. -1.
<scales pt_clust_5="13000.00000" pt_clust_6="13000.00000" pt_clust_7="13000.00000" pt_clust_8="13000.00000" pt_clust_9="36.56720"></scales>
<clustering>
<clus scale="   36.567">  2  9  1 -1</clus>
<clus scale="   73.211">  5  6 -1 -1</clus>
<clus scale="   76.518">  1  5  2 -1</clus>
<clus scale="   90.706">  7  8 -1 -1</clus>
<clus scale="   36.567">  2  5  1 -1</clus>
</clustering>
</event>
<event>
 9    1  0.2674825E-005  0.9671485E+02  0.7546771E-02  0.1293719E+00
         -2   -1    0    0    0  501 -0.00000000000E+00  0.00000000000E+00  0.18773592280E+03  0.18773592280E+03  0.00000000000E+00 0.  1.
          1   -1    0    0  502    0  0.00000000000E+00 -0.00000000000E+00 -0.16558056628E+03  0.16558056628E+03  0.00000000000E+00 0. -1.
         23    2    1    2    0    0  0.17492703575E+02 -0.31085243082E+02  0.15353174795E+03  0.18181259009E+03  0.90617510847E+02 0.  0.
        -24    2    1    2    0    0  0.51413225534E+01  0.25992829326E+02 -0.81571892153E+02  0.11656101988E+03  0.78933119736E+02 0.  0.
         11    1    4    4    0    0 -0.20920945805E+02  0.37067254527E+02 -0.76853734949E+02  0.87853081376E+02  0.00000000000E+00 0. -1.
        -12    1    4    4    0    0  0.26062268359E+02 -0.11074425201E+02 -0.47181572039E+01  0.28707938500E+02  0.00000000000E+00 0.  1.
        -13    1    3    3    0    0  0.53954826141E+02 -0.10881439866E+02  0.76770510918E+02  0.94462904593E+02  0.00000000000E+00 0.  1.
         13    1    3    3    0    0 -0.36462122566E+02 -0.20203803216E+02  0.76761237029E+02  0.87349685498E+02  0.00000000000E+00 0. -1.
         21    1    1    2  502  501 -0.22634026128E+02  0.50924137562E+01 -0.49804499276E+02  0.54942879109E+02  0.00000000000E+00 0.  1.
<scales pt_clust_5="13000.00000" pt_clust_6="13000.00000" pt_clust_7="13000.00000" pt_clust_8="13000.00000" pt_clust_9="23.19982"></scales>
<clustering>
<clus scale="   23.200">  2  9  1 -1</clus>
<clus scale="   78.933">  5  6 -1 -1</clus>
<clus scale="   85.864">  2  5  1 -1</clus>
<clus scale="   90.618">  7  8 -1 -1</clus>
<clus scale="   23.200">  2  5  1 -1</clus>
</clustering>
</event>
<event>
 9    1  0.2674825E-005  0.1242411E+03  0.7546771E-02  0.1249253E+00
         -2   -1    0    0    0  501 -0.00000000000E+00  0.00000000000E+00  0.48322526799E+02  0.48322526799E+02  0.00000000000E+00 0.  1.
          1   -1    0    0  502    0  0.00000000000E+00 -0.00000000000E+00 -0.97514946991E+03  0.97514946991E+03  0.00000000000E+00 0. -1.
         23    2    1    2    0    0  0.51142785160E+01 -0.32422678103E+02 -0.30317061596E+02  0.10023429961E+03  0.89724047472E+02 0.  0.
        -24    2    1    2    0    0 -0.73952622216E+01 -0.75018771344E+02 -0.39182240084E+03  0.40723544798E+03  0.81445750857E+02 0.  0.
         13    1    4    4    0    0 -0.18699619754E+02  0.12502498645E+02 -0.69418540360E+02  0.72972063127E+02  0.00000000000E+00 0. -1.
        -14    1    4    4    0    0  0.11304357532E+02 -0.87521269989E+02 -0.32240386048E+03  0.33426338485E+03  0.00000000000E+00 0.  1.
        -13    1    3    3    0    0 -0.52407020783E+01 -0.54465553145E+02  0.75256889835E+01  0.55232213719E+02  0.00000000000E+00 0.  1.
         13    1    3    3    0    0  0.10354980594E+02  0.22042875042E+02 -0.37842750580E+02  0.45002085892E+02  0.00000000000E+00 0. -1.
         21    1    1    2  502  501  0.22809837057E+01  0.10744144945E+03 -0.50468748067E+03  0.51600224912E+03  0.00000000000E+00 0. -1.
<scales pt_clust_5="13000.00000" pt_clust_6="13000.00000" pt_clust_7="13000.00000" pt_clust_8="13000.00000" pt_clust_9="93.82126"></scales>
<clustering>
<clus scale="   81.446">  5  6 -1 -1</clus>
<clus scale="   89.724">  7  8 -1 -1</clus>
<clus scale="   95.539">  1  7  2 -1</clus>
<clus scale="   93.821">  2  9  1 -1</clus>
<clus scale="   93.821">  2  5  1 -1</clus>
</clustering>
</event>
<event>
 9    1  0.2674825E-005  0.1070645E+03  0.7546771E-02  0.1270786E+00
          1   -1    0    0  502    0  0.00000000000E+00  0.00000000000E+00  0.17337096757E+03  0.17337096757E+03  0.00000000000E+00 0. -1.
         -2   -1    0    0    0  501 -0.00000000000E+00 -0.00000000000E+00 -0.19489390800E+03  0.19489390800E+03  0.00000000000E+00 0.  1.
         23    2    1    2    0    0 -0.34757641855E+02  0.13726179166E+02 -0.79350158916E+02  0.12662217045E+03  0.91324830504E+02 0.  0.
        -24    2    1    2    0    0  0.11998415969E+03 -0.24266822634E+02  0.19701817474E+02  0.14768414665E+03  0.80233211966E+02 0.  0.
         11    1    4    4    0    0  0.11750709006E+03 -0.45662445780E+01 -0.28585914676E+01  0.11763051623E+03  0.00000000000E+00 0. -1.
        -12    1    4    4    0    0  0.24770696326E+01 -0.19700578056E+02  0.22560408941E+02  0.30053630418E+02  0.00000000000E+00 0.  1.
        -11    1    3    3    0    0 -0.87912646972E+01  0.37885345873E+02 -0.82305859859E+02  0.91032084091E+02  0.00000000000E+00 0.  1.
         11    1    3    3    0    0 -0.25966377158E+02 -0.24159166707E+02  0.29557009426E+01  0.35590086355E+02  0.00000000000E+00 0. -1.
         21    1    1    2  502  501 -0.85226517840E+02  0.10540643468E+02  0.38125401012E+02  0.93958558472E+02  0.00000000000E+00 0. -1.
<scales pt_clust_5="13000.00000" pt_clust_6="13000.00000" pt_clust_7="13000.00000" pt_clust_8="13000.00000" pt_clust_9="85.87587"></scales>
<clustering>
<clus scale="   80.233">  5  6 -1 -1</clus>
<clus scale="   85.876">  1  9  2 -1</clus>
<clus scale="   91.325">  7  8 -1 -1</clus>
<clus scale="   97.775">  1  5  2 -1</clus>
<clus scale="   85.876">  1  5  2 -1</clus>
</clustering>
</event>
<event>
 9    1  0.2674825E-005  0.1090012E+03  0.7546771E-02  0.1266213E+00
         -2   -1    0    0    0  501 -0.00000000000E+00  0.00000000000E+00  0.38671732956E+03  0.38671732956E+03  0.00000000000E+00 0.  1.
          1   -1    0    0  502    0  0.00000000000E+00 -0.00000000000E+00 -0.18992102143E+03  0.18992102143E+03  0.00000000000E+00 0. -1.
         23    2    1    2    0    0  0.30677022230E+02 -0.54784157132E+02  0.35769088265E+03  0.37429647218E+03  0.90623937154E+02 0.  0.
        -24    2    1    2    0    0 -0.18939811558E+02  0.19586562430E+02 -0.11361914344E+03  0.14224529679E+03  0.81129925510E+02 0.  0.
         13    1    4    4    0    0 -0.37187415696E+02 -0.15749046529E+02 -0.32265175935E+02  0.51691178462E+02  0.00000000000E+00 0. -1.
        -14    1    4    4    0    0  0.18247604138E+02  0.35335608959E+02 -0.81353967508E+02  0.90554118330E+02  0.00000000000E+00 0.  1.
        -13    1    3    3    0    0 -0.15899302434E+01 -0.73027799277E+02  0.24597232142E+03  0.25658910782E+03  0.00000000000E+00 0. -1.
         13    1    3    3    0    0  0.32266952474E+02  0.18243642145E+02  0.11171856123E+03  0.11770736436E+03  0.00000000000E+00 0.  1.
         21    1    1    2  502  501 -0.11737210673E+02  0.35197594702E+02 -0.47275431079E+02  0.60096582023E+02  0.00000000000E+00 0. -1.
<scales pt_clust_5="13000.00000" pt_clust_6="13000.00000" pt_clust_7="13000.00000" pt_clust_8="13000.00000" pt_clust_9="37.10300"></scales>
<clustering>
<clus scale="   37.103">  2  9  1 -1</clus>
<clus scale="   81.130">  5  6 -1 -1</clus>
<clus scale="   90.624">  7  8 -1 -1</clus>
<clus scale="  101.245">  2  5  1 -1</clus>
<clus scale="   37.103">  2  5  1 -1</clus>
</clustering>
</event>
<event>
 9    1  0.2674825E-005  0.9731688E+02  0.7546771E-02  0.1291927E+00
         -2   -1    0    0    0  501 -0.00000000000E+00  0.00000000000E+00  0.11808492510E+03  0.11808492510E+03  0.00000000000E+00 0.  1.
          1   -1    0    0  502    0  0.00000000000E+00 -0.00000000000E+00 -0.12910294971E+03  0.12910294971E+03  0.00000000000E+00 0. -1.
        -24    2    1    2    0    0  0.38070505254E+02  0.17673896295E+02  0.32893033544E+02  0.96780483217E+02  0.80763731312E+02 0.  0.
         23    2    1    2    0    0  0.56152820935E+01 -0.32848026201E+02 -0.27288494298E+02  0.10126462138E+03  0.91647899069E+02 0.  0.
         11    1    3    3    0    0  0.17694161080E+02  0.28354780009E+02 -0.20105540478E+02  0.39003969588E+02  0.00000000000E+00 0. -1.
        -12    1    3    3    0    0  0.20376344174E+02 -0.10680883714E+02  0.52998574022E+02  0.57776513629E+02  0.00000000000E+00 0.  1.
        -13    1    4    4    0    0  0.15472099954E+02 -0.59326153323E+02  0.95142991084E+00  0.61317889428E+02  0.00000000000E+00 0.  1.
         13    1    4    4    0    0 -0.98568178609E+01  0.26478127122E+02 -0.28239924208E+02  0.39946731951E+02  0.00000000000E+00 0. -1.
         21    1    1    2  502  501 -0.43685787348E+02  0.15174129906E+02 -0.16622563856E+02  0.49142770208E+02  0.00000000000E+00 0. -1.
<scales pt_clust_5="13000.00000" pt_clust_6="13000.00000" pt_clust_7="13000.00000" pt_clust_8="13000.00000" pt_clust_9="46.24611"></scales>
<clustering>
<clus scale="   46.246">  2  9  1 -1</clus>
<clus scale="   80.764">  5  6 -1 -1</clus>
<clus scale="   87.144">  1  5  2 -1</clus>
<clus scale="   91.648">  7  8 -1 -1</clus>
<clus scale="   46.246">  2  5  1 -1</clus>
</clustering>
</event>
<event>
 9    1  0.2674825E-005  0.9396810E+02  0.7546771E-02  0.1299221E+00
          1   -1    0    0  502    0  0.00000000000E+00  0.00000000000E+00  0.26844780345E+03  0.26844780345E+03  0.00000000000E+00 0. -1.
         -2   -1    0    0    0  501 -0.00000000000E+00 -0.00000000000E+00 -0.10056298948E+03  0.10056298948E+03  0.00000000000E+00 0.  1.
        -24    2    1    2    0    0  0.22086523499E+02 -0.10153696954E+02 -0.65866273658E+02  0.10757616539E+03  0.81506768265E+02 0.  0.
         23    2    1    2    0    0 -0.10109746474E+02 -0.11304807509E+02  0.18363760310E+03  0.20562000639E+03  0.91251367703E+02 0.  0.
         11    1    3    3    0    0  0.25583907279E+02 -0.19229393534E+02  0.80670624600E+01  0.33005808338E+02  0.00000000000E+00 0. -1.
        -12    1    3    3    0    0 -0.34973837797E+01  0.90756965800E+01 -0.73933336118E+02  0.74570357054E+02  0.00000000000E+00 0.  1.
        -13    1    4    4    0    0  0.34349285926E+02 -0.22197913127E+02  0.12315901262E+03  0.12977196608E+03  0.00000000000E+00 0.  1.
         13    1    4    4    0    0 -0.44459032400E+02  0.10893105619E+02  0.60478590487E+02  0.75848040312E+02  0.00000000000E+00 0. -1.
         21    1    1    2  502  501 -0.11976777025E+02  0.21458504462E+02  0.50113484532E+02  0.55814621146E+02  0.00000000000E+00 0. -1.
<scales pt_clust_5="13000.00000" pt_clust_6="13000.00000" pt_clust_7="13000.00000" pt_clust_8="13000.00000" pt_clust_9="24.57459"></scales>
<clustering>
<clus scale="   24.575">  1  9  2 -1</clus>
<clus scale="   81.507">  5  6 -1 -1</clus>
<clus scale="   84.537">  2  5  1 -1</clus>
<clus scale="   91.251">  7  8 -1 -1</clus>
<clus scale="   24.575">  1  5  2 -1</clus>
</clustering>
</event>
<event>
 9    1  0.2674825E-005  0.9232031E+02  0.7546771E-02  0.1304416E+00
         -2   -1    0    0    0  501 -0.00000000000E+00  0.00000000000E+00  0.11849524120E+03  0.11849524120E+03  0.00000000000E+00 0.  1.
          1   -1    0    0  502    0  0.00000000000E+00 -0.00000000000E+00 -0.25082916276E+03  0.25082916276E+03  0.00000000000E+00 0. -1.
        -24    2    1    2    0    0 -0.52044162290E+01 -0.69788431580E+01  0.73572080212E+02  0.10956710865E+03  0.80723665130E+02 0.  0.
         23    2    1    2    0    0  0.18566731365E+02 -0.39640526350E+02 -0.17415280332E+03  0.20179021248E+03  0.92054310636E+02 0.  0.
         11    1    3    3    0    0  0.16270625372E+02 -0.37778553035E+02  0.24854334927E+02  0.48059237240E+02  0.00000000000E+00 0. -1.
        -12    1    3    3    0    0 -0.21475041601E+02  0.30799709877E+02  0.48717745285E+02  0.61507871415E+02  0.00000000000E+00 0.  1.
        -11    1    4    4    0    0  0.53618709713E+02 -0.37077070518E+02 -0.95341830710E+02  0.11549779164E+03  0.00000000000E+00 0. -1.
         11    1    4    4    0    0 -0.35051978348E+02 -0.25634558323E+01 -0.78810972609E+02  0.86292420847E+02  0.00000000000E+00 0.  1.
         21    1    1    2  502  501 -0.13362315136E+02  0.46619369508E+02 -0.31753198458E+02  0.57967082827E+02  0.00000000000E+00 0.  1.
<scales pt_clust_5="13000.00000" pt_clust_6="13000.00000" pt_clust_7="13000.00000" pt_clust_8="13000.00000" pt_clust_9="48.49657"></scales>
<clustering>
<clus scale="   48.497">  2  9  1 -1</clus>
<clus scale="   80.724">  5  6 -1 -1</clus>
<clus scale="   81.027">  1  5  2 -1</clus>
<clus scale="   92.054">  7  8 -1 -1</clus>
<clus scale="   48.497">  2  5  1 -1</clus>
</clustering>
</event>
<event>
 9    1  0.2674825E-005  0.1196574E+03  0.7546771E-02  0.1245549E+00
          1   -1    0    0  502    0  0.00000000000E+00  0.00000000000E+00  0.61073681417E+03  0.61073681417E+03  0.00000000000E+00 0. -1.
         -2   -1    0    0    0  501 -0.00000000000E+00 -0.00000000000E+00 -0.25579752084E+03  0.25579752084E+03  0.00000000000E+00 0.  1.
         23    2    1    2    0    0  0.36576269637E+02 -0.67518121813E+02 -0.23288836217E+03  0.26179059161E+03  0.91655901885E+02 0.  0.
        -24    2    1    2    0    0 -0.57383916670E+02  0.61476137544E+02  0.48398019379E+03  0.49866000736E+03  0.85748152080E+02 0.  0.
         11    1    4    4    0    0  0.15785785810E+02  0.38886645200E+02  0.21149635201E+03  0.21562019646E+03  0.00000000000E+00 0. -1.
        -12    1    4    4    0    0 -0.73169702480E+02  0.22589492345E+02  0.27248384178E+03  0.28303981090E+03  0.00000000000E+00 0.  1.
        -13    1    3    3    0    0 -0.20697573256E+02 -0.49528550509E+02 -0.70144105829E+02  0.88327019856E+02  0.00000000000E+00 0.  1.
         13    1    3    3    0    0  0.57273842893E+02 -0.17989571304E+02 -0.16274425634E+03  0.17346357176E+03  0.00000000000E+00 0. -1.
         21    1    1    2  502  501  0.20807647033E+02  0.60419842686E+01  0.10384746170E+03  0.10608373604E+03  0.00000000000E+00 0.  1.
<scales pt_clust_5="13000.00000" pt_clust_6="13000.00000" pt_clust_7="13000.00000" pt_clust_8="13000.00000" pt_clust_9="21.66711"></scales>
<clustering>
<clus scale="   21.667">  1  9  2 -1</clus>
<clus scale="   85.748">  5  6 -1 -1</clus>
<clus scale="   91.656">  7  8 -1 -1</clus>
<clus scale="  115.195">  1  5  2 -1</clus>
<clus scale="   21.667">  1  5  2 -1</clus>
</clustering>
</event>
<event>
 9    1  0.2674825E-005  0.1237480E+03  0.7546771E-02  0.1252435E+00
          3   -1    0    0  502    0  0.00000000000E+00  0.00000000000E+00  0.73797322055E+02  0.73797322055E+02  0.00000000000E+00 0. -1.
         -4   -1    0    0    0  501 -0.00000000000E+00 -0.00000000000E+00 -0.32793233369E+03  0.32793233369E+03  0.00000000000E+00 0.  1.
        -24    2    1    2    0    0  0.53090134165E+02  0.72926926233E+02 -0.12200293562E+03  0.17189549254E+03  0.80786416798E+02 0.  0.
         23    2    1    2    0    0  0.57234413317E+01  0.46045926689E+01 -0.63225320092E+02  0.11059359084E+03  0.90440815899E+02 0.  0.
         11    1    3    3    0    0  0.54656631652E+02  0.85023288771E+02 -0.82247538422E+02  0.13031103021E+03  0.00000000000E+00 0. -1.
        -12    1    3    3    0    0 -0.15664974863E+01 -0.12096362537E+02 -0.39755397196E+02  0.41584462329E+02  0.00000000000E+00 0.  1.
        -13    1    4    4    0    0  0.17469124702E+02 -0.24144711007E+02 -0.72331181241E+02  0.78230027273E+02  0.00000000000E+00 0.  1.
         13    1    4    4    0    0 -0.11745683371E+02  0.28749303676E+02  0.91058611489E+01  0.32363563570E+02  0.00000000000E+00 0. -1.
         21    1    1    2  502  501 -0.58813575497E+02 -0.77531518902E+02 -0.68906755924E+02  0.11924057236E+03  0.00000000000E+00 0.  1.
<scales pt_clust_5="13000.00000" pt_clust_6="13000.00000" pt_clust_7="13000.00000" pt_clust_8="13000.00000" pt_clust_9="93.73959"></scales>
<clustering>
<clus scale="   80.786">  5  6 -1 -1</clus>
<clus scale="   90.441">  7  8 -1 -1</clus>
<clus scale="   90.739">  1  7  2 -1</clus>
<clus scale="   93.740">  1  9  2 -1</clus>
<clus scale="   90.739">  1  5  2 -1</clus>
</clustering>
</event>
<event>
 9    1  0.2674825E-005  0.9343876E+02  0.7546771E-02  0.1298020E+00
          1   -1    0    0  502    0  0.00000000000E+00  0.00000000000E+00  0.15948633817E+04  0.15948633817E+04  0.00000000000E+00 0. -1.
         -2   -1    0    0    0  501 -0.00000000000E+00 -0.00000000000E+00 -0.21484181080E+02  0.21484181080E+02  0.00000000000E+00 0.  1.
         23    2    1    2    0    0  0.12238599381E+02  0.18341104247E+02  0.10159163408E+03  0.13769897528E+03  0.90299325901E+02 0.  0.
        -24    2    1    2    0    0 -0.10611645348E+02 -0.47735790800E+02  0.13425937509E+04  0.13461429779E+04  0.84567276453E+02 0.  0.
         13    1    4    4    0    0 -0.25951356575E+02 -0.19879396092E+02  0.16980202924E+03  0.17292019093E+03  0.00000000000E+00 0. -1.
        -14    1    4    4    0    0  0.15339711228E+02 -0.27856394709E+02  0.11727917217E+04  0.11732227870E+04  0.00000000000E+00 0.  1.
        -11    1    3    3    0    0 -0.11384377131E+02  0.28894426619E+02 -0.18105182333E+01  0.31109000443E+02  0.00000000000E+00 0.  1.
         11    1    3    3    0    0  0.23622976512E+02 -0.10553322372E+02  0.10340215232E+03  0.10658997484E+03  0.00000000000E+00 0. -1.
         21    1    1    2  502  501 -0.16269540337E+01  0.29394686553E+02  0.12919381561E+03  0.13250560958E+03  0.00000000000E+00 0. -1.
<scales pt_clust_5="13000.00000" pt_clust_6="13000.00000" pt_clust_7="13000.00000" pt_clust_8="13000.00000" pt_clust_9="29.43968"></scales>
<clustering>
<clus scale="   29.440">  1  9  2 -1</clus>
<clus scale="   84.567">  5  6 -1 -1</clus>
<clus scale="   87.912">  1  5  2 -1</clus>
<clus scale="   90.299">  7  8 -1 -1</clus>
<clus scale="   29.440">  1  5  2 -1</clus>
</clustering>
</event>
<event>
 9    1  0.2674825E-005  0.1749892E+03  0.7546771E-02  0.1173691E+00
          1   -1    0    0  502    0  0.00000000000E+00  0.00000000000E+00  0.10675118990E+03  0.10675118990E+03  0.00000000000E+00 0. -1.
         -2   -1    0    0    0  501 -0.00000000000E+00 -0.00000000000E+00 -0.53694429840E+03  0.53694429840E+03  0.00000000000E+00 0.  1.
        -24    2    1    2    0    0  0.76657294426E+02 -0.67167730553E+02 -0.27018421572E+03  0.30067026930E+03  0.83757122662E+02 0.  0.
         23    2    1    2    0    0 -0.16132950940E+03  0.59633976401E+02 -0.44620495542E+02  0.19970521462E+03  0.91146927440E+02 0.  0.
         13    1    3    3    0    0  0.41296421494E+02 -0.45298643055E+02 -0.57786917672E+02  0.84241850317E+02  0.00000000000E+00 0. -1.
        -14    1    3    3    0    0  0.35360872932E+02 -0.21869087498E+02 -0.21239729805E+03  0.21642841898E+03  0.00000000000E+00 0.  1.
        -13    1    4    4    0    0 -0.21470894700E+02 -0.14944026115E+02 -0.31085798836E+02  0.40628193721E+02  0.00000000000E+00 0.  1.
         13    1    4    4    0    0 -0.13985861470E+03  0.74578002516E+02 -0.13534696706E+02  0.15907702090E+03  0.00000000000E+00 0. -1.
         21    1    1    2  502  501  0.84672214969E+02  0.75337541524E+01 -0.11538839723E+03  0.14332000438E+03  0.00000000000E+00 0.  1.
<scales pt_clust_5="13000.00000" pt_clust_6="13000.00000" pt_clust_7="13000.00000" pt_clust_8="13000.00000" pt_clust_9="85.00671"></scales>
<clustering>
<clus scale="   83.757">  5  6 -1 -1</clus>
<clus scale="   85.007">  2  9  1 -1</clus>
<clus scale="   91.147">  7  8 -1 -1</clus>
<clus scale="  171.256">  2  5  1 -1</clus>
<clus scale="  174.989">  1  5  2 -1</clus>
</clustering>
</event>
<event>
 9    1  0.2674825E-005  0.9241565E+02  0.7546771E-02  0.1302755E+00
         -2   -1    0    0    0  501 -0.00000000000E+00  0.00000000000E+00  0.33774491802E+03  0.33774491802E+03  0.00000000000E+00 0.  1.
          1   -1    0    0  502    0  0.00000000000E+00 -0.00000000000E+00 -0.22208868710E+03  0.22208868710E+03  0.00000000000E+00 0. -1.
         23    2    1    2    0    0  0.85618521861E+01  0.24223426113E+02  0.31173887651E+03  0.32517687541E+03  0.88875156781E+02 0.  0.
        -24    2    1    2    0    0  0.30186165116E+02 -0.28226986035E+02 -0.12678980367E+03  0.15516499883E+03  0.79325627914E+02 0.  0.
         13    1    4    4    0    0  0.28140540118E+02 -0.44989566824E+02 -0.12766593158E+03  0.13825534785E+03  0.00000000000E+00 0. -1.
        -14    1    4    4    0    0  0.20456249978E+01  0.16762580788E+02  0.87612791805E+00  0.16909650985E+02  0.00000000000E+00 0.  1.
        -11    1    3    3    0    0  0.18643962181E+02 -0.25614727595E+02  0.55183736834E+02  0.63631410534E+02  0.00000000000E+00 0. -1.
         11    1    3    3    0    0 -0.10082109995E+02  0.49838153708E+02  0.25655513967E+03  0.26154546488E+03  0.00000000000E+00 0.  1.
         21    1    1    2  502  501 -0.38748017302E+02  0.40035599223E+01 -0.69292841920E+02  0.79491730880E+02  0.00000000000E+00 0. -1.
<scales pt_clust_5="13000.00000" pt_clust_6="13000.00000" pt_clust_7="13000.00000" pt_clust_8="13000.00000" pt_clust_9="38.95430"></scales>
<clustering>
<clus scale="   38.954">  2  9  1 -1</clus>
<clus scale="   79.326">  5  6 -1 -1</clus>
<clus scale="   83.273">  2  5  1 -1</clus>
<clus scale="   88.875">  7  8 -1 -1</clus>
<clus scale="   38.954">  2  5  1 -1</clus>
</clustering>
</event>
<event>
 9    1  0.2674825E-005  0.1149551E+03  0.7546771E-02  0.1255304E+00
         -2   -1    0    0    0  501 -0.00000000000E+00  0.00000000000E+00  0.19879239479E+03  0.19879239479E+03  0.00000000000E+00 0.  1.
          1   -1    0    0  502    0  0.00000000000E+00 -0.00000000000E+00 -0.97523554619E+02  0.97523554619E+02  0.00000000000E+00 0. -1.
         23    2    1    2    0    0  0.47930873309E+02  0.53577939942E+02  0.10917929114E+03  0.15879567515E+03  0.90155335774E+02 0.  0.
        -24    2    1    2    0    0 -0.64878309078E+02 -0.34056673160E+02  0.55360881506E+01  0.10838087053E+03  0.79666259159E+02 0.  0.
         11    1    4    4    0    0 -0.66545910488E+02  0.72062733100E+01  0.40556518609E+01  0.67057713126E+02  0.00000000000E+00 0. -1.
        -12    1    4    4    0    0  0.16676014105E+01 -0.41262946470E+02  0.14804362897E+01  0.41323157400E+02  0.00000000000E+00 0.  1.
        -13    1    3    3    0    0  0.18040736790E+02  0.13514798810E+02  0.10636980779E+03  0.10873202831E+03  0.00000000000E+00 0.  1.
         13    1    3    3    0    0  0.29890136519E+02  0.40063141132E+02  0.28094833478E+01  0.50063646843E+02  0.00000000000E+00 0. -1.
         21    1    1    2  502  501  0.16947435769E+02 -0.19521266782E+02 -0.13446539114E+02  0.29139403735E+02  0.00000000000E+00 0.  1.
<scales pt_clust_5="13000.00000" pt_clust_6="13000.00000" pt_clust_7="13000.00000" pt_clust_8="13000.00000" pt_clust_9="25.85141"></scales>
<clustering>
<clus scale="   25.851">  2  9  1 -1</clus>
<clus scale="   79.666">  5  6 -1 -1</clus>
<clus scale="   90.155">  7  8 -1 -1</clus>
<clus scale="  106.927">  2  5  1 -1</clus>
<clus scale="   25.851">  2  5  1 -1</clus>
</clustering>
</event>
<event>
 9    1  0.2674825E-005  0.1378474E+03  0.7546771E-02  0.1224175E+00
          1   -1    0    0  502    0  0.00000000000E+00  0.00000000000E+00  0.11806935795E+03  0.11806935795E+03  0.00000000000E+00 0. -1.
         -2   -1    0    0    0  501 -0.00000000000E+00 -0.00000000000E+00 -0.49183398270E+03  0.49183398270E+03  0.00000000000E+00 0.  1.
         23    2    1    2    0    0  0.43544409143E+02  0.78756154842E+02 -0.42851948708E+03  0.45096912560E+03  0.10791456781E+03 0.  0.
        -24    2    1    2    0    0 -0.47049380285E+02 -0.34422801413E+02  0.58305585985E+02  0.11432100302E+03  0.79190762925E+02 0.  0.
         11    1    4    4    0    0 -0.66326651353E+02 -0.24624636448E+02  0.25857224969E+02  0.75327242635E+02  0.00000000000E+00 0. -1.
        -12    1    4    4    0    0  0.19277271068E+02 -0.97981649650E+01  0.32448361016E+02  0.38993760387E+02  0.00000000000E+00 0.  1.
        -13    1    3    3    0    0  0.65451522760E+02  0.90791067807E+02 -0.38323676682E+03  0.39924596337E+03  0.00000000000E+00 0.  1.
         13    1    3    3    0    0 -0.21907113617E+02 -0.12034912965E+02 -0.45282720256E+02  0.51723162229E+02  0.00000000000E+00 0. -1.
         21    1    1    2  502  501  0.35049711421E+01 -0.44333353429E+02 -0.35507236597E+01  0.44613212029E+02  0.00000000000E+00 0. -1.
<scales pt_clust_5="13000.00000" pt_clust_6="13000.00000" pt_clust_7="13000.00000" pt_clust_8="13000.00000" pt_clust_9="44.47169"></scales>
<clustering>
<clus scale="   44.472">  1  9  2 -1</clus>
<clus scale="   79.191">  5  6 -1 -1</clus>
<clus scale="  107.915">  7  8 -1 -1</clus>
<clus scale="  116.737">  1  5  2 -1</clus>
<clus scale="   44.472">  1  5  2 -1</clus>
</clustering>
</event>
<event>
 9    1  0.2674825E-005  0.1020666E+03  0.7546771E-02  0.1282132E+00
         -2   -1    0    0    0  501 -0.00000000000E+00  0.00000000000E+00  0.20817384020E+03  0.20817384020E+03  0.00000000000E+00 0.  1.
          1   -1    0    0  502    0  0.00000000000E+00 -0.00000000000E+00 -0.32587909070E+03  0.32587909070E+03  0.00000000000E+00 0. -1.
        -24    2    1    2    0    0 -0.42413163417E+02  0.16059576559E+02  0.18388762223E+03  0.20547691005E+03  0.79682598624E+02 0.  0.
         23    2    1    2    0    0  0.98272559056E+01 -0.72479952890E+01 -0.18366055888E+03  0.20590770392E+03  0.92291241454E+02 0.  0.
         11    1    3    3    0    0 -0.31361834113E+02 -0.17437782878E+02  0.27633046922E+02  0.45290464701E+02  0.00000000000E+00 0. -1.
        -12    1    3    3    0    0 -0.11051329304E+02  0.33497359437E+02  0.15625457530E+03  0.16018644534E+03  0.00000000000E+00 0.  1.
        -13    1    4    4    0    0  0.25885520496E+02  0.18275037535E+02 -0.16978054629E+03  0.17271210457E+03  0.00000000000E+00 0. -1.
         13    1    4    4    0    0 -0.16058264590E+02 -0.25523032824E+02 -0.13880012594E+02  0.33195599344E+02  0.00000000000E+00 0.  1.
         21    1    1    2  502  501  0.32585907511E+02 -0.88115812699E+01 -0.11793231384E+03  0.12266831694E+03  0.00000000000E+00 0. -1.
<scales pt_clust_5="13000.00000" pt_clust_6="13000.00000" pt_clust_7="13000.00000" pt_clust_8="13000.00000" pt_clust_9="33.75626"></scales>
<clustering>
<clus scale="   33.756">  2  9  1 -1</clus>
<clus scale="   79.683">  5  6 -1 -1</clus>
<clus scale="   90.825">  1  5  2 -1</clus>
<clus scale="   92.291">  7  8 -1 -1</clus>
<clus scale="   33.756">  2  5  1 -1</clus>
</clustering>
</event>
<event>
 9    1  0.2674825E-005  0.2971223E+03  0.7546771E-02  0.1120858E+00
          1   -1    0    0  502    0  0.00000000000E+00  0.00000000000E+00  0.46672830151E+03  0.46672830151E+03  0.00000000000E+00 0. -1.
         -2   -1    0    0    0  501 -0.00000000000E+00 -0.00000000000E+00 -0.39309798570E+03  0.39309798570E+03  0.00000000000E+00 0.  1.
        -24    2    1    2    0    0 -0.21056465084E+02  0.91099416775E+02 -0.18127642381E+03  0.21915726338E+03  0.80164117917E+02 0.  0.
         23    2    1    2    0    0  0.24810751395E+03  0.10586055605E+03  0.95114816783E+02  0.30025917043E+03  0.91350671853E+02 0.  0.
         13    1    3    3    0    0  0.22319343811E+02  0.96000185167E+00 -0.24221007848E+02  0.32950446627E+02  0.00000000000E+00 0. -1.
        -14    1    3    3    0    0 -0.43375808895E+02  0.90139414923E+02 -0.15705541597E+03  0.18620681675E+03  0.00000000000E+00 0.  1.
        -11    1    4    4    0    0  0.80448418866E+02  0.18219984223E+02 -0.11210488954E+02  0.83244164874E+02  0.00000000000E+00 0.  1.
         11    1    4    4    0    0  0.16765909509E+03  0.87640571825E+02  0.10632530574E+03  0.21701500555E+03  0.00000000000E+00 0. -1.
         21    1    1    2  502  501 -0.22705104887E+03 -0.19695997282E+03  0.15979192285E+03  0.34040985340E+03  0.00000000000E+00 0.  1.
<scales pt_clust_5="13000.00000" pt_clust_6="13000.00000" pt_clust_7="13000.00000" pt_clust_8="13000.00000" pt_clust_9="282.73084"></scales>
<clustering>
<clus scale="   80.164">  5  6 -1 -1</clus>
<clus scale="   91.351">  7  8 -1 -1</clus>
<clus scale="  123.162">  2  5  1 -1</clus>
<clus scale="  282.731">  1  9  2 -1</clus>
<clus scale="  282.731">  1  5  2 -1</clus>
</clustering>
</event>
<event>
 9    1  0.3298052E-005  0.3142467E+03  0.7546771E-02  0.1078682E+00
          1   -1    0    0  502    0  0.00000000000E+00  0.00000000000E+00  0.47013508447E+03  0.47013508447E+03  0.00000000000E+00 0. -1.
         -2   -1    0    0    0  501 -0.00000000000E+00 -0.00000000000E+00 -0.11543022641E+04  0.11543022641E+04  0.00000000000E+00 0.  1.
        -24    2    1    2    0    0  0.14991689891E+03  0.25908923817E+03 -0.10518911538E+04  0.10965707152E+04  0.79937626622E+02 0.  0.
         23    2    1    2    0    0 -0.18635457269E+03 -0.27010432334E+03  0.32640353948E+03  0.47168465672E+03  0.90899793999E+02 0.  0.
         13    1    3    3    0    0 -0.85580222322E+01  0.20319104400E+02 -0.53510073319E+02  0.57874292175E+02  0.00000000000E+00 0. -1.
        -14    1    3    3    0    0  0.15847492114E+03  0.23877013377E+03 -0.99838108048E+03  0.10386964231E+04  0.00000000000E+00 0.  1.
        -11    1    4    4    0    0 -0.91013726679E+01 -0.40929081012E+02  0.84180736221E+02  0.94044781926E+02  0.00000000000E+00 0.  1.
         11    1    4    4    0    0 -0.17725320002E+03 -0.22917524232E+03  0.24222280326E+03  0.37763987479E+03  0.00000000000E+00 0. -1.
         21    1    1    2  502  501  0.36437673782E+02  0.11015085168E+02  0.41320434701E+02  0.56181976610E+02  0.00000000000E+00 0. -1.
<scales pt_clust_5="13000.00000" pt_clust_6="13000.00000" pt_clust_7="13000.00000" pt_clust_8="13000.00000" pt_clust_9="38.06621"></scales>
<clustering>
<clus scale="   38.066">  1  9  2 -1</clus>
<clus scale="   79.938">  5  6 -1 -1</clus>
<clus scale="   90.900">  7  8 -1 -1</clus>
<clus scale="  311.253">  2  5  1 -1</clus>
<clus scale="   38.066">  1  5  2 -1</clus>
</clustering>
</event>
<event>
 9    1  0.2674825E-005  0.1157825E+03  0.7546771E-02  0.1252416E+00
          1   -1    0    0  502    0  0.00000000000E+00  0.00000000000E+00  0.21014886508E+03  0.21014886508E+03  0.00000000000E+00 0. -1.
         -2   -1    0    0    0  501 -0.00000000000E+00 -0.00000000000E+00 -0.28582831161E+03  0.28582831161E+03  0.00000000000E+00 0.  1.
        -24    2    1    2    0    0  0.77012778345E+02  0.10737840536E+02 -0.25024208505E+03  0.27407490615E+03  0.80309923454E+02 0.  0.
         23    2    1    2    0    0 -0.58959799132E+02 -0.20537951113E+02  0.10743028270E+03  0.15169753120E+03  0.87021893697E+02 0.  0.
         13    1    3    3    0    0  0.51324503576E+02  0.44039329098E+02 -0.12747834027E+03  0.14430659865E+03  0.00000000000E+00 0. -1.
        -14    1    3    3    0    0  0.25688274770E+02 -0.33301488563E+02 -0.12276374478E+03  0.12976830750E+03  0.00000000000E+00 0.  1.
        -13    1    4    4    0    0  0.45819253249E+01  0.27045255467E+02  0.22866693321E+02  0.35711700414E+02  0.00000000000E+00 0.  1.
         13    1    4    4    0    0 -0.63541724457E+02 -0.47583206580E+02  0.84563589380E+02  0.11598583079E+03  0.00000000000E+00 0. -1.
         21    1    1    2  502  501 -0.18052979213E+02  0.98001105771E+01  0.67132355825E+02  0.70204739330E+02  0.00000000000E+00 0. -1.
<scales pt_clust_5="13000.00000" pt_clust_6="13000.00000" pt_clust_7="13000.00000" pt_clust_8="13000.00000" pt_clust_9="20.54148"></scales>
<clustering>
<clus scale="   20.541">  1  9  2 -1</clus>
<clus scale="   80.310">  5  6 -1 -1</clus>
<clus scale="   87.022">  7  8 -1 -1</clus>
<clus scale="  110.826">  2  5  1 -1</clus>
<clus scale="   20.541">  1  5  2 -1</clus>
</clustering>
</event>
<event>
 9    1  0.2674825E-005  0.9687801E+02  0.7546771E-02  0.1292681E+00
         -4   -1    0    0    0  501 -0.00000000000E+00  0.00000000000E+00  0.16758415439E+03  0.16758415439E+03  0.00000000000E+00 0.  1.
          3   -1    0    0  502    0  0.00000000000E+00 -0.00000000000E+00 -0.11525458421E+03  0.11525458421E+03  0.00000000000E+00 0. -1.
         23    2    1    2    0    0 -0.44296951222E+02 -0.13189527711E+02  0.61262204313E+02  0.11902562431E+03  0.90982734828E+02 0.  0.
        -24    2    1    2    0    0  0.12314309735E+02 -0.46574824339E+02  0.73727102700E+01  0.94095602936E+02  0.80490801640E+02 0.  0.
         11    1    4    4    0    0 -0.33725462693E+01 -0.52004264569E+02 -0.24935832883E+02  0.57772081174E+02  0.00000000000E+00 0. -1.
        -12    1    4    4    0    0  0.15686856004E+02  0.54294402295E+01  0.32308543153E+02  0.36323521762E+02  0.00000000000E+00 0.  1.
        -11    1    3    3    0    0 -0.21271846989E+02  0.25741518733E+02  0.65577155399E+02  0.73589948846E+02  0.00000000000E+00 0.  1.
         11    1    3    3    0    0 -0.23025104233E+02 -0.38931046444E+02 -0.43149510854E+01  0.45435675466E+02  0.00000000000E+00 0. -1.
         21    1    1    2  502  501  0.31982641487E+02  0.59764352050E+02 -0.16305344409E+02  0.69717511349E+02  0.00000000000E+00 0.  1.
<scales pt_clust_5="13000.00000" pt_clust_6="13000.00000" pt_clust_7="13000.00000" pt_clust_8="13000.00000" pt_clust_9="67.78397"></scales>
<clustering>
<clus scale="   67.784">  2  9  1 -1</clus>
<clus scale="   80.491">  5  6 -1 -1</clus>
<clus scale="   87.099">  2  5  1 -1</clus>
<clus scale="   90.983">  7  8 -1 -1</clus>
<clus scale="   67.784">  2  5  1 -1</clus>
</clustering>
</event>
<event>
 9    1  0.2674825E-005  0.9625847E+02  0.7546771E-02  0.1289171E+00
          1   -1    0    0  502    0  0.00000000000E+00  0.00000000000E+00  0.41034251465E+03  0.41034251465E+03  0.00000000000E+00 0. -1.
         -2   -1    0    0    0  501 -0.00000000000E+00 -0.00000000000E+00 -0.35772946372E+02  0.35772946372E+02  0.00000000000E+00 0.  1.
        -24    2    1    2    0    0  0.39953785009E+02  0.13501562149E+02  0.74857581534E+02  0.12134547038E+03  0.85688205436E+02 0.  0.
         23    2    1    2    0    0 -0.26049220224E+02 -0.32770549437E+02  0.19902725990E+03  0.22131930185E+03  0.87280653086E+02 0.  0.
         13    1    3    3    0    0 -0.20687815520E+02 -0.15511395076E+02  0.33866589166E+02  0.42609094685E+02  0.00000000000E+00 0. -1.
        -14    1    3    3    0    0  0.60641600529E+02  0.29012957225E+02  0.40990992368E+02  0.78736375691E+02  0.00000000000E+00 0.  1.
        -11    1    4    4    0    0 -0.24421807550E+02 -0.62142126748E+02  0.12617574075E+03  0.14275288492E+03  0.00000000000E+00 0.  1.
         11    1    4    4    0    0 -0.16274126747E+01  0.29371577311E+02  0.72851519158E+02  0.78566416931E+02  0.00000000000E+00 0. -1.
         21    1    1    2  502  501 -0.13904564785E+02  0.19268987288E+02  0.10068472684E+03  0.10345068879E+03  0.00000000000E+00 0. -1.
<scales pt_clust_5="13000.00000" pt_clust_6="13000.00000" pt_clust_7="13000.00000" pt_clust_8="13000.00000" pt_clust_9="23.76196"></scales>
<clustering>
<clus scale="   23.762">  1  9  2 -1</clus>
<clus scale="   85.688">  5  6 -1 -1</clus>
<clus scale="   87.281">  7  8 -1 -1</clus>
<clus scale="   94.817">  2  5  1 -1</clus>
<clus scale="   23.762">  1  5  2 -1</clus>
</clustering>
</event>
<event>
 9    1  0.2674825E-005  0.9319178E+02  0.7546771E-02  0.1303301E+00
          1   -1    0    0  502    0  0.00000000000E+00  0.00000000000E+00  0.14794254654E+03  0.14794254654E+03  0.00000000000E+00 0. -1.
         -2   -1    0    0    0  501 -0.00000000000E+00 -0.00000000000E+00 -0.74262029116E+02  0.74262029116E+02  0.00000000000E+00 0.  1.
        -24    2    1    2    0    0  0.23971242770E+01  0.74204050242E+01 -0.53777817995E+01  0.80646618144E+02  0.80088375345E+02 0.  0.
         23    2    1    2    0    0 -0.16758877475E+02  0.97937186087E+01  0.61899989206E+02  0.11332688226E+03  0.92922530530E+02 0.  0.
         13    1    3    3    0    0  0.39085098957E+02  0.14578106584E+02  0.45727684611E+01  0.41965180370E+02  0.00000000000E+00 0. -1.
        -14    1    3    3    0    0 -0.36687974680E+02 -0.71577015601E+01 -0.99505502606E+01  0.38681437774E+02  0.00000000000E+00 0.  1.
        -11    1    4    4    0    0 -0.44575972062E+02 -0.12835433248E+02  0.58039029924E+01  0.46748806636E+02  0.00000000000E+00 0.  1.
         11    1    4    4    0    0  0.27817094587E+02  0.22629151857E+02  0.56096086214E+02  0.66578075622E+02  0.00000000000E+00 0. -1.
         21    1    1    2  502  501  0.14361753198E+02 -0.17214123633E+02  0.17158310019E+02  0.28231075256E+02  0.00000000000E+00 0.  1.
<scales pt_clust_5="13000.00000" pt_clust_6="13000.00000" pt_clust_7="13000.00000" pt_clust_8="13000.00000" pt_clust_9="22.41843"></scales>
<clustering>
<clus scale="   22.418">  1  9  2 -1</clus>
<clus scale="   80.088">  5  6 -1 -1</clus>
<clus scale="   80.401">  2  5  1 -1</clus>
<clus scale="   92.923">  7  8 -1 -1</clus>
<clus scale="   22.418">  1  5  2 -1</clus>
</clustering>
</event>
<event>
 9    1  0.2674825E-005  0.1465548E+03  0.7546771E-02  0.1205724E+00
         -2   -1    0    0    0  501 -0.00000000000E+00  0.00000000000E+00  0.14188834661E+03  0.14188834661E+03  0.00000000000E+00 0.  1.
          1   -1    0    0  502    0  0.00000000000E+00 -0.00000000000E+00 -0.31446683431E+03  0.31446683431E+03  0.00000000000E+00 0. -1.
        -24    2    1    2    0    0 -0.53646122742E+02  0.10431538916E+03  0.69155668159E+02  0.15867933552E+03  0.81467896622E+02 0.  0.
         23    2    1    2    0    0  0.74829323135E+02 -0.99739115219E+02 -0.21631956066E+03  0.26427566709E+03  0.86603447881E+02 0.  0.
         11    1    3    3    0    0 -0.32812463809E+02  0.16574814850E+02 -0.10633876706E+02  0.38268284549E+02  0.00000000000E+00 0. -1.
        -12    1    3    3    0    0 -0.20833658934E+02  0.87740574314E+02  0.79789544865E+02  0.12041105097E+03  0.00000000000E+00 0.  1.
        -11    1    4    4    0    0  0.47863145831E+02  0.33401975930E+00 -0.60689767338E+02  0.77293209000E+02  0.00000000000E+00 0.  1.
         11    1    4    4    0    0  0.26966177304E+02 -0.10007313498E+03 -0.15562979332E+03  0.18698245808E+03  0.00000000000E+00 0. -1.
         21    1    1    2  502  501 -0.21183200392E+02 -0.45762739448E+01 -0.25414595206E+02  0.33400178316E+02  0.00000000000E+00 0.  1.
<scales pt_clust_5="13000.00000" pt_clust_6="13000.00000" pt_clust_7="13000.00000" pt_clust_8="13000.00000" pt_clust_9="21.67188"></scales>
<clustering>
<clus scale="   21.672">  2  9  1 -1</clus>
<clus scale="   81.468">  5  6 -1 -1</clus>
<clus scale="   86.603">  7  8 -1 -1</clus>
<clus scale="  143.580">  1  5  2 -1</clus>
<clus scale="   21.672">  2  5  1 -1</clus>
</clustering>
</event>
<event>
 9    1  0.2674825E-005  0.1821005E+03  0.7546771E-02  0.1190241E+00
          1   -1    0    0  502    0  0.00000000000E+00  0.00000000000E+00  0.18510784418E+03  0.18510784418E+03  0.00000000000E+00 0. -1.
         -2   -1    0    0    0  501 -0.00000000000E+00 -0.00000000000E+00 -0.48593410150E+03  0.48593410150E+03  0.00000000000E+00 0.  1.
        -24    2    1    2    0    0 -0.10048257453E+03 -0.12671904622E+03 -0.31754528110E+03  0.36519332383E+03  0.79854203163E+02 0.  0.
         23    2    1    2    0    0 -0.46912682426E+02  0.23153929576E+02 -0.46778542118E+02  0.11484329199E+03  0.90905695560E+02 0.  0.
         11    1    3    3    0    0 -0.19574967983E+02 -0.12765622916E+02 -0.65978323771E+01  0.24283160669E+02  0.00000000000E+00 0. -1.
        -12    1    3    3    0    0 -0.80907606542E+02 -0.11395342330E+03 -0.31094744873E+03  0.34091016316E+03  0.00000000000E+00 0.  1.
        -11    1    4    4    0    0 -0.67313825128E+02  0.38963470313E+02 -0.27013948330E+02  0.82335025819E+02  0.00000000000E+00 0.  1.
         11    1    4    4    0    0  0.20401142702E+02 -0.15809540736E+02 -0.19764593788E+02  0.32508266171E+02  0.00000000000E+00 0. -1.
         21    1    1    2  502  501  0.14739525695E+03  0.10356511664E+03  0.63497565905E+02  0.19100532985E+03  0.00000000000E+00 0. -1.
<scales pt_clust_5="13000.00000" pt_clust_6="13000.00000" pt_clust_7="13000.00000" pt_clust_8="13000.00000" pt_clust_9="163.65782"></scales>
<clustering>
<clus scale="   79.854">  5  6 -1 -1</clus>
<clus scale="   90.906">  7  8 -1 -1</clus>
<clus scale="  104.884">  1  7  2 -1</clus>
<clus scale="  163.658">  1  9  2 -1</clus>
<clus scale="  104.884">  1  5  2 -1</clus>
</clustering>
</event>
<event>
 9    1  0.2674825E-005  0.1053735E+03  0.7546771E-02  0.1274116E+00
         -2   -1    0    0    0  501 -0.00000000000E+00  0.00000000000E+00  0.83753260993E+02  0.83753260993E+02  0.00000000000E+00 0.  1.
          1   -1    0    0  502    0  0.00000000000E+00 -0.00000000000E+00 -0.23445804748E+03  0.23445804748E+03  0.00000000000E+00 0. -1.
        -24    2    1    2    0    0 -0.70471381391E+02 -0.76301665409E+01 -0.69516567460E+02  0.12732897404E+03  0.79722515283E+02 0.  0.
         23    2    1    2    0    0  0.38360317989E+02  0.21369871547E+02 -0.10740381813E+03  0.14721131976E+03  0.90594741078E+02 0.  0.
         11    1    3    3    0    0 -0.66246210163E+01 -0.31198492354E+02 -0.44648546162E+02  0.54870066550E+02  0.00000000000E+00 0. -1.
        -12    1    3    3    0    0 -0.63846760375E+02  0.23568325813E+02 -0.24868021298E+02  0.72458907495E+02  0.00000000000E+00 0.  1.
        -13    1    4    4    0    0 -0.15472911492E+02 -0.16485284180E+02 -0.65254296477E+02  0.69060110000E+02  0.00000000000E+00 0. -1.
         13    1    4    4    0    0  0.53833229481E+02  0.37855155727E+02 -0.42149521648E+02  0.78151209758E+02  0.00000000000E+00 0.  1.
         21    1    1    2  502  501  0.32111063403E+02 -0.13739705006E+02  0.26215599096E+02  0.43671014672E+02  0.00000000000E+00 0.  1.
<scales pt_clust_5="13000.00000" pt_clust_6="13000.00000" pt_clust_7="13000.00000" pt_clust_8="13000.00000" pt_clust_9="34.92707"></scales>
<clustering>
<clus scale="   34.927">  1  9  2 -1</clus>
<clus scale="   79.723">  5  6 -1 -1</clus>
<clus scale="   90.595">  7  8 -1 -1</clus>
<clus scale="   96.187">  1  5  2 -1</clus>
<clus scale="  105.374">  2  5  1 -1</clus>
</clustering>
</event>
<event>
 9    1  0.2674825E-005  0.2164797E+03  0.7546771E-02  0.1136821E+00
         -2   -1    0    0    0  501 -0.00000000000E+00  0.00000000000E+00  0.30056000667E+03  0.30056000667E+03  0.00000000000E+00 0.  1.
          1   -1    0    0  502    0  0.00000000000E+00 -0.00000000000E+00 -0.25825567315E+03  0.25825567315E+03  0.00000000000E+00 0. -1.
        -24    2    1    2    0    0  0.67199206755E+02 -0.18616127047E+03  0.17125584026E+03  0.27438635582E+03  0.82386633765E+02 0.  0.
         23    2    1    2    0    0 -0.46566316665E+02  0.19612740969E+03 -0.85533349466E+02  0.23533577591E+03  0.86212475162E+02 0.  0.
         13    1    3    3    0    0  0.85805785074E+02 -0.13550584598E+03  0.12620019600E+03  0.20408565976E+03  0.00000000000E+00 0. -1.
        -14    1    3    3    0    0 -0.18606578319E+02 -0.50655424495E+02  0.45055644255E+02  0.70300696061E+02  0.00000000000E+00 0.  1.
        -11    1    4    4    0    0 -0.38790313220E+02  0.82433525844E+02 -0.79997670373E+02  0.12124191457E+03  0.00000000000E+00 0.  1.
         11    1    4    4    0    0 -0.77760034449E+01  0.11369388384E+03 -0.55356790927E+01  0.11409386134E+03  0.00000000000E+00 0. -1.
         21    1    1    2  502  501 -0.20632890090E+02 -0.99661392134E+01 -0.43418157268E+02  0.49093548098E+02  0.00000000000E+00 0. -1.
<scales pt_clust_5="13000.00000" pt_clust_6="13000.00000" pt_clust_7="13000.00000" pt_clust_8="13000.00000" pt_clust_9="22.91375"></scales>
<clustering>
<clus scale="   22.914">  2  9  1 -1</clus>
<clus scale="   82.387">  5  6 -1 -1</clus>
<clus scale="   86.212">  7  8 -1 -1</clus>
<clus scale="  214.985">  1  5  2 -1</clus>
<clus scale="   22.914">  2  5  1 -1</clus>
</clustering>
</event>
<event>
 9    1  0.2674825E-005  0.1252035E+03  0.7546771E-02  0.1243751E+00
         -2   -1    0    0    0  501 -0.00000000000E+00  0.00000000000E+00  0.17395982966E+03  0.17395982966E+03  0.00000000000E+00 0.  1.
          1   -1    0    0  502    0  0.00000000000E+00 -0.00000000000E+00 -0.24280645392E+03  0.24280645392E+03  0.00000000000E+00 0. -1.
         23    2    1    2    0    0 -0.37585829998E+02  0.49995657536E+02  0.12134947070E+03  0.17290323164E+03  0.10610171102E+03 0.  0.
        -24    2    1    2    0    0  0.53630709685E+02 -0.75348211304E+02 -0.14881854658E+03  0.19275246930E+03  0.80330247410E+02 0.  0.
         13    1    4    4    0    0  0.19926204400E+02  0.70255735453E+01 -0.72478489695E+02  0.75495322861E+02  0.00000000000E+00 0. -1.
        -14    1    4    4    0    0  0.33704505286E+02 -0.82373784849E+02 -0.76340056883E+02  0.11725714644E+03  0.00000000000E+00 0.  1.
        -11    1    3    3    0    0  0.20401339654E+02  0.51828055402E+02  0.92826105451E+02  0.10825455113E+03  0.00000000000E+00 0. -1.
         11    1    3    3    0    0 -0.57987169652E+02 -0.18323978654E+01  0.28523365252E+02  0.64648680509E+02  0.00000000000E+00 0.  1.
         21    1    1    2  502  501 -0.16044879688E+02  0.25352553767E+02 -0.41377548393E+02  0.51110582639E+02  0.00000000000E+00 0.  1.
<scales pt_clust_5="13000.00000" pt_clust_6="13000.00000" pt_clust_7="13000.00000" pt_clust_8="13000.00000" pt_clust_9="30.00317"></scales>
<clustering>
<clus scale="   30.003">  2  9  1 -1</clus>
<clus scale="   80.330">  5  6 -1 -1</clus>
<clus scale="  104.266">  2  5  1 -1</clus>
<clus scale="  106.102">  7  8 -1 -1</clus>
<clus scale="   30.003">  2  5  1 -1</clus>
</clustering>
</event>
<event>
 9    1  0.2674825E-005  0.1118261E+03  0.7546771E-02  0.1261519E+00
         -2   -1    0    0    0  501 -0.00000000000E+00  0.00000000000E+00  0.53550235684E+02  0.53550235684E+02  0.00000000000E+00 0.  1.
          1   -1    0    0  502    0  0.00000000000E+00 -0.00000000000E+00 -0.29181464683E+03  0.29181464683E+03  0.00000000000E+00 0. -1.
         23    2    1    2    0    0  0.24612553337E+02  0.61677286462E+02 -0.56910354670E+02  0.12691639962E+03  0.91973466696E+02 0.  0.
        -24    2    1    2    0    0 -0.38263667760E+02 -0.46547045770E+02 -0.15880644857E+03  0.18805651470E+03  0.80715728792E+02 0.  0.
         11    1    4    4    0    0 -0.26970970177E+02 -0.31415667573E+02 -0.16345024336E+03  0.16861304652E+03  0.00000000000E+00 0. -1.
        -12    1    4    4    0    0 -0.11292697583E+02 -0.15131378197E+02  0.46437947942E+01  0.19443468182E+02  0.00000000000E+00 0.  1.
        -13    1    3    3    0    0  0.26924113678E+02 -0.15781646137E+02 -0.33902023921E+02  0.46079447458E+02  0.00000000000E+00 0.  1.
         13    1    3    3    0    0 -0.23115603411E+01  0.77458932598E+02 -0.23008330750E+02  0.80836952159E+02  0.00000000000E+00 0. -1.
         21    1    1    2  502  501  0.13651114423E+02 -0.15130240692E+02 -0.22547607907E+02  0.30391968194E+02  0.00000000000E+00 0.  1.
<scales pt_clust_5="13000.00000" pt_clust_6="13000.00000" pt_clust_7="13000.00000" pt_clust_8="13000.00000" pt_clust_9="20.37835"></scales>
<clustering>
<clus scale="   20.378">  2  9  1 -1</clus>
<clus scale="   80.716">  5  6 -1 -1</clus>
<clus scale="   91.973">  7  8 -1 -1</clus>
<clus scale="  102.767">  2  5  1 -1</clus>
<clus scale="   20.378">  2  5  1 -1</clus>
</clustering>
</event>
<event>
 9    1  0.2674825E-005  0.1207028E+03  0.7546771E-02  0.1246340E+00
          1   -1    0    0  502    0  0.00000000000E+00  0.00000000000E+00  0.31186403017E+03  0.31186403017E+03  0.00000000000E+00 0. -1.
         -2   -1    0    0    0  501 -0.00000000000E+00 -0.00000000000E+00 -0.25800638514E+03  0.25800638514E+03  0.00000000000E+00 0.  1.
        -24    2    1    2    0    0 -0.77040564985E+02 -0.25429008397E+02 -0.22164818272E+03  0.24902095140E+03  0.79382833224E+02 0.  0.
         23    2    1    2    0    0  0.24795583469E+02  0.29688845630E+02  0.11994798889E+03  0.15669732247E+03  0.93114350746E+02 0.  0.
         11    1    3    3    0    0 -0.25502107054E+02 -0.45362934505E+02 -0.67260659588E+02  0.85042046185E+02  0.00000000000E+00 0. -1.
        -12    1    3    3    0    0 -0.51538457930E+02  0.19933926107E+02 -0.15438752313E+03  0.16397890522E+03  0.00000000000E+00 0.  1.
        -13    1    4    4    0    0  0.58153783042E+02  0.12152619243E+02  0.93040970842E+02  0.11039099099E+03  0.00000000000E+00 0. -1.
         13    1    4    4    0    0 -0.33358199572E+02  0.17536226387E+02  0.26907018051E+02  0.46306331478E+02  0.00000000000E+00 0.  1.
         21    1    1    2  502  501  0.52244981515E+02 -0.42598372327E+01  0.15555783887E+03  0.16415214144E+03  0.00000000000E+00 0. -1.
<scales pt_clust_5="13000.00000" pt_clust_6="13000.00000" pt_clust_7="13000.00000" pt_clust_8="13000.00000" pt_clust_9="52.41836"></scales>
<clustering>
<clus scale="   52.418">  1  9  2 -1</clus>
<clus scale="   79.383">  5  6 -1 -1</clus>
<clus scale="   93.114">  7  8 -1 -1</clus>
<clus scale="  110.456">  2  5  1 -1</clus>
<clus scale="   52.418">  1  5  2 -1</clus>
</clustering>
</event>
<event>
 9    1  0.2674825E-005  0.1877919E+03  0.7546771E-02  0.1160701E+00
         -2   -1    0    0    0  501 -0.00000000000E+00  0.00000000000E+00  0.31483173607E+03  0.31483173607E+03  0.00000000000E+00 0.  1.
          1   -1    0    0  502    0  0.00000000000E+00 -0.00000000000E+00 -0.16522594031E+03  0.16522594031E+03  0.00000000000E+00 0. -1.
         23    2    1    2    0    0 -0.13867172262E+02 -0.16794963773E+03  0.18342117063E+03  0.26404364444E+03  0.87614730801E+02 0.  0.
        -24    2    1    2    0    0  0.41362952861E+02  0.15177666573E+03 -0.33035056265E+02  0.18410491300E+03  0.89756637190E+02 0.  0.
         13    1    4    4    0    0  0.36498968470E+02  0.15625955774E+03 -0.48209736779E+02  0.16755119458E+03  0.00000000000E+00 0. -1.
        -14    1    4    4    0    0  0.48639843913E+01 -0.44828920102E+01  0.15174680514E+02  0.16553718423E+02  0.00000000000E+00 0.  1.
        -11    1    3    3    0    0 -0.33996149363E+00 -0.14005476587E+03  0.18611461068E+03  0.23292509810E+03  0.00000000000E+00 0.  1.
         11    1    3    3    0    0 -0.13527210769E+02 -0.27894871865E+02 -0.26934400414E+01  0.31118546348E+02  0.00000000000E+00 0. -1.
         21    1    1    2  502  501 -0.27495780599E+02  0.16172971999E+02 -0.78031860936E+00  0.31909118934E+02  0.00000000000E+00 0.  1.
<scales pt_clust_5="13000.00000" pt_clust_6="13000.00000" pt_clust_7="13000.00000" pt_clust_8="13000.00000" pt_clust_9="31.89958"></scales>
<clustering>
<clus scale="   31.900">  2  9  1 -1</clus>
<clus scale="   87.615">  7  8 -1 -1</clus>
<clus scale="   89.757">  5  6 -1 -1</clus>
<clus scale="  186.778">  1  7  2 -1</clus>
<clus scale="   31.900">  2  5  1 -1</clus>
</clustering>
</event>
<event>
 9    1  0.2674825E-005  0.1326672E+03  0.7546771E-02  0.1226786E+00
         -2   -1    0    0    0  501 -0.00000000000E+00  0.00000000000E+00  0.16068651821E+03  0.16068651821E+03  0.00000000000E+00 0.  1.
          1   -1    0    0  502    0  0.00000000000E+00 -0.00000000000E+00 -0.49277059504E+03  0.49277059504E+03  0.00000000000E+00 0. -1.
         23    2    1    2    0    0  0.34112852057E+02 -0.89745990397E+02  0.11936670908E+03  0.17851950548E+03  0.91666641329E+02 0.  0.
        -24    2    1    2    0    0 -0.54475566780E+02  0.80174621866E+02 -0.39064270116E+03  0.41010031588E+03  0.78644718527E+02 0.  0.
         11    1    4    4    0    0 -0.68181574707E+02  0.83265091290E+02 -0.36835097835E+03  0.38375023884E+03  0.00000000000E+00 0. -1.
        -12    1    4    4    0    0  0.13706007927E+02 -0.30904694247E+01 -0.22291722812E+02  0.26350077049E+02  0.00000000000E+00 0.  1.
        -11    1    3    3    0    0 -0.16530778487E+02 -0.34826309816E+02  0.10171088106E+01  0.38563882106E+02  0.00000000000E+00 0. -1.
         11    1    3    3    0    0  0.50643630544E+02 -0.54919680581E+02  0.11834960027E+03  0.13995562338E+03  0.00000000000E+00 0.  1.
         21    1    1    2  502  501  0.20362714724E+02  0.95713685310E+01 -0.60808084762E+02  0.64837291885E+02  0.00000000000E+00 0. -1.
<scales pt_clust_5="13000.00000" pt_clust_6="13000.00000" pt_clust_7="13000.00000" pt_clust_8="13000.00000" pt_clust_9="22.50003"></scales>
<clustering>
<clus scale="   22.500">  2  9  1 -1</clus>
<clus scale="   78.645">  5  6 -1 -1</clus>
<clus scale="   91.667">  7  8 -1 -1</clus>
<clus scale="  124.027">  2  5  1 -1</clus>
<clus scale="   22.500">  2  5  1 -1</clus>
</clustering>
</event>
<event>
 9    1  0.2674825E-005  0.1064793E+03  0.7546771E-02  0.1271272E+00
          1   -1    0    0  502    0  0.00000000000E+00  0.00000000000E+00  0.60969216743E+03  0.60969216743E+03  0.00000000000E+00 0. -1.
         -2   -1    0    0    0  501 -0.00000000000E+00 -0.00000000000E+00 -0.26148629101E+02  0.26148629101E+02  0.00000000000E+00 0.  1.
         23    2    1    2    0    0 -0.23020784157E+02  0.45648699218E+02  0.19412995622E+03  0.22017692357E+03  0.90430512146E+02 0.  0.
        -24    2    1    2    0    0 -0.10921339389E+01 -0.65430472066E+02  0.21930282015E+03  0.24271757294E+03  0.80844009414E+02 0.  0.
         13    1    4    4    0    0  0.32440817643E+02 -0.27153279997E+02  0.15524966674E+03  0.16091042939E+03  0.00000000000E+00 0. -1.
        -14    1    4    4    0    0 -0.33532951582E+02 -0.38277192069E+02  0.64053153414E+02  0.81807143555E+02  0.00000000000E+00 0.  1.
        -11    1    3    3    0    0 -0.56033358685E+02  0.31300095459E+02  0.94424837484E+02  0.11417304058E+03  0.00000000000E+00 0.  1.
         11    1    3    3    0    0  0.33012574528E+02  0.14348603759E+02  0.99705118738E+02  0.10600388299E+03  0.00000000000E+00 0. -1.
         21    1    1    2  502  501  0.24112918096E+02  0.19781772848E+02  0.17011076196E+03  0.17294630002E+03  0.00000000000E+00 0. -1.
<scales pt_clust_5="13000.00000" pt_clust_6="13000.00000" pt_clust_7="13000.00000" pt_clust_8="13000.00000" pt_clust_9="31.18896"></scales>
<clustering>
<clus scale="   31.189">  1  9  2 -1</clus>
<clus scale="   80.844">  5  6 -1 -1</clus>
<clus scale="   90.431">  7  8 -1 -1</clus>
<clus scale="   98.468">  1  5  2 -1</clus>
<clus scale="   31.189">  1  5  2 -1</clus>
</clustering>
</event>
<event>
 9    1  0.2674825E-005  0.9224060E+02  0.7546771E-02  0.1304734E+00
         -2   -1    0    0    0  501 -0.00000000000E+00  0.00000000000E+00  0.11941141800E+03  0.11941141800E+03  0.00000000000E+00 0.  1.
          1   -1    0    0  502    0  0.00000000000E+00 -0.00000000000E+00 -0.12380886494E+03  0.12380886494E+03  0.00000000000E+00 0. -1.
         23    2    1    2    0    0 -0.26935930117E+02  0.25927293392E+01  0.56867426762E+02  0.11130936498E+03  0.91780193557E+02 0.  0.
        -24    2    1    2    0    0  0.26845133973E+01  0.77037899123E+01 -0.67111891104E+02  0.10492319604E+03  0.80239118570E+02 0.  0.
         13    1    4    4    0    0  0.13426756936E+02  0.39991715971E+02 -0.53840038341E+02  0.68398573646E+02  0.00000000000E+00 0. -1.
        -14    1    4    4    0    0 -0.10742243539E+02 -0.32287926059E+02 -0.13271852763E+02  0.36524622396E+02  0.00000000000E+00 0.  1.
        -11    1    3    3    0    0 -0.51342707373E+02 -0.20921042944E+02  0.14982164411E+02  0.57430208852E+02  0.00000000000E+00 0.  1.
         11    1    3    3    0    0  0.24406777256E+02  0.23513772284E+02  0.41885262350E+02  0.53879156129E+02  0.00000000000E+00 0. -1.
         21    1    1    2  502  501  0.24251416720E+02 -0.10296519252E+02  0.58470174085E+01  0.26987721916E+02  0.00000000000E+00 0.  1.
<scales pt_clust_5="13000.00000" pt_clust_6="13000.00000" pt_clust_7="13000.00000" pt_clust_8="13000.00000" pt_clust_9="26.34672"></scales>
<clustering>
<clus scale="   26.347">  1  9  2 -1</clus>
<clus scale="   80.239">  5  6 -1 -1</clus>
<clus scale="   80.765">  2  5  1 -1</clus>
<clus scale="   91.780">  7  8 -1 -1</clus>
<clus scale="   80.765">  2  5  1 -1</clus>
</clustering>
</event>
<event>
 9    1  0.2674825E-005  0.1239326E+03  0.7546771E-02  0.1239185E+00
         -2   -1    0    0    0  501 -0.00000000000E+00  0.00000000000E+00  0.29499902265E+03  0.29499902265E+03  0.00000000000E+00 0.  1.
          1   -1    0    0  502    0  0.00000000000E+00 -0.00000000000E+00 -0.29821207792E+03  0.29821207792E+03  0.00000000000E+00 0. -1.
        -24    2    1    2    0    0  0.13785541994E+02 -0.83051539406E+02  0.24010538976E+03  0.26719390556E+03  0.81574417624E+02 0.  0.
         23    2    1    2    0    0  0.47841694129E+02  0.10420054936E+03 -0.13013681852E+03  0.19542133965E+03  0.90040692310E+02 0.  0.
         13    1    3    3    0    0  0.37592549308E+02 -0.19064024371E+02  0.51130508515E+02  0.66264362139E+02  0.00000000000E+00 0. -1.
        -14    1    3    3    0    0 -0.23807007314E+02 -0.63987515035E+02  0.18897488125E+03  0.20092954342E+03  0.00000000000E+00 0.  1.
        -11    1    4    4    0    0 -0.20103135345E+02  0.61670773458E+02 -0.48338742073E+02  0.80895329499E+02  0.00000000000E+00 0. -1.
         11    1    4    4    0    0  0.67944829474E+02  0.42529775904E+02 -0.81798076444E+02  0.11452601015E+03  0.00000000000E+00 0.  1.
         21    1    1    2  502  501 -0.61627236123E+02 -0.21149009956E+02 -0.11318162652E+03  0.13059585536E+03  0.00000000000E+00 0. -1.
<scales pt_clust_5="13000.00000" pt_clust_6="13000.00000" pt_clust_7="13000.00000" pt_clust_8="13000.00000" pt_clust_9="65.15518"></scales>
<clustering>
<clus scale="   65.155">  2  9  1 -1</clus>
<clus scale="   81.574">  5  6 -1 -1</clus>
<clus scale="   90.041">  7  8 -1 -1</clus>
<clus scale="  117.925">  1  5  2 -1</clus>
<clus scale="   65.155">  2  5  1 -1</clus>
</clustering>
</event>
<event>
 9    1  0.2674825E-005  0.3386295E+03  0.7546771E-02  0.1067818E+00
         -4   -1    0    0    0  501 -0.00000000000E+00  0.00000000000E+00  0.93387648516E+03  0.93387648516E+03  0.00000000000E+00 0.  1.
          3   -1    0    0  502    0  0.00000000000E+00 -0.00000000000E+00 -0.26848175236E+03  0.26848175236E+03  0.00000000000E+00 0. -1.
         23    2    1    2    0    0  0.24336041392E+03  0.22569560566E+03  0.71581740671E+03  0.79475736828E+03  0.95299093427E+02 0.  0.
        -24    2    1    2    0    0 -0.19816255924E+03 -0.22718260184E+03  0.32128460199E+02  0.31347464034E+03  0.79710587251E+02 0.  0.
         11    1    4    4    0    0 -0.78149089470E+02 -0.12398124063E+03 -0.17490253019E+02  0.14759585754E+03  0.00000000000E+00 0. -1.
        -12    1    4    4    0    0 -0.12001346977E+03 -0.10320136121E+03  0.49618713218E+02  0.16587878280E+03  0.00000000000E+00 0.  1.
        -13    1    3    3    0    0  0.21858074018E+03  0.22804304222E+03  0.69014211754E+03  0.75899757014E+03  0.00000000000E+00 0.  1.
         13    1    3    3    0    0  0.24779673737E+02 -0.23474365506E+01  0.25675289173E+02  0.35759798139E+02  0.00000000000E+00 0. -1.
         21    1    1    2  502  501 -0.45197854675E+02  0.14869961728E+01 -0.82551134107E+02  0.94126228902E+02  0.00000000000E+00 0. -1.
<scales pt_clust_5="13000.00000" pt_clust_6="13000.00000" pt_clust_7="13000.00000" pt_clust_8="13000.00000" pt_clust_9="45.22231"></scales>
<clustering>
<clus scale="   45.222">  2  9  1 -1</clus>
<clus scale="   79.711">  5  6 -1 -1</clus>
<clus scale="   95.299">  7  8 -1 -1</clus>
<clus scale="  334.577">  2  5  1 -1</clus>
<clus scale="   45.222">  2  5  1 -1</clus>
</clustering>
</event>
<event>
 9    1  0.2674825E-005  0.2288042E+03  0.7546771E-02  0.1149703E+00
         -2   -1    0    0    0  501 -0.00000000000E+00  0.00000000000E+00  0.47950147749E+03  0.47950147749E+03  0.00000000000E+00 0.  1.
          1   -1    0    0  502    0  0.00000000000E+00 -0.00000000000E+00 -0.20648018374E+03  0.20648018374E+03  0.00000000000E+00 0. -1.
        -24    2    1    2    0    0 -0.68766397967E+02 -0.81239719844E+02  0.74776217037E+02  0.15318027787E+03  0.80895026567E+02 0.  0.
         23    2    1    2    0    0  0.98508211404E+02 -0.14350593526E+03  0.23052410919E+03  0.30380985318E+03  0.94134163847E+02 0.  0.
         11    1    3    3    0    0 -0.28361682787E+02  0.10755223943E+02  0.31653100913E+02  0.43840377394E+02  0.00000000000E+00 0. -1.
        -12    1    3    3    0    0 -0.40404715180E+02 -0.91994943787E+02  0.43123116124E+02  0.10933990047E+03  0.00000000000E+00 0.  1.
        -11    1    4    4    0    0  0.94512112240E+02 -0.55122233538E+02  0.12714323272E+03  0.16773908792E+03  0.00000000000E+00 0.  1.
         11    1    4    4    0    0  0.39960991641E+01 -0.88383701722E+02  0.10338087648E+03  0.13607076526E+03  0.00000000000E+00 0. -1.
         21    1    1    2  502  501 -0.29741813437E+02  0.22474565510E+03 -0.32279032489E+02  0.22899153018E+03  0.00000000000E+00 0. -1.
<scales pt_clust_5="13000.00000" pt_clust_6="13000.00000" pt_clust_7="13000.00000" pt_clust_8="13000.00000" pt_clust_9="208.54288"></scales>
<clustering>
<clus scale="   80.895">  5  6 -1 -1</clus>
<clus scale="   94.134">  7  8 -1 -1</clus>
<clus scale="  133.689">  1  5  2 -1</clus>
<clus scale="  208.543">  2  9  1 -1</clus>
<clus scale="  208.543">  2  5  1 -1</clus>
</clustering>
</event>
<event>
 9    1  0.2674825E-005  0.1444354E+03  0.7546771E-02  0.1208485E+00
          1   -1    0    0  502    0  0.00000000000E+00  0.00000000000E+00  0.73712263936E+02  0.73712263936E+02  0.00000000000E+00 0. -1.
         -2   -1    0    0    0  501 -0.00000000000E+00 -0.00000000000E+00 -0.36859357978E+03  0.36859357978E+03  0.00000000000E+00 0.  1.
        -24    2    1    2    0    0  0.95968214171E+02  0.37486614662E+02 -0.15523502356E+03  0.20489766169E+03  0.85264264582E+02 0.  0.
         23    2    1    2    0    0 -0.11223839456E+03 -0.58464289511E+02 -0.14228191126E+03  0.21072994934E+03  0.90263164787E+02 0.  0.
         13    1    3    3    0    0  0.31021202885E+02  0.31389590791E+02 -0.93770531807E+01  0.45117076200E+02  0.00000000000E+00 0. -1.
        -14    1    3    3    0    0  0.64947011286E+02  0.60970238702E+01 -0.14585797038E+03  0.15978058549E+03  0.00000000000E+00 0.  1.
        -13    1    4    4    0    0 -0.32408468271E+02  0.22012528784E+02 -0.55668132129E+02  0.68072029307E+02  0.00000000000E+00 0.  1.
         13    1    4    4    0    0 -0.79829926290E+02 -0.80476818295E+02 -0.86613779127E+02  0.14265792004E+03  0.00000000000E+00 0. -1.
         21    1    1    2  502  501  0.16270180391E+02  0.20977674850E+02  0.26356189705E+01  0.26678232689E+02  0.00000000000E+00 0.  1.
<scales pt_clust_5="13000.00000" pt_clust_6="13000.00000" pt_clust_7="13000.00000" pt_clust_8="13000.00000" pt_clust_9="26.54772"></scales>
<clustering>
<clus scale="   26.548">  1  9  2 -1</clus>
<clus scale="   85.264">  5  6 -1 -1</clus>
<clus scale="   90.263">  7  8 -1 -1</clus>
<clus scale="  141.365">  2  5  1 -1</clus>
<clus scale="   26.548">  1  5  2 -1</clus>
</clustering>
</event>
<event>
 9    1  0.2674825E-005  0.8751870E+02  0.7546771E-02  0.1313054E+00
         -2   -1    0    0    0  501 -0.00000000000E+00  0.00000000000E+00  0.10214623233E+03  0.10214623233E+03  0.00000000000E+00 0.  1.
          1   -1    0    0  502    0  0.00000000000E+00 -0.00000000000E+00 -0.31675051534E+03  0.31675051534E+03  0.00000000000E+00 0. -1.
        -24    2    1    2    0    0 -0.32087722207E+01 -0.56907382352E+01  0.67531647421E+02  0.10557819699E+03  0.80892221850E+02 0.  0.
         23    2    1    2    0    0  0.38327792646E+02  0.38514072017E+01 -0.24126168949E+03  0.25939793953E+03  0.87156383550E+02 0.  0.
         11    1    3    3    0    0  0.14990093579E+02 -0.29563473923E+02  0.16589591367E+01  0.33188161162E+02  0.00000000000E+00 0. -1.
        -12    1    3    3    0    0 -0.18198865800E+02  0.23872735687E+02  0.65872688285E+02  0.72390035830E+02  0.00000000000E+00 0.  1.
        -13    1    4    4    0    0  0.30669255337E+02 -0.28138480912E+02 -0.48771233120E+02  0.64117162375E+02  0.00000000000E+00 0.  1.
         13    1    4    4    0    0  0.76585373088E+01  0.31989888113E+02 -0.19249045637E+03  0.19528077716E+03  0.00000000000E+00 0. -1.
         21    1    1    2  502  501 -0.35119020426E+02  0.18393310335E+01 -0.40874240940E+02  0.53920611150E+02  0.00000000000E+00 0.  1.
<scales pt_clust_5="13000.00000" pt_clust_6="13000.00000" pt_clust_7="13000.00000" pt_clust_8="13000.00000" pt_clust_9="35.16715"></scales>
<clustering>
<clus scale="   35.167">  2  9  1 -1</clus>
<clus scale="   80.892">  5  6 -1 -1</clus>
<clus scale="   81.282">  1  5  2 -1</clus>
<clus scale="   87.156">  7  8 -1 -1</clus>
<clus scale="   35.167">  2  5  1 -1</clus>
</clustering>
</event>
<event>
 9    1  0.2674825E-005  0.2119735E+03  0.7546771E-02  0.1142425E+00
          1   -1    0    0  502    0  0.00000000000E+00  0.00000000000E+00  0.10223778392E+04  0.10223778392E+04  0.00000000000E+00 0. -1.
         -2   -1    0    0    0  501 -0.00000000000E+00 -0.00000000000E+00 -0.82745222961E+02  0.82745222961E+02  0.00000000000E+00 0.  1.
        -24    2    1    2    0    0 -0.96285717816E+02 -0.16995057504E+03  0.87197591039E+02  0.22139663000E+03  0.57086867829E+02 0.  0.
         23    2    1    2    0    0  0.69120580082E+02  0.15901263826E+03  0.80109732346E+03  0.82462361675E+03  0.90468303489E+02 0.  0.
         13    1    3    3    0    0 -0.10170390689E+03 -0.13995141641E+03  0.75067054942E+02  0.18858723809E+03  0.00000000000E+00 0. -1.
        -14    1    3    3    0    0  0.54181890726E+01 -0.29999158636E+02  0.12130536096E+02  0.32809391913E+02  0.00000000000E+00 0.  1.
        -13    1    4    4    0    0 -0.11852973341E+02  0.75936164523E+02  0.38839138805E+03  0.39592254845E+03  0.00000000000E+00 0. -1.
         13    1    4    4    0    0  0.80973553423E+02  0.83076473734E+02  0.41270593541E+03  0.42870106830E+03  0.00000000000E+00 0.  1.
         21    1    1    2  502  501  0.27165137734E+02  0.10937936787E+02  0.51337701735E+02  0.59102815404E+02  0.00000000000E+00 0. -1.
<scales pt_clust_5="13000.00000" pt_clust_6="13000.00000" pt_clust_7="13000.00000" pt_clust_8="13000.00000" pt_clust_9="29.28452"></scales>
<clustering>
<clus scale="   29.285">  1  9  2 -1</clus>
<clus scale="   57.087">  5  6 -1 -1</clus>
<clus scale="   90.468">  7  8 -1 -1</clus>
<clus scale="  200.018">  2  5  1 -1</clus>
<clus scale="   29.285">  1  5  2 -1</clus>
</clustering>
</event>
<event>
 9    1  0.2674825E-005  0.1161033E+03  0.7546771E-02  0.1253092E+00
         -4   -1    0    0    0  501 -0.00000000000E+00  0.00000000000E+00  0.93640143884E+02  0.93640143884E+02  0.00000000000E+00 0.  1.
          3   -1    0    0  502    0  0.00000000000E+00 -0.00000000000E+00 -0.33847942763E+03  0.33847942763E+03  0.00000000000E+00 0. -1.
         23    2    1    2    0    0 -0.78761051427E+02 -0.96287990249E+01  0.29146289960E+02  0.12488126000E+03  0.91922825722E+02 0.  0.
        -24    2    1    2    0    0  0.38790429081E+02  0.22035535378E+02 -0.15328852448E+03  0.17949107886E+03  0.82033002179E+02 0.  0.
         13    1    4    4    0    0  0.21626459351E+02  0.48430132352E+02 -0.12977472820E+03  0.14019508388E+03  0.00000000000E+00 0. -1.
        -14    1    4    4    0    0  0.17163969730E+02 -0.26394596974E+02 -0.23513796272E+02  0.39295994980E+02  0.00000000000E+00 0.  1.
        -13    1    3    3    0    0 -0.54940723607E+02  0.37461650252E+02  0.27848504065E+02  0.72092978360E+02  0.00000000000E+00 0.  1.
         13    1    3    3    0    0 -0.23820327819E+02 -0.47090449277E+02  0.12977858948E+01  0.52788281642E+02  0.00000000000E+00 0. -1.
         21    1    1    2  502  501  0.39970622345E+02 -0.12406736353E+02 -0.12069704923E+03  0.12774723266E+03  0.00000000000E+00 0. -1.
<scales pt_clust_5="13000.00000" pt_clust_6="13000.00000" pt_clust_7="13000.00000" pt_clust_8="13000.00000" pt_clust_9="41.85185"></scales>
<clustering>
<clus scale="   41.852">  2  9  1 -1</clus>
<clus scale="   82.033">  5  6 -1 -1</clus>
<clus scale="   91.923">  7  8 -1 -1</clus>
<clus scale="  108.442">  2  5  1 -1</clus>
<clus scale="   41.852">  2  5  1 -1</clus>
</clustering>
</event>
<event>
 9    1  0.2674825E-005  0.1045255E+03  0.7546771E-02  0.1275902E+00
         -2   -1    0    0    0  501 -0.00000000000E+00  0.00000000000E+00  0.23366340239E+02  0.23366340239E+02  0.00000000000E+00 0.  1.
          1   -1    0    0  502    0  0.00000000000E+00 -0.00000000000E+00 -0.57517976421E+03  0.57517976421E+03  0.00000000000E+00 0. -1.
        -24    2    1    2    0    0 -0.17215647793E+02 -0.50555109382E+02 -0.17214108867E+03  0.19741041714E+03  0.80536456176E+02 0.  0.
         23    2    1    2    0    0  0.35408350070E+02  0.36856640640E+02 -0.33534776345E+03  0.35130306615E+03  0.91343081946E+02 0.  0.
         13    1    3    3    0    0 -0.24051750210E+02  0.15875537130E+02 -0.65868018104E+02  0.71896558862E+02  0.00000000000E+00 0. -1.
        -14    1    3    3    0    0  0.68361024162E+01 -0.66430646512E+02 -0.10627307056E+03  0.12551385827E+03  0.00000000000E+00 0.  1.
        -11    1    4    4    0    0  0.51612857178E+02 -0.33750254132E+01 -0.10667112889E+03  0.11854959959E+03  0.00000000000E+00 0.  1.
         11    1    4    4    0    0 -0.16204507108E+02  0.40231666054E+02 -0.22867663456E+03  0.23275346656E+03  0.00000000000E+00 0. -1.
         21    1    1    2  502  501 -0.18192702277E+02  0.13698468741E+02 -0.44324571854E+02  0.49832621163E+02  0.00000000000E+00 0.  1.
<scales pt_clust_5="13000.00000" pt_clust_6="13000.00000" pt_clust_7="13000.00000" pt_clust_8="13000.00000" pt_clust_9="22.77328"></scales>
<clustering>
<clus scale="   22.773">  1  9  2 -1</clus>
<clus scale="   80.536">  5  6 -1 -1</clus>
<clus scale="   91.343">  7  8 -1 -1</clus>
<clus scale="   95.227">  1  5  2 -1</clus>
<clus scale="  104.526">  2  5  1 -1</clus>
</clustering>
</event>
<event>
 9    1  0.2674825E-005  0.1148580E+03  0.7546771E-02  0.1255753E+00
          3   -1    0    0  502    0  0.00000000000E+00  0.00000000000E+00  0.81863478189E+03  0.81863478189E+03  0.00000000000E+00 0. -1.
         -4   -1    0    0    0  501 -0.00000000000E+00 -0.00000000000E+00 -0.91873638616E+02  0.91873638616E+02  0.00000000000E+00 0.  1.
        -24    2    1    2    0    0  0.11126561039E+02 -0.66893297550E+02 -0.50203312850E+02  0.11702973263E+03  0.81099149689E+02 0.  0.
         23    2    1    2    0    0 -0.39251325583E+02  0.79876551009E+02  0.66949384120E+03  0.68163281033E+03  0.92088841676E+02 0.  0.
         11    1    3    3    0    0 -0.33885172643E+02 -0.19203463335E+02 -0.10380612666E+02  0.40308002288E+02  0.00000000000E+00 0. -1.
        -12    1    3    3    0    0  0.45011733682E+02 -0.47689834214E+02 -0.39822700184E+02  0.76721730340E+02  0.00000000000E+00 0.  1.
        -13    1    4    4    0    0 -0.21626028850E+02 -0.18023797417E+02  0.12549073978E+03  0.12860975145E+03  0.00000000000E+00 0.  1.
         13    1    4    4    0    0 -0.17625296733E+02  0.97900348426E+02  0.54400310142E+03  0.55302305888E+03  0.00000000000E+00 0. -1.
         21    1    1    2  502  501  0.28124764544E+02 -0.12983253459E+02  0.10747061493E+03  0.11184587755E+03  0.00000000000E+00 0.  1.
<scales pt_clust_5="13000.00000" pt_clust_6="13000.00000" pt_clust_7="13000.00000" pt_clust_8="13000.00000" pt_clust_9="30.97688"></scales>
<clustering>
<clus scale="   30.977">  1  9  2 -1</clus>
<clus scale="   81.099">  5  6 -1 -1</clus>
<clus scale="   92.089">  7  8 -1 -1</clus>
<clus scale="  106.250">  2  5  1 -1</clus>
<clus scale="   30.977">  1  5  2 -1</clus>
</clustering>
</event>
<event>
 9    1  0.2674825E-005  0.1066146E+03  0.7546771E-02  0.1269402E+00
         -2   -1    0    0    0  501 -0.00000000000E+00  0.00000000000E+00  0.46126845177E+02  0.46126845177E+02  0.00000000000E+00 0.  1.
          1   -1    0    0  502    0  0.00000000000E+00 -0.00000000000E+00 -0.33629272267E+03  0.33629272267E+03  0.00000000000E+00 0. -1.
         23    2    1    2    0    0 -0.14067841360E+01 -0.77684646911E+02 -0.81018425542E+02  0.13663820395E+03  0.77904621775E+02 0.  0.
        -24    2    1    2    0    0 -0.11267837626E+02  0.58952302344E+02 -0.18922953596E+03  0.21564384331E+03  0.84214676631E+02 0.  0.
         13    1    4    4    0    0  0.36726189371E+02  0.26674879631E+02 -0.76855323534E+02  0.89258629525E+02  0.00000000000E+00 0. -1.
        -14    1    4    4    0    0 -0.47994026998E+02  0.32277422713E+02 -0.11237421243E+03  0.12638521379E+03  0.00000000000E+00 0.  1.
        -11    1    3    3    0    0  0.36541727976E+01 -0.44928362098E+02  0.41306681033E+01  0.45265584262E+02  0.00000000000E+00 0.  1.
         11    1    3    3    0    0 -0.50609569336E+01 -0.32756284813E+02 -0.85149093646E+02  0.91372619687E+02  0.00000000000E+00 0. -1.
         21    1    1    2  502  501  0.12674621762E+02  0.18732344567E+02 -0.19917915984E+02  0.30137520584E+02  0.00000000000E+00 0.  1.
<scales pt_clust_5="13000.00000" pt_clust_6="13000.00000" pt_clust_7="13000.00000" pt_clust_8="13000.00000" pt_clust_9="22.61740"></scales>
<clustering>
<clus scale="   22.617">  1  9  2 -1</clus>
<clus scale="   77.905">  7  8 -1 -1</clus>
<clus scale="   84.215">  5  6 -1 -1</clus>
<clus scale="  101.704">  1  7  2 -1</clus>
<clus scale="  106.615">  2  5  1 -1</clus>
</clustering>
</event>
<event>
 9    1  0.2674825E-005  0.1695776E+03  0.7546771E-02  0.1179287E+00
         -2   -1    0    0    0  501 -0.00000000000E+00  0.00000000000E+00  0.20030234314E+03  0.20030234314E+03  0.00000000000E+00 0.  1.
          1   -1    0    0  502    0  0.00000000000E+00 -0.00000000000E+00 -0.37768311568E+03  0.37768311568E+03  0.00000000000E+00 0. -1.
        -24    2    1    2    0    0 -0.99309115208E+02 -0.14483415258E+03  0.99434114207E+02  0.21838551946E+03  0.83461727317E+02 0.  0.
         23    2    1    2    0    0  0.43194712813E+02  0.63642951452E+02 -0.93058046812E+02  0.15101563142E+03  0.90717762171E+02 0.  0.
         11    1    3    3    0    0 -0.74507007609E+02 -0.51797185752E+02  0.18515316331E+02  0.92612415871E+02  0.00000000000E+00 0. -1.
        -12    1    3    3    0    0 -0.24802107599E+02 -0.93036966827E+02  0.80918797875E+02  0.12577310359E+03  0.00000000000E+00 0.  1.
        -11    1    4    4    0    0  0.59186528684E+01  0.78512861096E+02 -0.59199015292E+02  0.98507985569E+02  0.00000000000E+00 0. -1.
         11    1    4    4    0    0  0.37276059945E+02 -0.14869909644E+02 -0.33859031520E+02  0.52507645856E+02  0.00000000000E+00 0.  1.
         21    1    1    2  502  501  0.56114402395E+02  0.81191201127E+02 -0.18375683993E+03  0.20858430794E+03  0.00000000000E+00 0. -1.
<scales pt_clust_5="13000.00000" pt_clust_6="13000.00000" pt_clust_7="13000.00000" pt_clust_8="13000.00000" pt_clust_9="98.69568"></scales>
<clustering>
<clus scale="   83.462">  5  6 -1 -1</clus>
<clus scale="   90.718">  7  8 -1 -1</clus>
<clus scale="   98.696">  2  9  1 -1</clus>
<clus scale="  165.809">  1  5  2 -1</clus>
<clus scale="   98.696">  2  5  1 -1</clus>
</clustering>
</event>
<event>
 9    1  0.2674825E-005  0.1091168E+03  0.7546771E-02  0.1266589E+00
         -2   -1    0    0    0  501 -0.00000000000E+00  0.00000000000E+00  0.60408663199E+02  0.60408663199E+02  0.00000000000E+00 0.  1.
          1   -1    0    0  502    0  0.00000000000E+00 -0.00000000000E+00 -0.43292988956E+03  0.43292988956E+03  0.00000000000E+00 0. -1.
         23    2    1    2    0    0  0.62532757149E+02 -0.59677195570E+01 -0.25818495370E+02  0.11395812787E+03  0.91509020385E+02 0.  0.
        -24    2    1    2    0    0 -0.51629205606E+02 -0.26950757847E+02 -0.15232443430E+03  0.18193312606E+03  0.80653647479E+02 0.  0.
         13    1    4    4    0    0 -0.45170339703E+02 -0.33309110601E+02 -0.16031200690E+03  0.16985227698E+03  0.00000000000E+00 0. -1.
        -14    1    4    4    0    0 -0.64588659031E+01  0.63583527542E+01  0.79875725981E+01  0.12080849081E+02  0.00000000000E+00 0.  1.
        -13    1    3    3    0    0 -0.13990916095E+02 -0.27664559191E+02 -0.11914840925E+02  0.33212000883E+02  0.00000000000E+00 0. -1.
         13    1    3    3    0    0  0.76523673245E+02  0.21696839634E+02 -0.13903654444E+02  0.80746126990E+02  0.00000000000E+00 0.  1.
         21    1    1    2  502  501 -0.10903551543E+02  0.32918477404E+02 -0.19437829669E+03  0.19744729883E+03  0.00000000000E+00 0. -1.
<scales pt_clust_5="13000.00000" pt_clust_6="13000.00000" pt_clust_7="13000.00000" pt_clust_8="13000.00000" pt_clust_9="34.67728"></scales>
<clustering>
<clus scale="   34.677">  2  9  1 -1</clus>
<clus scale="   80.654">  5  6 -1 -1</clus>
<clus scale="   91.509">  7  8 -1 -1</clus>
<clus scale="  100.188">  2  5  1 -1</clus>
<clus scale="   34.677">  2  5  1 -1</clus>
</clustering>
</event>
<event>
 9    1  0.2674825E-005  0.1409507E+03  0.7546771E-02  0.1214613E+00
         -2   -1    0    0    0  501 -0.00000000000E+00  0.00000000000E+00  0.19190819464E+03  0.19190819464E+03  0.00000000000E+00 0.  1.
          1   -1    0    0  502    0  0.00000000000E+00 -0.00000000000E+00 -0.71929817580E+03  0.71929817580E+03  0.00000000000E+00 0. -1.
        -24    2    1    2    0    0  0.20338826554E+02 -0.10630270545E+03  0.15827971282E+03  0.20767739171E+03  0.79771539305E+02 0.  0.
         23    2    1    2    0    0  0.34498830777E+01  0.83839144671E+02 -0.51879627650E+03  0.53347824591E+03  0.91698192325E+02 0.  0.
         13    1    3    3    0    0 -0.62284850805E+01 -0.26784291154E+02  0.10453345162E+03  0.10808993841E+03  0.00000000000E+00 0. -1.
        -14    1    3    3    0    0  0.26567311635E+02 -0.79518414301E+02  0.53746261206E+02  0.99587453296E+02  0.00000000000E+00 0.  1.
        -13    1    4    4    0    0 -0.20577213257E+02 -0.11869325864E+02 -0.68674529162E+02  0.72667004600E+02  0.00000000000E+00 0.  1.
         13    1    4    4    0    0  0.24027096335E+02  0.95708470535E+02 -0.45012174734E+03  0.46081124131E+03  0.00000000000E+00 0. -1.
         21    1    1    2  502  501 -0.23788709632E+02  0.22463560783E+02 -0.16687341748E+03  0.17005073282E+03  0.00000000000E+00 0.  1.
<scales pt_clust_5="13000.00000" pt_clust_6="13000.00000" pt_clust_7="13000.00000" pt_clust_8="13000.00000" pt_clust_9="32.71871"></scales>
<clustering>
<clus scale="   32.719">  2  9  1 -1</clus>
<clus scale="   79.772">  5  6 -1 -1</clus>
<clus scale="   91.698">  7  8 -1 -1</clus>
<clus scale="  133.499">  1  5  2 -1</clus>
<clus scale="   32.719">  2  5  1 -1</clus>
</clustering>
</event>
<event>
 9    1  0.2674825E-005  0.1062426E+03  0.7546771E-02  0.1269006E+00
          1   -1    0    0  502    0  0.00000000000E+00  0.00000000000E+00  0.24021811329E+03  0.24021811329E+03  0.00000000000E+00 0. -1.
         -2   -1    0    0    0  501 -0.00000000000E+00 -0.00000000000E+00 -0.14009429377E+03  0.14009429377E+03  0.00000000000E+00 0.  1.
        -24    2    1    2    0    0 -0.76112298956E+02  0.28538550804E+02 -0.85854267281E+02  0.14235692938E+03  0.79290662741E+02 0.  0.
         23    2    1    2    0    0  0.13132255943E+02 -0.36301411660E+02  0.10373630018E+03  0.13407834211E+03  0.75667253246E+02 0.  0.
         11    1    3    3    0    0 -0.11239150408E+02 -0.19304684950E+02 -0.48741677290E+02  0.53616606270E+02  0.00000000000E+00 0. -1.
        -12    1    3    3    0    0 -0.64873148548E+02  0.47843235753E+02 -0.37112589991E+02  0.88740323110E+02  0.00000000000E+00 0.  1.
        -11    1    4    4    0    0 -0.37007157407E+01  0.22590623580E+02  0.36875587164E+02  0.43403231440E+02  0.00000000000E+00 0. -1.
         11    1    4    4    0    0  0.16832971684E+02 -0.58892035240E+02  0.66860713019E+02  0.90675110675E+02  0.00000000000E+00 0.  1.
         21    1    1    2  502  501  0.62980043012E+02  0.77628608563E+01  0.82241786621E+02  0.10387713556E+03  0.00000000000E+00 0. -1.
<scales pt_clust_5="13000.00000" pt_clust_6="13000.00000" pt_clust_7="13000.00000" pt_clust_8="13000.00000" pt_clust_9="63.45666"></scales>
<clustering>
<clus scale="   63.457">  1  9  2 -1</clus>
<clus scale="   75.667">  7  8 -1 -1</clus>
<clus scale="   79.291">  5  6 -1 -1</clus>
<clus scale="  103.566">  1  7  2 -1</clus>
<clus scale="   63.457">  1  5  2 -1</clus>
</clustering>
</event>
<event>
 9    1  0.2674825E-005  0.1016980E+03  0.7546771E-02  0.1281128E+00
          1   -1    0    0  502    0  0.00000000000E+00  0.00000000000E+00  0.19328606023E+03  0.19328606023E+03  0.00000000000E+00 0. -1.
         -2   -1    0    0    0  501 -0.00000000000E+00 -0.00000000000E+00 -0.82197603472E+02  0.82197603472E+02  0.00000000000E+00 0.  1.
        -24    2    1    2    0    0 -0.34721535442E+02  0.66450469395E+01  0.51935429197E+01  0.88697693787E+02  0.81182303015E+02 0.  0.
         23    2    1    2    0    0  0.72335920358E+02 -0.92571372099E+01  0.79613505329E+02  0.14082536285E+03  0.90417324825E+02 0.  0.
         11    1    3    3    0    0 -0.11591461898E+01 -0.30715404637E+02  0.19594762267E+02  0.36451809423E+02  0.00000000000E+00 0. -1.
        -12    1    3    3    0    0 -0.33562389252E+02  0.37360451577E+02 -0.14401219347E+02  0.52245884364E+02  0.00000000000E+00 0.  1.
        -11    1    4    4    0    0  0.44483041849E+02 -0.18159221260E+02 -0.77773952917E+01  0.48672232396E+02  0.00000000000E+00 0.  1.
         11    1    4    4    0    0  0.27852878509E+02  0.89020840497E+01  0.87390900621E+02  0.92153130457E+02  0.00000000000E+00 0. -1.
         21    1    1    2  502  501 -0.37614384916E+02  0.26120902703E+01  0.26281408508E+02  0.45960607061E+02  0.00000000000E+00 0.  1.
<scales pt_clust_5="13000.00000" pt_clust_6="13000.00000" pt_clust_7="13000.00000" pt_clust_8="13000.00000" pt_clust_9="37.70497"></scales>
<clustering>
<clus scale="   37.705">  1  9  2 -1</clus>
<clus scale="   81.182">  5  6 -1 -1</clus>
<clus scale="   90.417">  7  8 -1 -1</clus>
<clus scale="   93.583">  2  5  1 -1</clus>
<clus scale="   37.705">  1  5  2 -1</clus>
</clustering>
</event>
<event>
 9    1  0.2674825E-005  0.1066491E+03  0.7546771E-02  0.1271217E+00
          1   -1    0    0  502    0  0.00000000000E+00  0.00000000000E+00  0.59736848652E+02  0.59736848652E+02  0.00000000000E+00 0. -1.
         -2   -1    0    0    0  501 -0.00000000000E+00 -0.00000000000E+00 -0.25294944466E+03  0.25294944466E+03  0.00000000000E+00 0.  1.
         23    2    1    2    0    0  0.25186445135E+02  0.42208445363E+02 -0.12846811004E+03  0.16492235958E+03  0.90991315596E+02 0.  0.
        -24    2    1    2    0    0 -0.50078576475E+02 -0.45889249247E+02 -0.62073803000E+02  0.12245980230E+03  0.80805687566E+02 0.  0.
         13    1    4    4    0    0 -0.31320752784E+02 -0.19463170938E+02  0.14256209611E+02  0.39535352413E+02  0.00000000000E+00 0. -1.
        -14    1    4    4    0    0 -0.18757823691E+02 -0.26426078309E+02 -0.76330012611E+02  0.82924449891E+02  0.00000000000E+00 0.  1.
        -13    1    3    3    0    0 -0.22571402473E+02  0.11551126341E+01 -0.85708229165E+00  0.22617185608E+02  0.00000000000E+00 0. -1.
         13    1    3    3    0    0  0.47757847608E+02  0.41053332729E+02 -0.12761102775E+03  0.14230517397E+03  0.00000000000E+00 0.  1.
         21    1    1    2  502  501  0.24892131340E+02  0.36808038838E+01 -0.26706829698E+01  0.25304131429E+02  0.00000000000E+00 0.  1.
<scales pt_clust_5="13000.00000" pt_clust_6="13000.00000" pt_clust_7="13000.00000" pt_clust_8="13000.00000" pt_clust_9="25.16280"></scales>
<clustering>
<clus scale="   25.163">  1  9  2 -1</clus>
<clus scale="   80.806">  5  6 -1 -1</clus>
<clus scale="   90.991">  7  8 -1 -1</clus>
<clus scale="   98.103">  1  5  2 -1</clus>
<clus scale="   25.163">  1  5  2 -1</clus>
</clustering>
</event>
<event>
 9    1  0.2674825E-005  0.9643813E+02  0.7546771E-02  0.1291317E+00
         -2   -1    0    0    0  501 -0.00000000000E+00  0.00000000000E+00  0.62687160264E+02  0.62687160264E+02  0.00000000000E+00 0.  1.
          1   -1    0    0  502    0  0.00000000000E+00 -0.00000000000E+00 -0.24040226237E+03  0.24040226237E+03  0.00000000000E+00 0. -1.
         23    2    1    2    0    0  0.15718952459E+02 -0.31269140922E+02 -0.82594011282E+01  0.95000158784E+02  0.87931608775E+02 0.  0.
        -24    2    1    2    0    0 -0.15901799386E+02  0.52481603447E+02 -0.15013461583E+03  0.17939594876E+03  0.81457459068E+02 0.  0.
         11    1    4    4    0    0  0.27955616547E+02  0.40215175760E+02 -0.10190196692E+03  0.11306099115E+03  0.00000000000E+00 0. -1.
        -12    1    4    4    0    0 -0.43857415933E+02  0.12266427688E+02 -0.48232648913E+02  0.66334957615E+02  0.00000000000E+00 0.  1.
        -11    1    3    3    0    0  0.52277182679E+02 -0.13616379889E+02 -0.37024626203E+01  0.54148110397E+02  0.00000000000E+00 0. -1.
         11    1    3    3    0    0 -0.36558230220E+02 -0.17652761033E+02 -0.45569385080E+01  0.40852048388E+02  0.00000000000E+00 0.  1.
         21    1    1    2  502  501  0.18284692750E+00 -0.21212462526E+02 -0.19321085144E+02  0.28693315085E+02  0.00000000000E+00 0. -1.
<scales pt_clust_5="13000.00000" pt_clust_6="13000.00000" pt_clust_7="13000.00000" pt_clust_8="13000.00000" pt_clust_9="21.21325"></scales>
<clustering>
<clus scale="   21.213">  2  9  1 -1</clus>
<clus scale="   81.457">  5  6 -1 -1</clus>
<clus scale="   87.932">  7  8 -1 -1</clus>
<clus scale="   90.574">  2  5  1 -1</clus>
<clus scale="   21.213">  2  5  1 -1</clus>
</clustering>
</event>
<event>
 9    1  0.2674825E-005  0.1743493E+03  0.7546771E-02  0.1176359E+00
         -2   -1    0    0    0  501 -0.00000000000E+00  0.00000000000E+00  0.68244362114E+03  0.68244362114E+03  0.00000000000E+00 0.  1.
          1   -1    0    0  502    0  0.00000000000E+00 -0.00000000000E+00 -0.63227760075E+02  0.63227760075E+02  0.00000000000E+00 0. -1.
         23    2    1    2    0    0  0.13913929084E+03  0.13843091391E+02  0.33758132671E+03  0.37608271354E+03  0.89026298633E+02 0.  0.
        -24    2    1    2    0    0 -0.16559441856E+03  0.28255335838E+02  0.25823219851E+03  0.31463577256E+03  0.63968160563E+02 0.  0.
         11    1    4    4    0    0 -0.14298127817E+03  0.44609775115E+01  0.18090674428E+03  0.23063129960E+03  0.00000000000E+00 0. -1.
        -12    1    4    4    0    0 -0.22613140394E+02  0.23794358326E+02  0.77325454221E+02  0.84004472959E+02  0.00000000000E+00 0.  1.
        -11    1    3    3    0    0  0.34175728231E+02 -0.33132367527E+02  0.13489304825E+03  0.14304498819E+03  0.00000000000E+00 0.  1.
         11    1    3    3    0    0  0.10496356261E+03  0.46975458918E+02  0.20268827845E+03  0.23303772535E+03  0.00000000000E+00 0. -1.
         21    1    1    2  502  501  0.26455127726E+02 -0.42098427229E+02  0.23402335847E+02  0.54952895112E+02  0.00000000000E+00 0.  1.
<scales pt_clust_5="13000.00000" pt_clust_6="13000.00000" pt_clust_7="13000.00000" pt_clust_8="13000.00000" pt_clust_9="49.72073"></scales>
<clustering>
<clus scale="   49.721">  2  9  1 -1</clus>
<clus scale="   63.968">  5  6 -1 -1</clus>
<clus scale="   89.026">  7  8 -1 -1</clus>
<clus scale="  162.984">  2  5  1 -1</clus>
<clus scale="   49.721">  2  5  1 -1</clus>
</clustering>
</event>
<event>
 9    1  0.2674825E-005  0.1226886E+03  0.7546771E-02  0.1251330E+00
         -2   -1    0    0    0  501 -0.00000000000E+00  0.00000000000E+00  0.13727280954E+03  0.13727280954E+03  0.00000000000E+00 0.  1.
          1   -1    0    0  502    0  0.00000000000E+00 -0.00000000000E+00 -0.13917727209E+03  0.13917727209E+03  0.00000000000E+00 0. -1.
        -24    2    1    2    0    0  0.48418291760E+01  0.54342189741E+02  0.71027881521E+02  0.12038963409E+03  0.80449904575E+02 0.  0.
         23    2    1    2    0    0 -0.11732482985E+02 -0.35242539892E+02 -0.61945208697E+02  0.13297376571E+03  0.11164732738E+03 0.  0.
         13    1    3    3    0    0  0.11648914915E+02 -0.18393529287E+02  0.59926647739E+01  0.22581655595E+02  0.00000000000E+00 0. -1.
        -14    1    3    3    0    0 -0.68070857387E+01  0.72735719029E+02  0.65035216748E+02  0.97807978490E+02  0.00000000000E+00 0.  1.
        -11    1    4    4    0    0  0.28423406353E+02  0.24009374682E+02  0.16255778606E+01  0.37242215357E+02  0.00000000000E+00 0.  1.
         11    1    4    4    0    0 -0.40155889337E+02 -0.59251914574E+02 -0.63570786557E+02  0.95731550351E+02  0.00000000000E+00 0. -1.
         21    1    1    2  502  501  0.68906538086E+01 -0.19099649849E+02 -0.10987135376E+02  0.23086681832E+02  0.00000000000E+00 0.  1.
<scales pt_clust_5="13000.00000" pt_clust_6="13000.00000" pt_clust_7="13000.00000" pt_clust_8="13000.00000" pt_clust_9="20.30462"></scales>
<clustering>
<clus scale="   20.305">  2  9  1 -1</clus>
<clus scale="   80.450">  5  6 -1 -1</clus>
<clus scale="   95.182">  1  5  2 -1</clus>
<clus scale="  111.647">  7  8 -1 -1</clus>
<clus scale="   20.305">  2  5  1 -1</clus>
</clustering>
</event>
<event>
 9    1  0.2674825E-005  0.1280765E+03  0.7546771E-02  0.1232471E+00
          1   -1    0    0  502    0  0.00000000000E+00  0.00000000000E+00  0.21887091631E+03  0.21887091631E+03  0.00000000000E+00 0. -1.
         -2   -1    0    0    0  501 -0.00000000000E+00 -0.00000000000E+00 -0.99865937221E+02  0.99865937221E+02  0.00000000000E+00 0.  1.
         23    2    1    2    0    0  0.96743375378E+02  0.34133456291E+02  0.12965401003E+02  0.13679632314E+03  0.89558689605E+02 0.  0.
        -24    2    1    2    0    0 -0.72603668275E+02 -0.29075996726E+02  0.55813840585E+02  0.12598583386E+03  0.81489504230E+02 0.  0.
         11    1    4    4    0    0 -0.52350993634E+02 -0.12127549554E+02  0.75765505985E+02  0.92887651977E+02  0.00000000000E+00 0. -1.
        -12    1    4    4    0    0 -0.20252674642E+02 -0.16948447172E+02 -0.19951665400E+02  0.33098181882E+02  0.00000000000E+00 0.  1.
        -11    1    3    3    0    0  0.34094261247E+02  0.15864013863E+02 -0.38401117990E+02  0.53746920365E+02  0.00000000000E+00 0.  1.
         11    1    3    3    0    0  0.62649114131E+02  0.18269442428E+02  0.51366518993E+02  0.83049402777E+02  0.00000000000E+00 0. -1.
         21    1    1    2  502  501 -0.24139707103E+02 -0.50574595651E+01  0.50225737500E+02  0.55954696529E+02  0.00000000000E+00 0.  1.
<scales pt_clust_5="13000.00000" pt_clust_6="13000.00000" pt_clust_7="13000.00000" pt_clust_8="13000.00000" pt_clust_9="24.66381"></scales>
<clustering>
<clus scale="   24.664">  1  9  2 -1</clus>
<clus scale="   81.490">  5  6 -1 -1</clus>
<clus scale="   89.559">  7  8 -1 -1</clus>
<clus scale="  122.570">  1  5  2 -1</clus>
<clus scale="   24.664">  1  5  2 -1</clus>
</clustering>
</event>
<event>
 9    1  0.2674825E-005  0.1015888E+03  0.7546771E-02  0.1281557E+00
          1   -1    0    0  502    0  0.00000000000E+00  0.00000000000E+00  0.22449169527E+03  0.22449169527E+03  0.00000000000E+00 0. -1.
         -2   -1    0    0    0  501 -0.00000000000E+00 -0.00000000000E+00 -0.18730680239E+03  0.18730680239E+03  0.00000000000E+00 0.  1.
        -24    2    1    2    0    0  0.16607524751E+02 -0.47868968375E+02 -0.15217458802E+03  0.17842919171E+03  0.78183266765E+02 0.  0.
         23    2    1    2    0    0 -0.37698221359E+02  0.39140376337E+02  0.11108860674E+03  0.15183811226E+03  0.88096588095E+02 0.  0.
         11    1    3    3    0    0 -0.30941672239E+02 -0.11492301848E+02 -0.47474733094E+02  0.57821365991E+02  0.00000000000E+00 0. -1.
        -12    1    3    3    0    0  0.47549196991E+02 -0.36376666528E+02 -0.10469985493E+03  0.12060782572E+03  0.00000000000E+00 0.  1.
        -13    1    4    4    0    0 -0.10381864343E+02  0.47673338582E+02  0.11307386976E+03  0.12315124986E+03  0.00000000000E+00 0. -1.
         13    1    4    4    0    0 -0.27316357016E+02 -0.85329622446E+01 -0.19852630196E+01  0.28686862404E+02  0.00000000000E+00 0.  1.
         21    1    1    2  502  501  0.21090696608E+02  0.87285920379E+01  0.78270874154E+02  0.81531193682E+02  0.00000000000E+00 0.  1.
<scales pt_clust_5="13000.00000" pt_clust_6="13000.00000" pt_clust_7="13000.00000" pt_clust_8="13000.00000" pt_clust_9="22.82555"></scales>
<clustering>
<clus scale="   22.826">  1  9  2 -1</clus>
<clus scale="   78.183">  5  6 -1 -1</clus>
<clus scale="   88.097">  7  8 -1 -1</clus>
<clus scale="   93.123">  2  5  1 -1</clus>
<clus scale="   22.826">  1  5  2 -1</clus>
</clustering>
</event>
<event>
 9    1  0.2674825E-005  0.8982852E+02  0.7546771E-02  0.1317560E+00
          3   -1    0    0  502    0  0.00000000000E+00  0.00000000000E+00  0.36877083988E+03  0.36877083988E+03  0.00000000000E+00 0. -1.
         -4   -1    0    0    0  501 -0.00000000000E+00 -0.00000000000E+00 -0.37101511465E+02  0.37101511465E+02  0.00000000000E+00 0.  1.
        -24    2    1    2    0    0  0.24045687008E+01 -0.70273969530E+01  0.19757462486E+02  0.71693244517E+02  0.68515675046E+02 0.  0.
         23    2    1    2    0    0 -0.17488130776E+02  0.24644876464E+02  0.27397871862E+03  0.28971774052E+03  0.89212253986E+02 0.  0.
         13    1    3    3    0    0 -0.31603637624E+02 -0.12175642827E+02  0.14728409004E+02  0.36931859161E+02  0.00000000000E+00 0. -1.
        -14    1    3    3    0    0  0.34008206324E+02  0.51482458742E+01  0.50290534821E+01  0.34761385357E+02  0.00000000000E+00 0.  1.
        -11    1    4    4    0    0  0.22481439062E+02  0.27341447764E+02  0.44962155245E+02  0.57223817352E+02  0.00000000000E+00 0.  1.
         11    1    4    4    0    0 -0.39969569837E+02 -0.26965713001E+01  0.22901656337E+03  0.23249392316E+03  0.00000000000E+00 0. -1.
         21    1    1    2  502  501  0.15083562075E+02 -0.17617479511E+02  0.37933147313E+02  0.44461366311E+02  0.00000000000E+00 0. -1.
<scales pt_clust_5="13000.00000" pt_clust_6="13000.00000" pt_clust_7="13000.00000" pt_clust_8="13000.00000" pt_clust_9="23.19244"></scales>
<clustering>
<clus scale="   23.192">  1  9  2 -1</clus>
<clus scale="   68.516">  5  6 -1 -1</clus>
<clus scale="   69.316">  2  5  1 -1</clus>
<clus scale="   89.212">  7  8 -1 -1</clus>
<clus scale="   23.192">  1  5  2 -1</clus>
</clustering>
</event>
<event>
 9    1  0.2674825E-005  0.9627656E+02  0.7546771E-02  0.1298899E+00
         -2   -1    0    0    0  501 -0.00000000000E+00  0.00000000000E+00  0.74436228876E+02  0.74436228876E+02  0.00000000000E+00 0.  1.
          1   -1    0    0  502    0  0.00000000000E+00 -0.00000000000E+00 -0.21268435999E+03  0.21268435999E+03  0.00000000000E+00 0. -1.
        -24    2    1    2    0    0  0.16847854674E+02  0.13391092955E+02  0.26886143455E+02  0.84205726273E+02  0.76841187196E+02 0.  0.
         23    2    1    2    0    0 -0.10715370262E+02  0.70073114372E+01 -0.12212374462E+03  0.15491894659E+03  0.94455012774E+02 0.  0.
         11    1    3    3    0    0 -0.25484625710E+02 -0.11423417834E+02  0.20668534854E+02  0.34744049211E+02  0.00000000000E+00 0. -1.
        -12    1    3    3    0    0  0.42332480383E+02  0.24814510789E+02  0.62176086012E+01  0.49461677062E+02  0.00000000000E+00 0.  1.
        -13    1    4    4    0    0  0.79236033169E+01 -0.33904077659E+02 -0.97779731920E+02  0.10379376641E+03  0.00000000000E+00 0.  1.
         13    1    4    4    0    0 -0.18638973579E+02  0.40911389096E+02 -0.24344012705E+02  0.51125180180E+02  0.00000000000E+00 0. -1.
         21    1    1    2  502  501 -0.61324844120E+01 -0.20398404392E+02 -0.43010529946E+02  0.47995916004E+02  0.00000000000E+00 0.  1.
<scales pt_clust_5="13000.00000" pt_clust_6="13000.00000" pt_clust_7="13000.00000" pt_clust_8="13000.00000" pt_clust_9="21.30029"></scales>
<clustering>
<clus scale="   21.300">  2  9  1 -1</clus>
<clus scale="   76.841">  5  6 -1 -1</clus>
<clus scale="   79.070">  1  5  2 -1</clus>
<clus scale="   94.455">  7  8 -1 -1</clus>
<clus scale="   21.300">  2  5  1 -1</clus>
</clustering>
</event>
<event>
 9    1  0.2674825E-005  0.1069640E+03  0.7546771E-02  0.1270331E+00
         -2   -1    0    0    0  501 -0.00000000000E+00  0.00000000000E+00  0.12112956665E+03  0.12112956665E+03  0.00000000000E+00 0.  1.
          1   -1    0    0  502    0  0.00000000000E+00 -0.00000000000E+00 -0.27295961031E+03  0.27295961031E+03  0.00000000000E+00 0. -1.
        -24    2    1    2    0    0 -0.49845991269E+02  0.18248405475E+02  0.60299431050E+02  0.11533492580E+03  0.82755643775E+02 0.  0.
         23    2    1    2    0    0  0.37709229154E+02 -0.58198970170E+02 -0.80582799407E+02  0.14074020696E+03  0.92223165220E+02 0.  0.
         11    1    3    3    0    0 -0.66323932654E+02 -0.88850364786E+00  0.60938785876E+02  0.90073243005E+02  0.00000000000E+00 0. -1.
        -12    1    3    3    0    0  0.16477941385E+02  0.19136909123E+02 -0.63935482638E+00  0.25261682796E+02  0.00000000000E+00 0.  1.
        -11    1    4    4    0    0  0.32328380357E+02 -0.13496275996E+02 -0.88357019145E+02  0.95048600592E+02  0.00000000000E+00 0. -1.
         11    1    4    4    0    0  0.53808487973E+01 -0.44702694174E+02  0.77742197382E+01  0.45691606370E+02  0.00000000000E+00 0.  1.
         21    1    1    2  502  501  0.12136762114E+02  0.39950564695E+02 -0.13154667530E+03  0.13801404420E+03  0.00000000000E+00 0. -1.
<scales pt_clust_5="13000.00000" pt_clust_6="13000.00000" pt_clust_7="13000.00000" pt_clust_8="13000.00000" pt_clust_9="41.75343"></scales>
<clustering>
<clus scale="   41.753">  2  9  1 -1</clus>
<clus scale="   82.756">  5  6 -1 -1</clus>
<clus scale="   92.223">  7  8 -1 -1</clus>
<clus scale="   98.918">  1  5  2 -1</clus>
<clus scale="   41.753">  2  5  1 -1</clus>
</clustering>
</event>
<event>
 9    1  0.2674825E-005  0.1247926E+03  0.7546771E-02  0.1239107E+00
         -2   -1    0    0    0  501 -0.00000000000E+00  0.00000000000E+00  0.22044782694E+02  0.22044782694E+02  0.00000000000E+00 0.  1.
          1   -1    0    0  502    0  0.00000000000E+00 -0.00000000000E+00 -0.10131360076E+04  0.10131360076E+04  0.00000000000E+00 0. -1.
        -24    2    1    2    0    0  0.16527446223E+02  0.64007895329E+02 -0.17261550844E+03  0.20182053989E+03  0.81026226779E+02 0.  0.
         23    2    1    2    0    0 -0.13279706112E+02 -0.87963789588E+02 -0.74218195689E+03  0.75332794170E+03  0.93567899093E+02 0.  0.
         13    1    3    3    0    0  0.35783876394E+02  0.92207519514E+01 -0.11172403482E+03  0.11767653986E+03  0.00000000000E+00 0. -1.
        -14    1    3    3    0    0 -0.19256430172E+02  0.54787143377E+02 -0.60891473617E+02  0.84144000033E+02  0.00000000000E+00 0.  1.
        -13    1    4    4    0    0  0.35809618133E+01 -0.10503282235E+03 -0.59874932621E+03  0.60790251908E+03  0.00000000000E+00 0. -1.
         13    1    4    4    0    0 -0.16860667925E+02  0.17069032766E+02 -0.14343263068E+03  0.14542542262E+03  0.00000000000E+00 0.  1.
         21    1    1    2  502  501 -0.32477401107E+01  0.23955894260E+02 -0.76293759593E+02  0.80032308716E+02  0.00000000000E+00 0. -1.
<scales pt_clust_5="13000.00000" pt_clust_6="13000.00000" pt_clust_7="13000.00000" pt_clust_8="13000.00000" pt_clust_9="24.17504"></scales>
<clustering>
<clus scale="   24.175">  1  9  2 -1</clus>
<clus scale="   81.026">  5  6 -1 -1</clus>
<clus scale="   93.568">  7  8 -1 -1</clus>
<clus scale="  115.687">  1  5  2 -1</clus>
<clus scale="  124.793">  2  5  1 -1</clus>
</clustering>
</event>
<event>
 9    1  0.2674825E-005  0.1566921E+03  0.7546771E-02  0.1203375E+00
          1   -1    0    0  502    0  0.00000000000E+00  0.00000000000E+00  0.73049224514E+03  0.73049224514E+03  0.00000000000E+00 0. -1.
         -2   -1    0    0    0  501 -0.00000000000E+00 -0.00000000000E+00 -0.82618335788E+02  0.82618335788E+02  0.00000000000E+00 0.  1.
         23    2    1    2    0    0 -0.11896254901E+03  0.12409057284E+02  0.72041337297E+02  0.16636076749E+03  0.90442677478E+02 0.  0.
        -24    2    1    2    0    0 -0.34822473880E+02 -0.86792166184E+02  0.23613964571E+03  0.26652098187E+03  0.80783765078E+02 0.  0.
         11    1    4    4    0    0 -0.14260621259E+02 -0.81714491418E+02  0.10564421643E+03  0.13431799542E+03  0.00000000000E+00 0. -1.
        -12    1    4    4    0    0 -0.20561852621E+02 -0.50776747665E+01  0.13049542928E+03  0.13220298645E+03  0.00000000000E+00 0.  1.
        -11    1    3    3    0    0 -0.46902133665E+02  0.28458112342E+02  0.74468979133E+02  0.92494881769E+02  0.00000000000E+00 0. -1.
         11    1    3    3    0    0 -0.72060415344E+02 -0.16049055057E+02 -0.24276418362E+01  0.73865885716E+02  0.00000000000E+00 0.  1.
         21    1    1    2  502  501  0.15378502289E+03  0.74383108900E+02  0.33969292634E+03  0.38022883158E+03  0.00000000000E+00 0. -1.
<scales pt_clust_5="13000.00000" pt_clust_6="13000.00000" pt_clust_7="13000.00000" pt_clust_8="13000.00000" pt_clust_9="127.95522"></scales>
<clustering>
<clus scale="   80.784">  5  6 -1 -1</clus>
<clus scale="   90.443">  7  8 -1 -1</clus>
<clus scale="  123.578">  1  5  2 -1</clus>
<clus scale="  127.955">  1  9  2 -1</clus>
<clus scale="  123.578">  1  5  2 -1</clus>
</clustering>
</event>
<event>
 9    1  0.2674825E-005  0.1462367E+03  0.7546771E-02  0.1207429E+00
          1   -1    0    0  502    0  0.00000000000E+00  0.00000000000E+00  0.12355472047E+03  0.12355472047E+03  0.00000000000E+00 0. -1.
         -2   -1    0    0    0  501 -0.00000000000E+00 -0.00000000000E+00 -0.59232564527E+03  0.59232564527E+03  0.00000000000E+00 0.  1.
         23    2    1    2    0    0 -0.11634648213E+03 -0.47410146702E+01 -0.51859582402E+03  0.53943395363E+03  0.92132407557E+02 0.  0.
        -24    2    1    2    0    0  0.94754087789E+02 -0.20955121382E+02  0.13423869239E+02  0.12693320291E+03  0.80711730687E+02 0.  0.
         11    1    4    4    0    0  0.10822652321E+03 -0.12263914542E+02  0.17681312899E+02  0.11034497157E+03  0.00000000000E+00 0. -1.
        -12    1    4    4    0    0 -0.13472435417E+02 -0.86912068402E+01 -0.42574436606E+01  0.16588231338E+02  0.00000000000E+00 0.  1.
        -11    1    3    3    0    0 -0.85734738781E+02 -0.35853695144E+02 -0.43828625024E+03  0.44802987628E+03  0.00000000000E+00 0.  1.
         11    1    3    3    0    0 -0.30611743347E+02  0.31112680473E+02 -0.80309573779E+02  0.91404077357E+02  0.00000000000E+00 0. -1.
         21    1    1    2  502  501  0.21592394340E+02  0.25696136053E+02  0.36401029977E+02  0.49513209195E+02  0.00000000000E+00 0. -1.
<scales pt_clust_5="13000.00000" pt_clust_6="13000.00000" pt_clust_7="13000.00000" pt_clust_8="13000.00000" pt_clust_9="33.56371"></scales>
<clustering>
<clus scale="   33.564">  1  9  2 -1</clus>
<clus scale="   80.712">  5  6 -1 -1</clus>
<clus scale="   92.132">  7  8 -1 -1</clus>
<clus scale="  139.324">  1  5  2 -1</clus>
<clus scale="   33.564">  1  5  2 -1</clus>
</clustering>
</event>
<event>
 9    1  0.2674825E-005  0.1043251E+03  0.7546771E-02  0.1281460E+00
          1   -1    0    0  502    0  0.00000000000E+00  0.00000000000E+00  0.33957668149E+03  0.33957668149E+03  0.00000000000E+00 0. -1.
         -2   -1    0    0    0  501 -0.00000000000E+00 -0.00000000000E+00 -0.98234064169E+02  0.98234064169E+02  0.00000000000E+00 0.  1.
         23    2    1    2    0    0  0.94472609612E+01  0.34436081721E+02 -0.53593011723E+02  0.11747455646E+03  0.98249509135E+02 0.  0.
        -24    2    1    2    0    0  0.19798790736E+02 -0.35088889033E+02  0.26084450467E+03  0.27541445216E+03  0.78676823762E+02 0.  0.
         11    1    4    4    0    0 -0.39879341458E+01 -0.55484440401E+02  0.14195407497E+03  0.15246437665E+03  0.00000000000E+00 0. -1.
        -12    1    4    4    0    0  0.23786724882E+02  0.20395551369E+02  0.11889042969E+03  0.12295007551E+03  0.00000000000E+00 0.  1.
        -11    1    3    3    0    0  0.23596272042E+02  0.14444355364E+02  0.23677756489E+02  0.36415101380E+02  0.00000000000E+00 0. -1.
         11    1    3    3    0    0 -0.14149011080E+02  0.19991726356E+02 -0.77270768212E+02  0.81059455077E+02  0.00000000000E+00 0.  1.
         21    1    1    2  502  501 -0.29246051698E+02  0.65280731200E+00  0.34091124378E+02  0.44921737040E+02  0.00000000000E+00 0. -1.
<scales pt_clust_5="13000.00000" pt_clust_6="13000.00000" pt_clust_7="13000.00000" pt_clust_8="13000.00000" pt_clust_9="29.25334"></scales>
<clustering>
<clus scale="   29.253">  1  9  2 -1</clus>
<clus scale="   78.677">  5  6 -1 -1</clus>
<clus scale="   86.144">  1  5  2 -1</clus>
<clus scale="   98.250">  7  8 -1 -1</clus>
<clus scale="   29.253">  1  5  2 -1</clus>
</clustering>
</event>
<event>
 9    1  0.2674825E-005  0.1247177E+03  0.7546771E-02  0.1240592E+00
          1   -1    0    0  502    0  0.00000000000E+00  0.00000000000E+00  0.37281702559E+03  0.37281702559E+03  0.00000000000E+00 0. -1.
         -2   -1    0    0    0  501 -0.00000000000E+00 -0.00000000000E+00 -0.12712265642E+03  0.12712265642E+03  0.00000000000E+00 0.  1.
        -24    2    1    2    0    0 -0.36945087080E+02 -0.55850927497E+02 -0.69392429905E+02  0.14258199864E+03  0.10502405175E+03 0.  0.
         23    2    1    2    0    0  0.69953937979E+02  0.35799860993E+02  0.28272892661E+03  0.30697255248E+03  0.90118358545E+02 0.  0.
         13    1    3    3    0    0 -0.16627464360E+02 -0.36161071048E+02  0.22990499835E+02  0.45963667315E+02  0.00000000000E+00 0. -1.
        -14    1    3    3    0    0 -0.20317622720E+02 -0.19689856449E+02 -0.92382929740E+02  0.96618331322E+02  0.00000000000E+00 0.  1.
        -13    1    4    4    0    0  0.97232159589E+00  0.34172380708E+02  0.18002488582E+03  0.18324207084E+03  0.00000000000E+00 0.  1.
         13    1    4    4    0    0  0.68981616383E+02  0.16274802846E+01  0.10270404079E+03  0.12373048164E+03  0.00000000000E+00 0. -1.
         21    1    1    2  502  501 -0.33008850899E+02  0.20051066504E+02  0.32357872463E+02  0.50385130902E+02  0.00000000000E+00 0. -1.
<scales pt_clust_5="13000.00000" pt_clust_6="13000.00000" pt_clust_7="13000.00000" pt_clust_8="13000.00000" pt_clust_9="38.62162"></scales>
<clustering>
<clus scale="   38.622">  1  9  2 -1</clus>
<clus scale="   90.118">  7  8 -1 -1</clus>
<clus scale="  105.024">  5  6 -1 -1</clus>
<clus scale="  112.453">  1  7  2 -1</clus>
<clus scale="   38.622">  1  5  2 -1</clus>
</clustering>
</event>
<event>
 9    1  0.2674825E-005  0.9260455E+02  0.7546771E-02  0.1303026E+00
         -4   -1    0    0    0  501 -0.00000000000E+00  0.00000000000E+00  0.10809244736E+03  0.10809244736E+03  0.00000000000E+00 0.  1.
          3   -1    0    0  502    0  0.00000000000E+00 -0.00000000000E+00 -0.54357626917E+03  0.54357626917E+03  0.00000000000E+00 0. -1.
         23    2    1    2    0    0 -0.53469921671E+01  0.44037543611E+00  0.79275673732E+02  0.12183137445E+03  0.92355114098E+02 0.  0.
        -24    2    1    2    0    0  0.36444869220E+02  0.42485110638E+01 -0.43307421022E+03  0.44230706472E+03  0.82073074820E+02 0.  0.
         11    1    4    4    0    0 -0.17302758099E+02  0.26539098942E+02 -0.15848769699E+03  0.16162320164E+03  0.00000000000E+00 0. -1.
        -12    1    4    4    0    0  0.53747627319E+02 -0.22290587878E+02 -0.27458651322E+03  0.28068386308E+03  0.00000000000E+00 0.  1.
        -13    1    3    3    0    0  0.38010984049E+02 -0.18858395086E+02  0.23171998787E+02  0.48346825143E+02  0.00000000000E+00 0.  1.
         13    1    3    3    0    0 -0.43357976216E+02  0.19298770522E+02  0.56103674945E+02  0.73484549312E+02  0.00000000000E+00 0. -1.
         21    1    1    2  502  501 -0.31097877053E+02 -0.46888864999E+01 -0.81685285325E+02  0.87530277347E+02  0.00000000000E+00 0. -1.
<scales pt_clust_5="13000.00000" pt_clust_6="13000.00000" pt_clust_7="13000.00000" pt_clust_8="13000.00000" pt_clust_9="31.44938"></scales>
<clustering>
<clus scale="   31.449">  2  9  1 -1</clus>
<clus scale="   82.073">  5  6 -1 -1</clus>
<clus scale="   82.354">  2  5  1 -1</clus>
<clus scale="   92.355">  7  8 -1 -1</clus>
<clus scale="   31.449">  2  5  1 -1</clus>
</clustering>
</event>
<event>
 9    1  0.2674825E-005  0.1035738E+03  0.7546771E-02  0.1274072E+00
          1   -1    0    0  502    0  0.00000000000E+00  0.00000000000E+00  0.56016130436E+03  0.56016130436E+03  0.00000000000E+00 0. -1.
         -2   -1    0    0    0  501 -0.00000000000E+00 -0.00000000000E+00 -0.15962162716E+03  0.15962162716E+03  0.00000000000E+00 0.  1.
        -24    2    1    2    0    0  0.13789292151E+02 -0.41233822556E+02 -0.12078134104E+03  0.15854954478E+03  0.93056182533E+02 0.  0.
         23    2    1    2    0    0  0.16579243680E+02  0.72432227258E+02  0.16562339627E+03  0.20288106471E+03  0.90599769093E+02 0.  0.
         11    1    3    3    0    0  0.51192649802E+01  0.20538398783E+02  0.15595177495E+01  0.21224155911E+02  0.00000000000E+00 0. -1.
        -12    1    3    3    0    0  0.86700271705E+01 -0.61772221339E+02 -0.12234085879E+03  0.13732538887E+03  0.00000000000E+00 0.  1.
        -13    1    4    4    0    0  0.47522810456E+01  0.91840735861E+02  0.11395304037E+03  0.14643292099E+03  0.00000000000E+00 0.  1.
         13    1    4    4    0    0  0.11826962635E+02 -0.19408508602E+02  0.51670355899E+02  0.56448143726E+02  0.00000000000E+00 0. -1.
         21    1    1    2  502  501 -0.30368535831E+02 -0.31198404703E+02  0.35569762196E+03  0.35835232202E+03  0.00000000000E+00 0. -1.
<scales pt_clust_5="13000.00000" pt_clust_6="13000.00000" pt_clust_7="13000.00000" pt_clust_8="13000.00000" pt_clust_9="43.53836"></scales>
<clustering>
<clus scale="   43.538">  1  9  2 -1</clus>
<clus scale="   90.600">  7  8 -1 -1</clus>
<clus scale="   93.056">  5  6 -1 -1</clus>
<clus scale="  101.373">  1  7  2 -1</clus>
<clus scale="   43.538">  1  5  2 -1</clus>
</clustering>
</event>
<event>
 9    1  0.2674825E-005  0.1576086E+03  0.7546771E-02  0.1193275E+00
         -2   -1    0    0    0  501 -0.00000000000E+00  0.00000000000E+00  0.10145679576E+03  0.10145679576E+03  0.00000000000E+00 0.  1.
          1   -1    0    0  502    0  0.00000000000E+00 -0.00000000000E+00 -0.95855512098E+03  0.95855512098E+03  0.00000000000E+00 0. -1.
         23    2    1    2    0    0  0.68408132208E+02  0.12185362359E+03 -0.28225710319E+01  0.16758353655E+03  0.92456999105E+02 0.  0.
        -24    2    1    2    0    0  0.43271264843E+01 -0.10346740404E+03 -0.24123718069E+03  0.27481623367E+03  0.81267196460E+02 0.  0.
         11    1    4    4    0    0 -0.25658874665E+02 -0.89604465367E+02 -0.13885708842E+03  0.16723824045E+03  0.00000000000E+00 0. -1.
        -12    1    4    4    0    0  0.29986001149E+02 -0.13862938671E+02 -0.10238009227E+03  0.10757799323E+03  0.00000000000E+00 0.  1.
        -11    1    3    3    0    0  0.25076610707E+02 -0.10725341802E+02  0.56231115165E+01  0.27847598540E+02  0.00000000000E+00 0. -1.
         11    1    3    3    0    0  0.43331521501E+02  0.13257896539E+03 -0.84456825484E+01  0.13973593801E+03  0.00000000000E+00 0.  1.
         21    1    1    2  502  501 -0.72735258692E+02 -0.18386219548E+02 -0.61303857350E+03  0.61761214652E+03  0.00000000000E+00 0. -1.
<scales pt_clust_5="13000.00000" pt_clust_6="13000.00000" pt_clust_7="13000.00000" pt_clust_8="13000.00000" pt_clust_9="75.02314"></scales>
<clustering>
<clus scale="   75.023">  2  9  1 -1</clus>
<clus scale="   81.267">  5  6 -1 -1</clus>
<clus scale="   92.457">  7  8 -1 -1</clus>
<clus scale="  151.316">  2  5  1 -1</clus>
<clus scale="   75.023">  2  5  1 -1</clus>
</clustering>
</event>
<event>
 9    1  0.2674825E-005  0.1287199E+03  0.7546771E-02  0.1233079E+00
          1   -1    0    0  502    0  0.00000000000E+00  0.00000000000E+00  0.68845094252E+03  0.68845094252E+03  0.00000000000E+00 0. -1.
         -2   -1    0    0    0  501 -0.00000000000E+00 -0.00000000000E+00 -0.32849755941E+02  0.32849755941E+02  0.00000000000E+00 0.  1.
        -24    2    1    2    0    0  0.17237673977E+02  0.88943282934E+02  0.17103741799E+03  0.20955208052E+03  0.80313330857E+02 0.  0.
         23    2    1    2    0    0 -0.41470798067E+02 -0.75981194204E+02  0.31347382369E+03  0.33846552791E+03  0.93808882720E+02 0.  0.
         13    1    3    3    0    0  0.18679052408E+02  0.93751934531E+02  0.17735829589E+03  0.20148026540E+03  0.00000000000E+00 0. -1.
        -14    1    3    3    0    0 -0.14413784307E+01 -0.48086515974E+01 -0.63208778924E+01  0.80718151178E+01  0.00000000000E+00 0.  1.
        -11    1    4    4    0    0 -0.60361686136E+02 -0.13993014698E+02  0.17309652358E+03  0.18385250634E+03  0.00000000000E+00 0.  1.
         11    1    4    4    0    0  0.18890888069E+02 -0.61988179507E+02  0.14037730011E+03  0.15461302156E+03  0.00000000000E+00 0. -1.
         21    1    1    2  502  501  0.24233124090E+02 -0.12962088729E+02  0.17108994489E+03  0.17328309003E+03  0.00000000000E+00 0.  1.
<scales pt_clust_5="13000.00000" pt_clust_6="13000.00000" pt_clust_7="13000.00000" pt_clust_8="13000.00000" pt_clust_9="27.48199"></scales>
<clustering>
<clus scale="   27.482">  1  9  2 -1</clus>
<clus scale="   80.313">  5  6 -1 -1</clus>
<clus scale="   93.809">  7  8 -1 -1</clus>
<clus scale="  119.243">  2  5  1 -1</clus>
<clus scale="   27.482">  1  5  2 -1</clus>
</clustering>
</event>
<event>
 9    1  0.2674825E-005  0.1501836E+03  0.7546771E-02  0.1201547E+00
          1   -1    0    0  502    0  0.00000000000E+00  0.00000000000E+00  0.10891777238E+04  0.10891777238E+04  0.00000000000E+00 0. -1.
         -2   -1    0    0    0  501 -0.00000000000E+00 -0.00000000000E+00 -0.58339006176E+02  0.58339006176E+02  0.00000000000E+00 0.  1.
         23    2    1    2    0    0  0.10294972301E+03 -0.74882044764E+02  0.68200248706E+02  0.16931693527E+03  0.88379774546E+02 0.  0.
        -24    2    1    2    0    0 -0.51522890796E+02  0.75460247343E+02  0.69808436488E+03  0.70869297225E+03  0.81086936184E+02 0.  0.
         13    1    4    4    0    0 -0.70239160101E+02  0.75868695529E+02  0.58337571625E+03  0.59246672893E+03  0.00000000000E+00 0. -1.
        -14    1    4    4    0    0  0.18716269305E+02 -0.40844818618E+00  0.11470864863E+03  0.11622624332E+03  0.00000000000E+00 0.  1.
        -13    1    3    3    0    0  0.10231153193E+03 -0.26532291813E+02  0.38065476686E+02  0.11234141085E+03  0.00000000000E+00 0.  1.
         13    1    3    3    0    0  0.63819107486E+00 -0.48349752951E+02  0.30134772020E+02  0.56975524420E+02  0.00000000000E+00 0. -1.
         21    1    1    2  502  501 -0.51426832213E+02 -0.57820257877E+00  0.26455410407E+03  0.26950682250E+03  0.00000000000E+00 0. -1.
<scales pt_clust_5="13000.00000" pt_clust_6="13000.00000" pt_clust_7="13000.00000" pt_clust_8="13000.00000" pt_clust_9="51.43008"></scales>
<clustering>
<clus scale="   51.430">  1  9  2 -1</clus>
<clus scale="   81.087">  5  6 -1 -1</clus>
<clus scale="   88.380">  7  8 -1 -1</clus>
<clus scale="  146.011">  1  5  2 -1</clus>
<clus scale="   51.430">  1  5  2 -1</clus>
</clustering>
</event>
<event>
 9    1  0.2674825E-005  0.1100221E+03  0.7546771E-02  0.1263921E+00
          1   -1    0    0  502    0  0.00000000000E+00  0.00000000000E+00  0.12216579171E+03  0.12216579171E+03  0.00000000000E+00 0. -1.
         -2   -1    0    0    0  501 -0.00000000000E+00 -0.00000000000E+00 -0.17642670082E+03  0.17642670082E+03  0.00000000000E+00 0.  1.
        -24    2    1    2    0    0 -0.22492757610E+02 -0.55151326165E+02 -0.10208628785E+03  0.14472171178E+03  0.83517487818E+02 0.  0.
         23    2    1    2    0    0  0.45588170178E+02  0.47211769671E+02  0.16707332666E+02  0.11431363942E+03  0.92093651988E+02 0.  0.
         13    1    3    3    0    0 -0.13469030583E+02  0.21489093921E+02 -0.27213937839E+02  0.37199386488E+02  0.00000000000E+00 0. -1.
        -14    1    3    3    0    0 -0.90237270266E+01 -0.76640420085E+02 -0.74872350009E+02  0.10752232529E+03  0.00000000000E+00 0.  1.
        -11    1    4    4    0    0  0.43387806914E+02 -0.14442675063E+02 -0.10449777196E+02  0.46907254186E+02  0.00000000000E+00 0.  1.
         11    1    4    4    0    0  0.22003632641E+01  0.61654444735E+02  0.27157109862E+02  0.67406385232E+02  0.00000000000E+00 0. -1.
         21    1    1    2  502  501 -0.23095412568E+02  0.79395564930E+01  0.31118046076E+02  0.39557141335E+02  0.00000000000E+00 0. -1.
<scales pt_clust_5="13000.00000" pt_clust_6="13000.00000" pt_clust_7="13000.00000" pt_clust_8="13000.00000" pt_clust_9="24.42201"></scales>
<clustering>
<clus scale="   24.422">  1  9  2 -1</clus>
<clus scale="   83.517">  5  6 -1 -1</clus>
<clus scale="   92.094">  7  8 -1 -1</clus>
<clus scale="  102.950">  2  5  1 -1</clus>
<clus scale="   24.422">  1  5  2 -1</clus>
</clustering>
</event>
<event>
 9    1  0.2674825E-005  0.9119110E+02  0.7546771E-02  0.1303167E+00
         -2   -1    0    0    0  501 -0.00000000000E+00  0.00000000000E+00  0.21813481401E+03  0.21813481401E+03  0.00000000000E+00 0.  1.
          1   -1    0    0  502    0  0.00000000000E+00 -0.00000000000E+00 -0.13659447173E+03  0.13659447173E+03  0.00000000000E+00 0. -1.
        -24    2    1    2    0    0 -0.24819533070E+01 -0.17874625766E+02  0.15927417063E+03  0.18141841977E+03  0.84963046444E+02 0.  0.
         23    2    1    2    0    0 -0.16682026016E+02 -0.27344541156E+02 -0.79116307030E+02  0.12417897808E+03  0.90194315984E+02 0.  0.
         11    1    3    3    0    0 -0.37739460353E+02 -0.10657090418E+02  0.36843419444E+02  0.53807787543E+02  0.00000000000E+00 0. -1.
        -12    1    3    3    0    0  0.35257507046E+02 -0.72175353475E+01  0.12243075119E+03  0.12761063222E+03  0.00000000000E+00 0.  1.
        -11    1    4    4    0    0 -0.48443609162E+02  0.69539474246E+01 -0.41942631840E+02  0.64454053550E+02  0.00000000000E+00 0.  1.
         11    1    4    4    0    0  0.31761583146E+02 -0.34298488581E+02 -0.37173675190E+02  0.59724924529E+02  0.00000000000E+00 0. -1.
         21    1    1    2  502  501  0.19163979323E+02  0.45219166922E+02  0.13824786830E+01  0.49131887893E+02  0.00000000000E+00 0.  1.
<scales pt_clust_5="13000.00000" pt_clust_6="13000.00000" pt_clust_7="13000.00000" pt_clust_8="13000.00000" pt_clust_9="49.11243"></scales>
<clustering>
<clus scale="   49.112">  2  9  1 -1</clus>
<clus scale="   84.963">  5  6 -1 -1</clus>
<clus scale="   86.020">  1  5  2 -1</clus>
<clus scale="   90.194">  7  8 -1 -1</clus>
<clus scale="   49.112">  2  5  1 -1</clus>
</clustering>
</event>
<event>
 9    1  0.2674825E-005  0.1816492E+03  0.7546771E-02  0.1168429E+00
         -2   -1    0    0    0  501 -0.00000000000E+00  0.00000000000E+00  0.83477937508E+03  0.83477937508E+03  0.00000000000E+00 0.  1.
          1   -1    0    0  502    0  0.00000000000E+00 -0.00000000000E+00 -0.76874197459E+02  0.76874197459E+02  0.00000000000E+00 0. -1.
        -24    2    1    2    0    0  0.95652784443E+02  0.12281509880E+03  0.67224897475E+03  0.69471551219E+03  0.80485745071E+02 0.  0.
         23    2    1    2    0    0 -0.72121624608E+02 -0.12003978178E+03  0.89222945859E+02  0.19297685163E+03  0.98327276239E+02 0.  0.
         11    1    3    3    0    0  0.57142254302E+01  0.69440957646E+02  0.23348717130E+03  0.24366156474E+03  0.00000000000E+00 0. -1.
        -12    1    3    3    0    0  0.89938559013E+02  0.53374141158E+02  0.43876180345E+03  0.45105394745E+03  0.00000000000E+00 0.  1.
        -13    1    4    4    0    0 -0.31151042399E+01 -0.98501778047E+02  0.46079183424E+02  0.10879152218E+03  0.00000000000E+00 0. -1.
         13    1    4    4    0    0 -0.69006520368E+02 -0.21538003729E+02  0.43143762435E+02  0.84185329452E+02  0.00000000000E+00 0.  1.
         21    1    1    2  502  501 -0.23531159836E+02 -0.27753170285E+01 -0.35667429860E+01  0.23961208721E+02  0.00000000000E+00 0. -1.
<scales pt_clust_5="13000.00000" pt_clust_6="13000.00000" pt_clust_7="13000.00000" pt_clust_8="13000.00000" pt_clust_9="23.69426"></scales>
<clustering>
<clus scale="   23.694">  2  9  1 -1</clus>
<clus scale="   80.486">  5  6 -1 -1</clus>
<clus scale="   98.327">  7  8 -1 -1</clus>
<clus scale="  172.645">  1  5  2 -1</clus>
<clus scale="   23.694">  2  5  1 -1</clus>
</clustering>
</event>
<event>
 9    1  0.2674825E-005  0.2342010E+03  0.7546771E-02  0.1134324E+00
          3   -1    0    0  502    0  0.00000000000E+00  0.00000000000E+00  0.15827708237E+04  0.15827708237E+04  0.00000000000E+00 0. -1.
         -4   -1    0    0    0  501 -0.00000000000E+00 -0.00000000000E+00 -0.10923941072E+03  0.10923941072E+03  0.00000000000E+00 0.  1.
         23    2    1    2    0    0  0.15453682843E+03 -0.51766798011E+01  0.46995402433E+02  0.18642805390E+03  0.92943112038E+02 0.  0.
        -24    2    1    2    0    0  0.50800378898E+02  0.18431301690E+03  0.56122491091E+03  0.59837961486E+03  0.80825714728E+02 0.  0.
         11    1    4    4    0    0  0.43547516117E+02  0.16961744439E+03  0.55295723073E+03  0.58002427761E+03  0.00000000000E+00 0. -1.
        -12    1    4    4    0    0  0.72528627802E+01  0.14695572516E+02  0.82676801790E+01  0.18355337252E+02  0.00000000000E+00 0.  1.
        -13    1    3    3    0    0  0.15170542459E+03  0.21177547408E+02  0.33985075759E+02  0.15690127386E+03  0.00000000000E+00 0.  1.
         13    1    3    3    0    0  0.28314038440E+01 -0.26354227209E+02  0.13010326674E+02  0.29526780042E+02  0.00000000000E+00 0. -1.
         21    1    1    2  502  501 -0.20533720733E+03 -0.17913633710E+03  0.86531109967E+03  0.90720256569E+03  0.00000000000E+00 0. -1.
<scales pt_clust_5="13000.00000" pt_clust_6="13000.00000" pt_clust_7="13000.00000" pt_clust_8="13000.00000" pt_clust_9="219.81204"></scales>
<clustering>
<clus scale="   80.826">  5  6 -1 -1</clus>
<clus scale="   92.943">  7  8 -1 -1</clus>
<clus scale="  180.407">  2  7  1 -1</clus>
<clus scale="  219.812">  2  9  1 -1</clus>
<clus scale="  234.201">  1  5  2 -1</clus>
</clustering>
</event>
<event>
 9    1  0.2674825E-005  0.1064035E+03  0.7546771E-02  0.1272992E+00
          3   -1    0    0  502    0  0.00000000000E+00  0.00000000000E+00  0.88793280828E+02  0.88793280828E+02  0.00000000000E+00 0. -1.
         -4   -1    0    0    0  501 -0.00000000000E+00 -0.00000000000E+00 -0.32973094909E+03  0.32973094909E+03  0.00000000000E+00 0.  1.
         23    2    1    2    0    0  0.10055927304E+02  0.51295945097E+02 -0.27928143894E+03  0.29929068461E+03  0.94044649515E+02 0.  0.
        -24    2    1    2    0    0  0.72739918757E+01 -0.36733508373E+02  0.25510771109E+02  0.93212850846E+02  0.81459035871E+02 0.  0.
         11    1    4    4    0    0  0.41127587763E+02 -0.23088275153E+02 -0.24579021727E+01  0.47229103399E+02  0.00000000000E+00 0. -1.
        -12    1    4    4    0    0 -0.33853595888E+02 -0.13645233220E+02  0.27968673281E+02  0.45983747447E+02  0.00000000000E+00 0.  1.
        -11    1    3    3    0    0 -0.39603132613E+02  0.26420319666E+02 -0.17223186314E+03  0.17869039170E+03  0.00000000000E+00 0.  1.
         11    1    3    3    0    0  0.49659059918E+02  0.24875625431E+02 -0.10704957580E+03  0.12060029292E+03  0.00000000000E+00 0. -1.
         21    1    1    2  502  501 -0.17329919180E+02 -0.14562436724E+02  0.12832999571E+02  0.26020694459E+02  0.00000000000E+00 0. -1.
<scales pt_clust_5="13000.00000" pt_clust_6="13000.00000" pt_clust_7="13000.00000" pt_clust_8="13000.00000" pt_clust_9="22.63605"></scales>
<clustering>
<clus scale="   22.636">  1  9  2 -1</clus>
<clus scale="   81.459">  5  6 -1 -1</clus>
<clus scale="   94.045">  7  8 -1 -1</clus>
<clus scale="   95.461">  1  5  2 -1</clus>
<clus scale="   22.636">  1  5  2 -1</clus>
</clustering>
</event>
<event>
 9    1  0.2674825E-005  0.1149792E+03  0.7546771E-02  0.1257125E+00
          1   -1    0    0  502    0  0.00000000000E+00  0.00000000000E+00  0.46924299928E+03  0.46924299928E+03  0.00000000000E+00 0. -1.
         -2   -1    0    0    0  501 -0.00000000000E+00 -0.00000000000E+00 -0.46452016366E+02  0.46452016366E+02  0.00000000000E+00 0.  1.
         23    2    1    2    0    0  0.30282903152E+02 -0.55985992410E+02  0.62885792986E+02  0.13042081361E+03  0.94886669740E+02 0.  0.
        -24    2    1    2    0    0 -0.57046071564E+02  0.45394408893E+02  0.27116269621E+03  0.29198069199E+03  0.80053794660E+02 0.  0.
         11    1    4    4    0    0 -0.35056665196E+02  0.45431731836E+02  0.26191174631E+03  0.26812455108E+03  0.00000000000E+00 0. -1.
        -12    1    4    4    0    0 -0.21989406368E+02 -0.37322943355E-01  0.92509498992E+01  0.23856140917E+02  0.00000000000E+00 0.  1.
        -13    1    3    3    0    0 -0.19592856147E+02 -0.83581400130E+01  0.57416546692E+02  0.61240496002E+02  0.00000000000E+00 0. -1.
         13    1    3    3    0    0  0.49875759299E+02 -0.47627852397E+02  0.54692462934E+01  0.69180317611E+02  0.00000000000E+00 0.  1.
         21    1    1    2  502  501  0.26763168412E+02  0.10591583517E+02  0.88742493715E+02  0.93293510040E+02  0.00000000000E+00 0.  1.
<scales pt_clust_5="13000.00000" pt_clust_6="13000.00000" pt_clust_7="13000.00000" pt_clust_8="13000.00000" pt_clust_9="28.78279"></scales>
<clustering>
<clus scale="   28.783">  1  9  2 -1</clus>
<clus scale="   80.054">  5  6 -1 -1</clus>
<clus scale="   94.887">  7  8 -1 -1</clus>
<clus scale="  103.079">  1  5  2 -1</clus>
<clus scale="   28.783">  1  5  2 -1</clus>
</clustering>
</event>
<event>
 9    1  0.2674825E-005  0.1912587E+03  0.7546771E-02  0.1158461E+00
          1   -1    0    0  502    0  0.00000000000E+00  0.00000000000E+00  0.60308451095E+03  0.60308451095E+03  0.00000000000E+00 0. -1.
         -2   -1    0    0    0  501 -0.00000000000E+00 -0.00000000000E+00 -0.16438055862E+03  0.16438055862E+03  0.00000000000E+00 0.  1.
         23    2    1    2    0    0 -0.16138451380E+02 -0.16846991192E+03 -0.75236055363E+02  0.20656818831E+03  0.91473447306E+02 0.  0.
        -24    2    1    2    0    0  0.52215268064E+02  0.15532286613E+03  0.38046596147E+03  0.42200950772E+03  0.80536015603E+02 0.  0.
         11    1    4    4    0    0  0.51813169064E+02  0.87877238950E+02  0.14652683382E+03  0.17854166640E+03  0.00000000000E+00 0. -1.
        -12    1    4    4    0    0  0.40209900005E+00  0.67445627178E+02  0.23393912765E+03  0.24346784131E+03  0.00000000000E+00 0.  1.
        -11    1    3    3    0    0  0.94804634535E+01 -0.14505809516E+03 -0.87605529488E+02  0.16972465630E+03  0.00000000000E+00 0.  1.
         11    1    3    3    0    0 -0.25618914834E+02 -0.23411816751E+02  0.12369474125E+02  0.36843532010E+02  0.00000000000E+00 0. -1.
         21    1    1    2  502  501 -0.36076816684E+02  0.13147045787E+02  0.13347404623E+03  0.13888737355E+03  0.00000000000E+00 0.  1.
<scales pt_clust_5="13000.00000" pt_clust_6="13000.00000" pt_clust_7="13000.00000" pt_clust_8="13000.00000" pt_clust_9="38.39768"></scales>
<clustering>
<clus scale="   38.398">  1  9  2 -1</clus>
<clus scale="   80.536">  5  6 -1 -1</clus>
<clus scale="   91.473">  7  8 -1 -1</clus>
<clus scale="  186.275">  1  5  2 -1</clus>
<clus scale="   38.398">  1  5  2 -1</clus>
</clustering>
</event>
<event>
 9    1  0.2674825E-005  0.2085531E+03  0.7546771E-02  0.1174627E+00
          1   -1    0    0  502    0  0.00000000000E+00  0.00000000000E+00  0.57643287424E+03  0.57643287424E+03  0.00000000000E+00 0. -1.
         -2   -1    0    0    0  501 -0.00000000000E+00 -0.00000000000E+00 -0.25530459849E+03  0.25530459849E+03  0.00000000000E+00 0.  1.
         23    2    1    2    0    0 -0.16863104348E+03 -0.75398774506E+02 -0.15201952419E+03  0.25646948665E+03  0.92440563730E+02 0.  0.
        -24    2    1    2    0    0  0.14065172254E+02 -0.58848480715E+02  0.26681708247E+03  0.28460443650E+03  0.78405082896E+02 0.  0.
         11    1    4    4    0    0 -0.28711622247E+02 -0.32620965038E+01  0.77669974363E+02  0.82871125510E+02  0.00000000000E+00 0. -1.
        -12    1    4    4    0    0  0.42776794501E+02 -0.55586384212E+02  0.18914710811E+03  0.20173331099E+03  0.00000000000E+00 0.  1.
        -13    1    3    3    0    0 -0.30387365690E+02 -0.38733027383E+02 -0.85664637339E+02  0.98803185648E+02  0.00000000000E+00 0.  1.
         13    1    3    3    0    0 -0.13824367779E+03 -0.36665747123E+02 -0.66354886853E+02  0.15766630100E+03  0.00000000000E+00 0. -1.
         21    1    1    2  502  501  0.15456587123E+03  0.13424725522E+03  0.20633071747E+03  0.29066354958E+03  0.00000000000E+00 0.  1.
<scales pt_clust_5="13000.00000" pt_clust_6="13000.00000" pt_clust_7="13000.00000" pt_clust_8="13000.00000" pt_clust_9="186.94692"></scales>
<clustering>
<clus scale="   78.405">  5  6 -1 -1</clus>
<clus scale="   92.441">  7  8 -1 -1</clus>
<clus scale="   99.037">  1  5  2 -1</clus>
<clus scale="  186.947">  1  9  2 -1</clus>
<clus scale="   99.037">  1  5  2 -1</clus>
</clustering>
</event>
<event>
 9    1  0.2674825E-005  0.1364496E+03  0.7546771E-02  0.1227460E+00
          1   -1    0    0  502    0  0.00000000000E+00  0.00000000000E+00  0.16913869595E+03  0.16913869595E+03  0.00000000000E+00 0. -1.
         -2   -1    0    0    0  501 -0.00000000000E+00 -0.00000000000E+00 -0.45812939259E+03  0.45812939259E+03  0.00000000000E+00 0.  1.
         23    2    1    2    0    0 -0.40597744356E+02 -0.70352664097E+02 -0.40096569164E+03  0.42442833536E+03  0.11299668929E+03 0.  0.
        -24    2    1    2    0    0  0.53148970819E+02  0.26166750036E+02  0.25038375388E+02  0.10451425234E+03  0.82382017420E+02 0.  0.
         13    1    4    4    0    0 -0.31224736390E+01  0.41562373128E+02  0.19181440316E+02  0.45881459810E+02  0.00000000000E+00 0. -1.
        -14    1    4    4    0    0  0.56271444458E+02 -0.15395623092E+02  0.58569350714E+01  0.58632792533E+02  0.00000000000E+00 0.  1.
        -13    1    3    3    0    0 -0.50863753929E+02 -0.97016320339E+02 -0.33740014355E+03  0.35473672595E+03  0.00000000000E+00 0.  1.
         13    1    3    3    0    0  0.10266009573E+02  0.26663656242E+02 -0.63565548094E+02  0.69691609404E+02  0.00000000000E+00 0. -1.
         21    1    1    2  502  501 -0.12551226463E+02  0.44185914060E+02  0.86936619605E+02  0.98325500840E+02  0.00000000000E+00 0.  1.
<scales pt_clust_5="13000.00000" pt_clust_6="13000.00000" pt_clust_7="13000.00000" pt_clust_8="13000.00000" pt_clust_9="45.93396"></scales>
<clustering>
<clus scale="   45.934">  1  9  2 -1</clus>
<clus scale="   82.382">  5  6 -1 -1</clus>
<clus scale="  112.415">  1  5  2 -1</clus>
<clus scale="  112.997">  7  8 -1 -1</clus>
<clus scale="   45.934">  1  5  2 -1</clus>
</clustering>
</event>
<event>
 9    1  0.2674825E-005  0.1646362E+03  0.7546771E-02  0.1185448E+00
         -2   -1    0    0    0  501 -0.00000000000E+00  0.00000000000E+00  0.64994701782E+03  0.64994701782E+03  0.00000000000E+00 0.  1.
          1   -1    0    0  502    0  0.00000000000E+00 -0.00000000000E+00 -0.57603343753E+02  0.57603343753E+02  0.00000000000E+00 0. -1.
         23    2    1    2    0    0 -0.52453378052E+02  0.11669681499E+03  0.35754805878E+03  0.39053776951E+03  0.91157180636E+02 0.  0.
        -24    2    1    2    0    0  0.45892107234E+02 -0.14690208379E+03  0.22689255994E+03  0.28510856689E+03  0.78232687745E+02 0.  0.
         11    1    4    4    0    0 -0.16762213551E+02 -0.76742939327E+02  0.10593440712E+03  0.13188081419E+03  0.00000000000E+00 0. -1.
        -12    1    4    4    0    0  0.62654320785E+02 -0.70159144461E+02  0.12095815282E+03  0.15322775270E+03  0.00000000000E+00 0.  1.
        -13    1    3    3    0    0 -0.82849342584E+00  0.86142879158E+02  0.13580729064E+03  0.16082568893E+03  0.00000000000E+00 0. -1.
         13    1    3    3    0    0 -0.51624884627E+02  0.30553935832E+02  0.22174076814E+03  0.22971208058E+03  0.00000000000E+00 0.  1.
         21    1    1    2  502  501  0.65612708189E+01  0.30205268799E+02  0.79030553462E+01  0.31904025165E+02  0.00000000000E+00 0. -1.
<scales pt_clust_5="13000.00000" pt_clust_6="13000.00000" pt_clust_7="13000.00000" pt_clust_8="13000.00000" pt_clust_9="30.90968"></scales>
<clustering>
<clus scale="   30.910">  2  9  1 -1</clus>
<clus scale="   78.233">  5  6 -1 -1</clus>
<clus scale="   91.157">  7  8 -1 -1</clus>
<clus scale="  157.847">  2  5  1 -1</clus>
<clus scale="   30.910">  2  5  1 -1</clus>
</clustering>
</event>
<event>
 9    1  0.2674825E-005  0.2194695E+03  0.7546771E-02  0.1135044E+00
          1   -1    0    0  502    0  0.00000000000E+00  0.00000000000E+00  0.21646766372E+03  0.21646766372E+03  0.00000000000E+00 0. -1.
         -2   -1    0    0    0  501 -0.00000000000E+00 -0.00000000000E+00 -0.36622960696E+03  0.36622960696E+03  0.00000000000E+00 0.  1.
         23    2    1    2    0    0 -0.39782670480E+02  0.19670048904E+03 -0.69844138075E+02  0.23169748636E+03  0.92367625847E+02 0.  0.
        -24    2    1    2    0    0  0.13838190134E+03 -0.15794204508E+03 -0.13455697014E+02  0.22593485268E+03  0.82281599718E+02 0.  0.
         11    1    4    4    0    0  0.35123702286E+02 -0.17357131814E+02 -0.31910905771E+02  0.50529698141E+02  0.00000000000E+00 0. -1.
        -12    1    4    4    0    0  0.10325819905E+03 -0.14058491326E+03  0.18455208756E+02  0.17540515454E+03  0.00000000000E+00 0.  1.
        -11    1    3    3    0    0 -0.34926925703E+02  0.71953471940E+02 -0.70852957342E+02  0.10685192477E+03  0.00000000000E+00 0.  1.
         11    1    3    3    0    0 -0.48557447774E+01  0.12474701710E+03  0.10088192679E+01  0.12484556159E+03  0.00000000000E+00 0. -1.
         21    1    1    2  502  501 -0.98599230858E+02 -0.38758443964E+02 -0.66462108155E+02  0.12506493163E+03  0.00000000000E+00 0. -1.
<scales pt_clust_5="13000.00000" pt_clust_6="13000.00000" pt_clust_7="13000.00000" pt_clust_8="13000.00000" pt_clust_9="105.94350"></scales>
<clustering>
<clus scale="   82.282">  5  6 -1 -1</clus>
<clus scale="   92.368">  7  8 -1 -1</clus>
<clus scale="  105.944">  2  9  1 -1</clus>
<clus scale="  215.419">  1  5  2 -1</clus>
<clus scale="  215.419">  1  5  2 -1</clus>
</clustering>
</event>
<event>
 9    1  0.2674825E-005  0.3674401E+03  0.7546771E-02  0.1098384E+00
          3   -1    0    0  502    0  0.00000000000E+00  0.00000000000E+00  0.51186226774E+03  0.51186226774E+03  0.00000000000E+00 0. -1.
         -4   -1    0    0    0  501 -0.00000000000E+00 -0.00000000000E+00 -0.49608564941E+03  0.49608564941E+03  0.00000000000E+00 0.  1.
        -24    2    1    2    0    0 -0.27339862020E+03 -0.20611491258E+03 -0.16354469547E+03  0.38785760158E+03  0.80352280444E+02 0.  0.
         23    2    1    2    0    0  0.20599543966E+01 -0.70475051933E+02  0.20122355130E+03  0.23200992693E+03  0.91469733997E+02 0.  0.
         11    1    3    3    0    0 -0.25600058029E+03 -0.20107538137E+03 -0.13157240800E+03  0.35111095775E+03  0.00000000000E+00 0. -1.
        -12    1    3    3    0    0 -0.17398039915E+02 -0.50395312124E+01 -0.31972287463E+02  0.36746643837E+02  0.00000000000E+00 0.  1.
        -11    1    4    4    0    0 -0.37745249004E+02 -0.51838308058E+02  0.76795246275E+02  0.10004710818E+03  0.00000000000E+00 0.  1.
         11    1    4    4    0    0  0.39805203401E+02 -0.18636743875E+02  0.12442830503E+03  0.13196281875E+03  0.00000000000E+00 0. -1.
         21    1    1    2  502  501  0.27133866581E+03  0.27658996452E+03 -0.21902237501E+02  0.38808038863E+03  0.00000000000E+00 0.  1.
<scales pt_clust_5="13000.00000" pt_clust_6="13000.00000" pt_clust_7="13000.00000" pt_clust_8="13000.00000" pt_clust_9="358.54668"></scales>
<clustering>
<clus scale="   80.352">  5  6 -1 -1</clus>
<clus scale="   91.470">  7  8 -1 -1</clus>
<clus scale="  115.489">  1  7  2 -1</clus>
<clus scale="  358.547">  1  9  2 -1</clus>
<clus scale="  115.489">  1  5  2 -1</clus>
</clustering>
</event>
<event>
 9    1  0.2674825E-005  0.1068988E+03  0.7546771E-02  0.1271116E+00
          1   -1    0    0  502    0  0.00000000000E+00  0.00000000000E+00  0.12228979217E+03  0.12228979217E+03  0.00000000000E+00 0. -1.
         -2   -1    0    0    0  501 -0.00000000000E+00 -0.00000000000E+00 -0.21744597862E+03  0.21744597862E+03  0.00000000000E+00 0.  1.
         23    2    1    2    0    0 -0.50463605706E+02 -0.17107370942E+02 -0.15730378682E+03  0.19032363919E+03  0.92948204094E+02 0.  0.
        -24    2    1    2    0    0  0.35666475905E+02  0.46345896430E+02  0.58244804567E+02  0.11641094620E+03  0.82091482602E+02 0.  0.
         11    1    4    4    0    0  0.23498799922E+02 -0.17127210878E+02  0.39632221058E+02  0.49155344533E+02  0.00000000000E+00 0. -1.
        -12    1    4    4    0    0  0.12167675984E+02  0.63473107308E+02  0.18612583509E+02  0.67255601663E+02  0.00000000000E+00 0.  1.
        -11    1    3    3    0    0 -0.59718230206E+02  0.18542592541E+02 -0.61595742822E+02  0.87773175235E+02  0.00000000000E+00 0.  1.
         11    1    3    3    0    0  0.92546244994E+01 -0.35649963483E+02 -0.95708044000E+02  0.10255046395E+03  0.00000000000E+00 0. -1.
         21    1    1    2  502  501  0.14797129801E+02 -0.29238525488E+02  0.39027958013E+01  0.33001185405E+02  0.00000000000E+00 0.  1.
<scales pt_clust_5="13000.00000" pt_clust_6="13000.00000" pt_clust_7="13000.00000" pt_clust_8="13000.00000" pt_clust_9="32.76960"></scales>
<clustering>
<clus scale="   32.770">  1  9  2 -1</clus>
<clus scale="   82.091">  5  6 -1 -1</clus>
<clus scale="   92.948">  7  8 -1 -1</clus>
<clus scale="   97.606">  1  5  2 -1</clus>
<clus scale="   32.770">  1  5  2 -1</clus>
</clustering>
</event>
<event>
 9    1  0.2674825E-005  0.1073176E+03  0.7546771E-02  0.1270153E+00
         -2   -1    0    0    0  501 -0.00000000000E+00  0.00000000000E+00  0.10636032684E+03  0.10636032684E+03  0.00000000000E+00 0.  1.
          1   -1    0    0  502    0  0.00000000000E+00 -0.00000000000E+00 -0.21115080968E+03  0.21115080968E+03  0.00000000000E+00 0. -1.
        -24    2    1    2    0    0  0.34934893468E+02 -0.42548797240E+02  0.40562021606E+02  0.11991171620E+03  0.98502259648E+02 0.  0.
         23    2    1    2    0    0 -0.38086239680E+02  0.15726343520E+02 -0.13893707661E+03  0.16984094918E+03  0.88569505063E+02 0.  0.
         11    1    3    3    0    0 -0.16441679465E+02 -0.54530202084E+02  0.69950651177E+01  0.57382947806E+02  0.00000000000E+00 0. -1.
        -12    1    3    3    0    0  0.51376572933E+02  0.11981404844E+02  0.33566956489E+02  0.62528768389E+02  0.00000000000E+00 0.  1.
        -13    1    4    4    0    0 -0.65971589469E+02  0.33430694814E+01 -0.10638917260E+03  0.12522812294E+03  0.00000000000E+00 0. -1.
         13    1    4    4    0    0  0.27885349789E+02  0.12383274038E+02 -0.32547904013E+02  0.44612826232E+02  0.00000000000E+00 0.  1.
         21    1    1    2  502  501  0.31513462114E+01  0.26822453721E+02 -0.64154278336E+01  0.27758471155E+02  0.00000000000E+00 0. -1.
<scales pt_clust_5="13000.00000" pt_clust_6="13000.00000" pt_clust_7="13000.00000" pt_clust_8="13000.00000" pt_clust_9="27.00694"></scales>
<clustering>
<clus scale="   27.007">  1  9  2 -1</clus>
<clus scale="   88.570">  7  8 -1 -1</clus>
<clus scale="   98.280">  2  7  1 -1</clus>
<clus scale="   98.502">  5  6 -1 -1</clus>
<clus scale="   98.280">  2  5  1 -1</clus>
</clustering>
</event>
<event>
 9    1  0.2674825E-005  0.1297373E+03  0.7546771E-02  0.1240836E+00
         -2   -1    0    0    0  501 -0.00000000000E+00  0.00000000000E+00  0.27340846504E+03  0.27340846504E+03  0.00000000000E+00 0.  1.
          1   -1    0    0  502    0  0.00000000000E+00 -0.00000000000E+00 -0.10583306312E+03  0.10583306312E+03  0.00000000000E+00 0. -1.
        -24    2    1    2    0    0 -0.34114131013E+02  0.49501509481E+02  0.20107554556E+03  0.22474708803E+03  0.80409608763E+02 0.  0.
         23    2    1    2    0    0  0.40442402785E+02 -0.28111095511E+02 -0.38525204734E+02  0.13162856879E+03  0.11582774748E+03 0.  0.
         11    1    3    3    0    0 -0.26346438739E+02  0.34425799440E+02  0.29733034351E+02  0.52567326668E+02  0.00000000000E+00 0. -1.
        -12    1    3    3    0    0 -0.77676922744E+01  0.15075710041E+02  0.17134251121E+03  0.17217976136E+03  0.00000000000E+00 0.  1.
        -11    1    4    4    0    0 -0.34667915795E+01  0.41837134095E+02 -0.22028759085E+02  0.47409183287E+02  0.00000000000E+00 0. -1.
         11    1    4    4    0    0  0.43909194365E+02 -0.69948229606E+02 -0.16496445649E+02  0.84219385499E+02  0.00000000000E+00 0.  1.
         21    1    1    2  502  501 -0.63282717719E+01 -0.21390413969E+02  0.50250611023E+01  0.22865871348E+02  0.00000000000E+00 0.  1.
<scales pt_clust_5="13000.00000" pt_clust_6="13000.00000" pt_clust_7="13000.00000" pt_clust_8="13000.00000" pt_clust_9="22.30688"></scales>
<clustering>
<clus scale="   22.307">  2  9  1 -1</clus>
<clus scale="   80.410">  5  6 -1 -1</clus>
<clus scale="   99.405">  1  5  2 -1</clus>
<clus scale="  115.828">  7  8 -1 -1</clus>
<clus scale="   22.307">  2  5  1 -1</clus>
</clustering>
</event>
<event>
 9    1  0.2674825E-005  0.1028138E+03  0.7546771E-02  0.1279819E+00
          1   -1    0    0  502    0  0.00000000000E+00  0.00000000000E+00  0.53581200573E+03  0.53581200573E+03  0.00000000000E+00 0. -1.
         -2   -1    0    0    0  501 -0.00000000000E+00 -0.00000000000E+00 -0.74694537415E+02  0.74694537415E+02  0.00000000000E+00 0.  1.
        -24    2    1    2    0    0  0.22888000465E+02 -0.42562025949E+02 -0.28453133303E+02  0.97386938396E+02  0.79619396865E+02 0.  0.
         23    2    1    2    0    0 -0.56945391669E+02  0.14748621848E+02  0.37675984935E+03  0.39204212059E+03  0.91042521686E+02 0.  0.
         11    1    3    3    0    0  0.18474365634E+02  0.19231742956E+02 -0.22965078932E+02  0.35193138153E+02  0.00000000000E+00 0. -1.
        -12    1    3    3    0    0  0.44136348313E+01 -0.61793768905E+02 -0.54880543703E+01  0.62193800243E+02  0.00000000000E+00 0.  1.
        -13    1    4    4    0    0 -0.61950715891E+02  0.35066876792E+02  0.35415444947E+03  0.36123808095E+03  0.00000000000E+00 0. -1.
         13    1    4    4    0    0  0.50053242224E+01 -0.20318254944E+02  0.22605399882E+02  0.30804039643E+02  0.00000000000E+00 0.  1.
         21    1    1    2  502  501  0.34057391204E+02  0.27813404101E+02  0.11281075226E+03  0.12107748416E+03  0.00000000000E+00 0. -1.
<scales pt_clust_5="13000.00000" pt_clust_6="13000.00000" pt_clust_7="13000.00000" pt_clust_8="13000.00000" pt_clust_9="43.97148"></scales>
<clustering>
<clus scale="   43.971">  1  9  2 -1</clus>
<clus scale="   79.619">  5  6 -1 -1</clus>
<clus scale="   91.043">  7  8 -1 -1</clus>
<clus scale="   92.850">  2  5  1 -1</clus>
<clus scale="   43.971">  1  5  2 -1</clus>
</clustering>
</event>
<event>
 9    1  0.2674825E-005  0.1361176E+03  0.7546771E-02  0.1219111E+00
          1   -1    0    0  502    0  0.00000000000E+00  0.00000000000E+00  0.44866529325E+03  0.44866529325E+03  0.00000000000E+00 0. -1.
         -2   -1    0    0    0  501 -0.00000000000E+00 -0.00000000000E+00 -0.63891867808E+02  0.63891867808E+02  0.00000000000E+00 0.  1.
        -24    2    1    2    0    0 -0.69246416029E+02 -0.84525628509E+02  0.61390413255E+02  0.15293601317E+03  0.87641276111E+02 0.  0.
         23    2    1    2    0    0  0.66570256349E+02  0.57408535994E+02  0.22641100289E+03  0.25889344998E+03  0.89646735463E+02 0.  0.
         13    1    3    3    0    0 -0.24818943751E+02 -0.54404881015E+02  0.76571606513E+02  0.97154937966E+02  0.00000000000E+00 0. -1.
        -14    1    3    3    0    0 -0.44427472278E+02 -0.30120747494E+02 -0.15181193259E+02  0.55781075208E+02  0.00000000000E+00 0.  1.
        -13    1    4    4    0    0 -0.17575416077E+02  0.32603567466E+02  0.81053270913E+02  0.89115209631E+02  0.00000000000E+00 0.  1.
         13    1    4    4    0    0  0.84145672426E+02  0.24804968528E+02  0.14535773197E+03  0.16977824035E+03  0.00000000000E+00 0. -1.
         21    1    1    2  502  501  0.26761596797E+01  0.27117092515E+02  0.96972009298E+02  0.10072769790E+03  0.00000000000E+00 0. -1.
<scales pt_clust_5="13000.00000" pt_clust_6="13000.00000" pt_clust_7="13000.00000" pt_clust_8="13000.00000" pt_clust_9="27.24883"></scales>
<clustering>
<clus scale="   27.249">  1  9  2 -1</clus>
<clus scale="   87.641">  5  6 -1 -1</clus>
<clus scale="   89.647">  7  8 -1 -1</clus>
<clus scale="  134.805">  2  5  1 -1</clus>
<clus scale="   27.249">  1  5  2 -1</clus>
</clustering>
</event>
<event>
 9    1  0.2674825E-005  0.1654405E+03  0.7546771E-02  0.1184023E+00
          1   -1    0    0  502    0  0.00000000000E+00  0.00000000000E+00  0.30785684891E+03  0.30785684891E+03  0.00000000000E+00 0. -1.
         -2   -1    0    0    0  501 -0.00000000000E+00 -0.00000000000E+00 -0.62426792785E+03  0.62426792785E+03  0.00000000000E+00 0.  1.
        -24    2    1    2    0    0 -0.87681674537E+02  0.10739638303E+03 -0.58278642255E+03  0.60446579792E+03  0.80726869243E+02 0.  0.
         23    2    1    2    0    0  0.74611116362E+02 -0.12340622798E+03  0.23347235966E+03  0.28880333601E+03  0.90011712449E+02 0.  0.
         13    1    3    3    0    0 -0.86270452929E+02  0.99810502014E+02 -0.39358435819E+03  0.41510646149E+03  0.00000000000E+00 0. -1.
        -14    1    3    3    0    0 -0.14112216078E+01  0.75858810200E+01 -0.18920206436E+03  0.18935933643E+03  0.00000000000E+00 0.  1.
        -11    1    4    4    0    0  0.31431317926E+02 -0.45084299764E+02  0.22004868252E+02  0.59200811300E+02  0.00000000000E+00 0.  1.
         11    1    4    4    0    0  0.43179798436E+02 -0.78321928220E+02  0.21146749141E+03  0.22960252471E+03  0.00000000000E+00 0. -1.
         21    1    1    2  502  501  0.13070558175E+02  0.16009844950E+02  0.32902983945E+02  0.38855642818E+02  0.00000000000E+00 0.  1.
<scales pt_clust_5="13000.00000" pt_clust_6="13000.00000" pt_clust_7="13000.00000" pt_clust_8="13000.00000" pt_clust_9="20.66772"></scales>
<clustering>
<clus scale="   20.668">  1  9  2 -1</clus>
<clus scale="   80.727">  5  6 -1 -1</clus>
<clus scale="   90.012">  7  8 -1 -1</clus>
<clus scale="  160.578">  2  5  1 -1</clus>
<clus scale="   20.668">  1  5  2 -1</clus>
</clustering>
</event>
<event>
 9    1  0.2674825E-005  0.1466403E+03  0.7546771E-02  0.1229507E+00
          1   -1    0    0  502    0  0.00000000000E+00  0.00000000000E+00  0.39991626800E+03  0.39991626800E+03  0.00000000000E+00 0. -1.
         -2   -1    0    0    0  501 -0.00000000000E+00 -0.00000000000E+00 -0.25367435333E+03  0.25367435333E+03  0.00000000000E+00 0.  1.
         23    2    1    2    0    0  0.77117236025E+02 -0.89545075638E+02 -0.20379290970E+03  0.25297279023E+03  0.92186191426E+02 0.  0.
        -24    2    1    2    0    0 -0.29906063105E+02  0.78310717358E+01  0.24236787200E+03  0.25744574613E+03  0.81119840525E+02 0.  0.
         13    1    4    4    0    0 -0.89706076453E+01  0.40319884213E+02  0.74486460802E+02  0.85172752141E+02  0.00000000000E+00 0. -1.
        -14    1    4    4    0    0 -0.20935455459E+02 -0.32488812477E+02  0.16788141120E+03  0.17227299399E+03  0.00000000000E+00 0.  1.
        -13    1    3    3    0    0  0.57146318440E+02 -0.83770994892E+02 -0.20832554262E+03  0.23169551788E+03  0.00000000000E+00 0.  1.
         13    1    3    3    0    0  0.19970917585E+02 -0.57740807461E+01  0.45326329184E+01  0.21277272354E+02  0.00000000000E+00 0. -1.
         21    1    1    2  502  501 -0.47211172921E+02  0.81714003902E+02  0.10766695236E+03  0.14317208497E+03  0.00000000000E+00 0. -1.
<scales pt_clust_5="13000.00000" pt_clust_6="13000.00000" pt_clust_7="13000.00000" pt_clust_8="13000.00000" pt_clust_9="114.03978"></scales>
<clustering>
<clus scale="   81.120">  5  6 -1 -1</clus>
<clus scale="   86.811">  1  5  2 -1</clus>
<clus scale="   92.186">  7  8 -1 -1</clus>
<clus scale="  114.040">  1  9  2 -1</clus>
<clus scale="   86.811">  1  5  2 -1</clus>
</clustering>
</event>
<event>
 9    1  0.2674825E-005  0.1359939E+03  0.7546771E-02  0.1220454E+00
         -2   -1    0    0    0  501 -0.00000000000E+00  0.00000000000E+00  0.19346654500E+03  0.19346654500E+03  0.00000000000E+00 0.  1.
          1   -1    0    0  502    0  0.00000000000E+00 -0.00000000000E+00 -0.49536057494E+03  0.49536057494E+03  0.00000000000E+00 0. -1.
         23    2    1    2    0    0 -0.38633896490E+02 -0.94671091388E+02  0.13963870051E+03  0.19372878563E+03  0.87044139380E+02 0.  0.
        -24    2    1    2    0    0  0.75273871450E+02  0.11985910133E+03 -0.40879360927E+03  0.43988263304E+03  0.79700413922E+02 0.  0.
         11    1    4    4    0    0  0.57134623132E+02  0.12026413184E+03 -0.28264174280E+03  0.31243268290E+03  0.00000000000E+00 0. -1.
        -12    1    4    4    0    0  0.18139248318E+02 -0.40503050965E+00 -0.12615186647E+03  0.12744995015E+03  0.00000000000E+00 0.  1.
        -13    1    3    3    0    0 -0.41045453611E+02 -0.64908527361E+02  0.14434190381E+03  0.16350055468E+03  0.00000000000E+00 0.  1.
         13    1    3    3    0    0  0.24115571203E+01 -0.29762564027E+02 -0.47032032987E+01  0.30228230952E+02  0.00000000000E+00 0. -1.
         21    1    1    2  502  501 -0.36639974959E+02 -0.25188009946E+02 -0.32739121176E+02  0.55215701259E+02  0.00000000000E+00 0.  1.
<scales pt_clust_5="13000.00000" pt_clust_6="13000.00000" pt_clust_7="13000.00000" pt_clust_8="13000.00000" pt_clust_9="44.46261"></scales>
<clustering>
<clus scale="   44.463">  2  9  1 -1</clus>
<clus scale="   79.700">  5  6 -1 -1</clus>
<clus scale="   87.044">  7  8 -1 -1</clus>
<clus scale="  131.415">  2  5  1 -1</clus>
<clus scale="   44.463">  2  5  1 -1</clus>
</clustering>
</event>
<event>
 9    1  0.2674825E-005  0.1711170E+03  0.7546771E-02  0.1178133E+00
         -2   -1    0    0    0  501 -0.00000000000E+00  0.00000000000E+00  0.48817225594E+02  0.48817225594E+02  0.00000000000E+00 0.  1.
          1   -1    0    0  502    0  0.00000000000E+00 -0.00000000000E+00 -0.71492017319E+03  0.71492017319E+03  0.00000000000E+00 0. -1.
         23    2    1    2    0    0  0.62164534425E+02  0.12583468754E+03 -0.22983369096E+03  0.28434883690E+03  0.91279447940E+02 0.  0.
        -24    2    1    2    0    0 -0.88075060673E+02 -0.12443847875E+03 -0.36908547956E+03  0.40736797684E+03  0.80513514511E+02 0.  0.
         11    1    4    4    0    0 -0.65362754512E+02 -0.12343685527E+03 -0.35268368516E+03  0.37933458674E+03  0.00000000000E+00 0. -1.
        -12    1    4    4    0    0 -0.22712306160E+02 -0.10016234800E+01 -0.16401794405E+02  0.28033390098E+02  0.00000000000E+00 0.  1.
        -13    1    3    3    0    0  0.41197778162E+02  0.67970230206E+02 -0.49101390769E+02  0.93424598983E+02  0.00000000000E+00 0.  1.
         13    1    3    3    0    0  0.20966756264E+02  0.57864457334E+02 -0.18073230019E+03  0.19092423792E+03  0.00000000000E+00 0. -1.
         21    1    1    2  502  501  0.25910526248E+02 -0.13962087888E+01 -0.67183777068E+02  0.72020585047E+02  0.00000000000E+00 0. -1.
<scales pt_clust_5="13000.00000" pt_clust_6="13000.00000" pt_clust_7="13000.00000" pt_clust_8="13000.00000" pt_clust_9="25.94812"></scales>
<clustering>
<clus scale="   25.948">  2  9  1 -1</clus>
<clus scale="   80.514">  5  6 -1 -1</clus>
<clus scale="   91.279">  7  8 -1 -1</clus>
<clus scale="  165.625">  2  5  1 -1</clus>
<clus scale="   25.948">  2  5  1 -1</clus>
</clustering>
</event>
<event>
 9    1  0.2674825E-005  0.1196254E+03  0.7546771E-02  0.1245275E+00
          3   -1    0    0  502    0  0.00000000000E+00  0.00000000000E+00  0.60790569341E+02  0.60790569341E+02  0.00000000000E+00 0. -1.
         -4   -1    0    0    0  501 -0.00000000000E+00 -0.00000000000E+00 -0.42162201003E+03  0.42162201003E+03  0.00000000000E+00 0.  1.
        -24    2    1    2    0    0  0.90334699943E+02 -0.68399304229E+01 -0.32025135934E+03  0.34267606709E+03  0.81601538799E+02 0.  0.
         23    2    1    2    0    0 -0.73520992464E+02  0.23905592784E+02 -0.25468087145E+02  0.11141143576E+03  0.76072799719E+02 0.  0.
         13    1    3    3    0    0  0.15405495860E+02 -0.36821070614E+02 -0.83547648831E+02  0.92592279208E+02  0.00000000000E+00 0. -1.
        -14    1    3    3    0    0  0.74929204083E+02  0.29981140191E+02 -0.23670371051E+03  0.25008378788E+03  0.00000000000E+00 0.  1.
        -11    1    4    4    0    0  0.90172227004E+01  0.23834410252E+02 -0.17992204267E+01  0.25546557722E+02  0.00000000000E+00 0.  1.
         11    1    4    4    0    0 -0.82538215164E+02  0.71182531145E-01 -0.23668866718E+02  0.85864878042E+02  0.00000000000E+00 0. -1.
         21    1    1    2  502  501 -0.16813707479E+02 -0.17065662361E+02 -0.15111994207E+02  0.28325076521E+02  0.00000000000E+00 0. -1.
<scales pt_clust_5="13000.00000" pt_clust_6="13000.00000" pt_clust_7="13000.00000" pt_clust_8="13000.00000" pt_clust_9="23.95699"></scales>
<clustering>
<clus scale="   23.957">  1  9  2 -1</clus>
<clus scale="   76.073">  7  8 -1 -1</clus>
<clus scale="   81.602">  5  6 -1 -1</clus>
<clus scale="  115.925">  1  7  2 -1</clus>
<clus scale="   23.957">  1  5  2 -1</clus>
</clustering>
</event>
<event>
 9    1  0.2674825E-005  0.1202556E+03  0.7546771E-02  0.1244827E+00
          1   -1    0    0  502    0  0.00000000000E+00  0.00000000000E+00  0.23315160989E+03  0.23315160989E+03  0.00000000000E+00 0. -1.
         -2   -1    0    0    0  501 -0.00000000000E+00 -0.00000000000E+00 -0.10784070435E+03  0.10784070435E+03  0.00000000000E+00 0.  1.
         23    2    1    2    0    0 -0.46155854347E+02  0.72043000183E+02 -0.36014412386E+02  0.12965883830E+03  0.90519719865E+02 0.  0.
        -24    2    1    2    0    0  0.23741624124E+02 -0.58565007315E+02  0.10086376864E+03  0.14545743363E+03  0.83611245520E+02 0.  0.
         11    1    4    4    0    0  0.47289905582E+02 -0.23356150115E+02  0.85381945159E+02  0.10035896311E+03  0.00000000000E+00 0. -1.
        -12    1    4    4    0    0 -0.23548281458E+02 -0.35208857200E+02  0.15481823478E+02  0.45098470519E+02  0.00000000000E+00 0.  1.
        -13    1    3    3    0    0 -0.52911582920E+02  0.42056360683E+02  0.15800921488E+02  0.69412118544E+02  0.00000000000E+00 0. -1.
         13    1    3    3    0    0  0.67557285733E+01  0.29986639501E+02 -0.51815333874E+02  0.60246719758E+02  0.00000000000E+00 0.  1.
         21    1    1    2  502  501  0.22414230222E+02 -0.13477992868E+02  0.60461549287E+02  0.65876042310E+02  0.00000000000E+00 0. -1.
<scales pt_clust_5="13000.00000" pt_clust_6="13000.00000" pt_clust_7="13000.00000" pt_clust_8="13000.00000" pt_clust_9="26.15443"></scales>
<clustering>
<clus scale="   26.154">  1  9  2 -1</clus>
<clus scale="   83.611">  5  6 -1 -1</clus>
<clus scale="   90.520">  7  8 -1 -1</clus>
<clus scale="  115.145">  1  5  2 -1</clus>
<clus scale="   26.154">  1  5  2 -1</clus>
</clustering>
</event>
<event>
 9    1  0.2674825E-005  0.1182556E+03  0.7546771E-02  0.1250074E+00
         -2   -1    0    0    0  501 -0.00000000000E+00  0.00000000000E+00  0.11849582681E+03  0.11849582681E+03  0.00000000000E+00 0.  1.
          1   -1    0    0  502    0  0.00000000000E+00 -0.00000000000E+00 -0.17752078698E+03  0.17752078698E+03  0.00000000000E+00 0. -1.
        -24    2    1    2    0    0 -0.63164125721E+02  0.45068862608E+02  0.49178917084E+02  0.12285741942E+03  0.81574937737E+02 0.  0.
         23    2    1    2    0    0  0.43840308095E+02 -0.31742693719E+02 -0.10254212294E+03  0.14901272120E+03  0.93596649952E+02 0.  0.
         11    1    3    3    0    0 -0.41094782653E+02 -0.83444704866E+01 -0.67029176387E+01  0.42465756250E+02  0.00000000000E+00 0. -1.
        -12    1    3    3    0    0 -0.22069343068E+02  0.53413333095E+02  0.55881834722E+02  0.80391663173E+02  0.00000000000E+00 0.  1.
        -13    1    4    4    0    0  0.10185923000E+02 -0.36160071262E+02  0.34431362482E+01  0.37724779234E+02  0.00000000000E+00 0.  1.
         13    1    4    4    0    0  0.33654385096E+02  0.44173775426E+01 -0.10598525919E+03  0.11128794196E+03  0.00000000000E+00 0. -1.
         21    1    1    2  502  501  0.19323817626E+02 -0.13326168889E+02 -0.56617543178E+01  0.24146473176E+02  0.00000000000E+00 0. -1.
<scales pt_clust_5="13000.00000" pt_clust_6="13000.00000" pt_clust_7="13000.00000" pt_clust_8="13000.00000" pt_clust_9="23.47332"></scales>
<clustering>
<clus scale="   23.473">  2  9  1 -1</clus>
<clus scale="   81.575">  5  6 -1 -1</clus>
<clus scale="   93.597">  7  8 -1 -1</clus>
<clus scale="  108.989">  1  5  2 -1</clus>
<clus scale="   23.473">  2  5  1 -1</clus>
</clustering>
</event>
<event>
 9    1  0.2674825E-005  0.1082183E+03  0.7546771E-02  0.1268130E+00
         -2   -1    0    0    0  501 -0.00000000000E+00  0.00000000000E+00  0.14914467907E+03  0.14914467907E+03  0.00000000000E+00 0.  1.
          1   -1    0    0  502    0  0.00000000000E+00 -0.00000000000E+00 -0.10327744785E+03  0.10327744785E+03  0.00000000000E+00 0. -1.
        -24    2    1    2    0    0 -0.63009039464E+02 -0.31166497485E+01  0.70263035024E+02  0.12398735857E+03  0.80349974708E+02 0.  0.
         23    2    1    2    0    0  0.49364409245E+02 -0.13962347244E+02 -0.20636586391E+02  0.10625370012E+03  0.90731406083E+02 0.  0.
         13    1    3    3    0    0 -0.31314882425E+02 -0.36630290276E+02  0.11976871509E+02  0.49657280213E+02  0.00000000000E+00 0. -1.
        -14    1    3    3    0    0 -0.31694157040E+02  0.33513640528E+02  0.58286163515E+02  0.74330078362E+02  0.00000000000E+00 0.  1.
        -11    1    4    4    0    0  0.14575149279E+02  0.36033900618E+02  0.67829381004E+01  0.39457384854E+02  0.00000000000E+00 0.  1.
         11    1    4    4    0    0  0.34789259966E+02 -0.49996247862E+02 -0.27419524492E+02  0.66796315262E+02  0.00000000000E+00 0. -1.
         21    1    1    2  502  501  0.13644630219E+02  0.17078996992E+02 -0.37592174084E+01  0.22181068225E+02  0.00000000000E+00 0. -1.
<scales pt_clust_5="13000.00000" pt_clust_6="13000.00000" pt_clust_7="13000.00000" pt_clust_8="13000.00000" pt_clust_9="21.86019"></scales>
<clustering>
<clus scale="   21.860">  2  9  1 -1</clus>
<clus scale="   80.350">  5  6 -1 -1</clus>
<clus scale="   90.731">  7  8 -1 -1</clus>
<clus scale="   99.675">  1  5  2 -1</clus>
<clus scale="   21.860">  2  5  1 -1</clus>
</clustering>
</event>
<event>
 9    1  0.2674825E-005  0.1386039E+03  0.7546771E-02  0.1217815E+00
          1   -1    0    0  502    0  0.00000000000E+00  0.00000000000E+00  0.25015883995E+03  0.25015883995E+03  0.00000000000E+00 0. -1.
         -2   -1    0    0    0  501 -0.00000000000E+00 -0.00000000000E+00 -0.13408902599E+03  0.13408902599E+03  0.00000000000E+00 0.  1.
         23    2    1    2    0    0  0.57660486145E+02 -0.79291501179E+02 -0.47786153632E+02  0.14255856262E+03  0.91801707360E+02 0.  0.
        -24    2    1    2    0    0 -0.80119004384E+02  0.92793343380E+02  0.11498650866E+03  0.18623744311E+03  0.80204916344E+02 0.  0.
         13    1    4    4    0    0 -0.55289521203E+02  0.68781230724E+02  0.12241365700E+03  0.15090689936E+03  0.00000000000E+00 0. -1.
        -14    1    4    4    0    0 -0.24829483181E+02  0.24012112656E+02 -0.74271483455E+01  0.35330543751E+02  0.00000000000E+00 0.  1.
        -13    1    3    3    0    0  0.82420706980E+02 -0.68958214270E+02 -0.37315746351E+02  0.11375795875E+03  0.00000000000E+00 0.  1.
         13    1    3    3    0    0 -0.24760220834E+02 -0.10333286909E+02 -0.10470407281E+02  0.28800603861E+02  0.00000000000E+00 0. -1.
         21    1    1    2  502  501  0.22458518239E+02 -0.13501842201E+02  0.48869458929E+02  0.55451860206E+02  0.00000000000E+00 0. -1.
<scales pt_clust_5="13000.00000" pt_clust_6="13000.00000" pt_clust_7="13000.00000" pt_clust_8="13000.00000" pt_clust_9="26.20467"></scales>
<clustering>
<clus scale="   26.205">  1  9  2 -1</clus>
<clus scale="   80.205">  5  6 -1 -1</clus>
<clus scale="   91.802">  7  8 -1 -1</clus>
<clus scale="  131.211">  1  5  2 -1</clus>
<clus scale="   26.205">  1  5  2 -1</clus>
</clustering>
</event>
<event>
 9    1  0.2674825E-005  0.1339020E+03  0.7546771E-02  0.1224068E+00
         -2   -1    0    0    0  501 -0.00000000000E+00  0.00000000000E+00  0.71324448387E+02  0.71324448387E+02  0.00000000000E+00 0.  1.
          1   -1    0    0  502    0  0.00000000000E+00 -0.00000000000E+00 -0.42314986544E+03  0.42314986544E+03  0.00000000000E+00 0. -1.
         23    2    1    2    0    0  0.66034905286E+02  0.63206898662E+02 -0.14207018364E+03  0.19117829753E+03  0.89495718401E+02 0.  0.
        -24    2    1    2    0    0 -0.10682385116E+03 -0.31693506280E+02 -0.21114037534E+03  0.25173294207E+03  0.79833592595E+02 0.  0.
         11    1    4    4    0    0 -0.10117588468E+03 -0.11335369376E+02 -0.20630697577E+03  0.23006003237E+03  0.00000000000E+00 0. -1.
        -12    1    4    4    0    0 -0.56479664796E+01 -0.20358136904E+02 -0.48333995664E+01  0.21672909701E+02  0.00000000000E+00 0.  1.
        -13    1    3    3    0    0  0.21757217295E+02 -0.15218580904E+02 -0.47709154646E+01  0.26976718546E+02  0.00000000000E+00 0. -1.
         13    1    3    3    0    0  0.44277687991E+02  0.78425479566E+02 -0.13729926818E+03  0.16420157899E+03  0.00000000000E+00 0.  1.
         21    1    1    2  502  501  0.40788945876E+02 -0.31513392382E+02  0.13851419334E+01  0.51563074222E+02  0.00000000000E+00 0. -1.
<scales pt_clust_5="13000.00000" pt_clust_6="13000.00000" pt_clust_7="13000.00000" pt_clust_8="13000.00000" pt_clust_9="51.54447"></scales>
<clustering>
<clus scale="   51.544">  1  9  2 -1</clus>
<clus scale="   79.834">  5  6 -1 -1</clus>
<clus scale="   89.496">  7  8 -1 -1</clus>
<clus scale="  127.647">  2  5  1 -1</clus>
<clus scale="  127.647">  2  5  1 -1</clus>
</clustering>
</event>
<event>
 9    1  0.2674825E-005  0.1457793E+03  0.7546771E-02  0.1207827E+00
          1   -1    0    0  502    0  0.00000000000E+00  0.00000000000E+00  0.85073303535E+03  0.85073303535E+03  0.00000000000E+00 0. -1.
         -2   -1    0    0    0  501 -0.00000000000E+00 -0.00000000000E+00 -0.27813398391E+02  0.27813398391E+02  0.00000000000E+00 0.  1.
         23    2    1    2    0    0 -0.10424662929E+03 -0.41775522768E+01  0.38309558895E+03  0.40718594325E+03  0.90295904915E+02 0.  0.
        -24    2    1    2    0    0  0.12421148943E+03 -0.13372503483E+01  0.36445142492E+03  0.39319373925E+03  0.79662997159E+02 0.  0.
         13    1    4    4    0    0  0.98740849342E+02 -0.12488570520E+02  0.34548733008E+03  0.35953750148E+03  0.00000000000E+00 0. -1.
        -14    1    4    4    0    0  0.25470640087E+02  0.11151320171E+02  0.18964094836E+02  0.33656237772E+02  0.00000000000E+00 0.  1.
        -13    1    3    3    0    0 -0.49810949286E+02 -0.61088985131E+01  0.54418120046E+02  0.74025543559E+02  0.00000000000E+00 0.  1.
         13    1    3    3    0    0 -0.54435680004E+02  0.19313462363E+01  0.32867746891E+03  0.33316039969E+03  0.00000000000E+00 0. -1.
         21    1    1    2  502  501 -0.19964860138E+02  0.55148026251E+01  0.75372623087E+02  0.78166751240E+02  0.00000000000E+00 0.  1.
<scales pt_clust_5="13000.00000" pt_clust_6="13000.00000" pt_clust_7="13000.00000" pt_clust_8="13000.00000" pt_clust_9="20.71252"></scales>
<clustering>
<clus scale="   20.713">  1  9  2 -1</clus>
<clus scale="   79.663">  5  6 -1 -1</clus>
<clus scale="   90.296">  7  8 -1 -1</clus>
<clus scale="  139.443">  1  5  2 -1</clus>
<clus scale="   20.713">  1  5  2 -1</clus>
</clustering>
</event>
<event>
 9    1  0.2674825E-005  0.1092740E+03  0.7546771E-02  0.1265730E+00
         -2   -1    0    0    0  501 -0.00000000000E+00  0.00000000000E+00  0.34527213525E+03  0.34527213525E+03  0.00000000000E+00 0.  1.
          1   -1    0    0  502    0  0.00000000000E+00 -0.00000000000E+00 -0.10036901715E+03  0.10036901715E+03  0.00000000000E+00 0. -1.
        -24    2    1    2    0    0  0.43156932799E+02  0.40944282816E+02  0.28381412516E+03  0.30114631302E+03  0.81238470305E+02 0.  0.
         23    2    1    2    0    0 -0.64047220242E+02 -0.37378728936E+02 -0.38066975893E+02  0.12328565099E+03  0.90835242544E+02 0.  0.
         11    1    3    3    0    0 -0.19096836981E+02 -0.60278507189E+01  0.90604347296E+02  0.92791012043E+02  0.00000000000E+00 0. -1.
        -12    1    3    3    0    0  0.62253769779E+02  0.46972133535E+02  0.19320977787E+03  0.20835530098E+03  0.00000000000E+00 0.  1.
        -11    1    4    4    0    0  0.10168373991E+02 -0.41698350141E+02 -0.13981762018E+02  0.45140202738E+02  0.00000000000E+00 0.  1.
         11    1    4    4    0    0 -0.74215594232E+02  0.43196212048E+01 -0.24085213875E+02  0.78145448249E+02  0.00000000000E+00 0. -1.
         21    1    1    2  502  501  0.20890287443E+02 -0.35655538796E+01 -0.84403116880E+00  0.21209188399E+02  0.00000000000E+00 0. -1.
<scales pt_clust_5="13000.00000" pt_clust_6="13000.00000" pt_clust_7="13000.00000" pt_clust_8="13000.00000" pt_clust_9="21.19239"></scales>
<clustering>
<clus scale="   21.192">  2  9  1 -1</clus>
<clus scale="   81.238">  5  6 -1 -1</clus>
<clus scale="   90.835">  7  8 -1 -1</clus>
<clus scale="  101.437">  1  5  2 -1</clus>
<clus scale="   21.192">  2  5  1 -1</clus>
</clustering>
</event>
<event>
 9    1  0.2674825E-005  0.1205776E+03  0.7546771E-02  0.1246441E+00
          1   -1    0    0  502    0  0.00000000000E+00  0.00000000000E+00  0.39984516148E+03  0.39984516148E+03  0.00000000000E+00 0. -1.
         -2   -1    0    0    0  501 -0.00000000000E+00 -0.00000000000E+00 -0.62427382029E+02  0.62427382029E+02  0.00000000000E+00 0.  1.
        -24    2    1    2    0    0  0.98856697888E+00 -0.75559706912E+02  0.74704802610E+02  0.13232834468E+03  0.78865307319E+02 0.  0.
         23    2    1    2    0    0 -0.42020547257E+02  0.74399425614E+02  0.96043256180E+02  0.15829407374E+03  0.92367233372E+02 0.  0.
         11    1    3    3    0    0 -0.22799658199E+02 -0.38527550918E+02 -0.97640304176E+00  0.44778900797E+02  0.00000000000E+00 0. -1.
        -12    1    3    3    0    0  0.23788225178E+02 -0.37032155995E+02  0.75681205652E+02  0.87549443880E+02  0.00000000000E+00 0.  1.
        -13    1    4    4    0    0 -0.56291054433E+02  0.67602786118E+01  0.43934953987E+02  0.71726315658E+02  0.00000000000E+00 0.  1.
         13    1    4    4    0    0  0.14270507176E+02  0.67639147002E+02  0.52108302194E+02  0.86567758084E+02  0.00000000000E+00 0. -1.
         21    1    1    2  502  501  0.41031980278E+02  0.11602812990E+01  0.16666972066E+03  0.17165012509E+03  0.00000000000E+00 0. -1.
<scales pt_clust_5="13000.00000" pt_clust_6="13000.00000" pt_clust_7="13000.00000" pt_clust_8="13000.00000" pt_clust_9="41.04838"></scales>
<clustering>
<clus scale="   41.048">  1  9  2 -1</clus>
<clus scale="   78.865">  5  6 -1 -1</clus>
<clus scale="   92.367">  7  8 -1 -1</clus>
<clus scale="  110.576">  2  5  1 -1</clus>
<clus scale="   41.048">  1  5  2 -1</clus>
</clustering>
</event>
<event>
 9    1  0.2674825E-005  0.1117573E+03  0.7546771E-02  0.1262161E+00
         -4   -1    0    0    0  501 -0.00000000000E+00  0.00000000000E+00  0.45485185290E+02  0.45485185290E+02  0.00000000000E+00 0.  1.
          3   -1    0    0  502    0  0.00000000000E+00 -0.00000000000E+00 -0.80049311790E+03  0.80049311790E+03  0.00000000000E+00 0. -1.
        -24    2    1    2    0    0 -0.22794864378E+02  0.62664147853E+02 -0.35094036582E+02  0.11034743028E+03  0.80613663215E+02 0.  0.
         23    2    1    2    0    0  0.39664186855E+02 -0.19723289197E+02 -0.43697540737E+03  0.44895565643E+03  0.93013004133E+02 0.  0.
         11    1    3    3    0    0  0.10526958949E+02  0.36831858610E+02 -0.52284293279E+02  0.64815507380E+02  0.00000000000E+00 0. -1.
        -12    1    3    3    0    0 -0.33321823326E+02  0.25832289243E+02  0.17190256696E+02  0.45531922896E+02  0.00000000000E+00 0.  1.
        -11    1    4    4    0    0 -0.17596105733E+02 -0.37032126147E+02 -0.22483176667E+03  0.22853954714E+03  0.00000000000E+00 0.  1.
         11    1    4    4    0    0  0.57260292587E+02  0.17308836950E+02 -0.21214364071E+03  0.22041610929E+03  0.00000000000E+00 0. -1.
         21    1    1    2  502  501 -0.16869322477E+02 -0.42940858656E+02 -0.28293848865E+03  0.28667521648E+03  0.00000000000E+00 0. -1.
<scales pt_clust_5="13000.00000" pt_clust_6="13000.00000" pt_clust_7="13000.00000" pt_clust_8="13000.00000" pt_clust_9="46.13558"></scales>
<clustering>
<clus scale="   46.136">  2  9  1 -1</clus>
<clus scale="   80.614">  5  6 -1 -1</clus>
<clus scale="   93.013">  7  8 -1 -1</clus>
<clus scale="  101.670">  1  5  2 -1</clus>
<clus scale="   46.136">  2  5  1 -1</clus>
</clustering>
</event>
<event>
 9    1  0.2674825E-005  0.1356749E+03  0.7546771E-02  0.1222142E+00
          3   -1    0    0  502    0  0.00000000000E+00  0.00000000000E+00  0.95817615491E+02  0.95817615491E+02  0.00000000000E+00 0. -1.
         -4   -1    0    0    0  501 -0.00000000000E+00 -0.00000000000E+00 -0.50720601431E+03  0.50720601431E+03  0.00000000000E+00 0.  1.
        -24    2    1    2    0    0  0.68858236473E+02 -0.87240205672E+02 -0.33079550267E+03  0.35813336189E+03  0.80507950497E+02 0.  0.
         23    2    1    2    0    0  0.12658804187E+02  0.91138400464E+02 -0.95757213265E+02  0.16188315765E+03  0.92575695919E+02 0.  0.
         13    1    3    3    0    0  0.55172488628E+02 -0.12398374198E+02 -0.97114652104E+02  0.11237872947E+03  0.00000000000E+00 0. -1.
        -14    1    3    3    0    0  0.13685747846E+02 -0.74841831474E+02 -0.23368085057E+03  0.24575463242E+03  0.00000000000E+00 0.  1.
        -13    1    4    4    0    0 -0.37042951342E+02  0.31429366138E+02 -0.17562502646E+02  0.51656817548E+02  0.00000000000E+00 0. -1.
         13    1    4    4    0    0  0.49701755529E+02  0.59709034326E+02 -0.78194710619E+02  0.11022634010E+03  0.00000000000E+00 0.  1.
         21    1    1    2  502  501 -0.81517040660E+02 -0.38981947918E+01  0.15164317120E+02  0.83007110264E+02  0.00000000000E+00 0. -1.
<scales pt_clust_5="13000.00000" pt_clust_6="13000.00000" pt_clust_7="13000.00000" pt_clust_8="13000.00000" pt_clust_9="81.61019"></scales>
<clustering>
<clus scale="   80.508">  5  6 -1 -1</clus>
<clus scale="   81.610">  1  9  2 -1</clus>
<clus scale="   92.576">  7  8 -1 -1</clus>
<clus scale="  127.746">  2  5  1 -1</clus>
<clus scale="   81.610">  1  5  2 -1</clus>
</clustering>
</event>
<event>
 9    1  0.2674825E-005  0.1216847E+03  0.7546771E-02  0.1243622E+00
         -2   -1    0    0    0  501 -0.00000000000E+00  0.00000000000E+00  0.36836684851E+02  0.36836684851E+02  0.00000000000E+00 0.  1.
          1   -1    0    0  502    0  0.00000000000E+00 -0.00000000000E+00 -0.66738258486E+03  0.66738258486E+03  0.00000000000E+00 0. -1.
         23    2    1    2    0    0  0.22949759413E+01 -0.78319611331E+02 -0.11054625964E+03  0.16344336899E+03  0.91400387922E+02 0.  0.
        -24    2    1    2    0    0  0.21326251442E+02  0.85568274267E+02 -0.37221716011E+03  0.39094210290E+03  0.80705482966E+02 0.  0.
         11    1    4    4    0    0  0.46434075286E+02  0.59602972430E+02 -0.30929801365E+03  0.31839268037E+03  0.00000000000E+00 0. -1.
        -12    1    4    4    0    0 -0.25107823844E+02  0.25965301836E+02 -0.62919146464E+02  0.72549422530E+02  0.00000000000E+00 0.  1.
        -13    1    3    3    0    0  0.76660022696E+00 -0.29676774527E+02  0.11666733999E+02  0.31896885497E+02  0.00000000000E+00 0.  1.
         13    1    3    3    0    0  0.15283757144E+01 -0.48642836805E+02 -0.12221299364E+03  0.13154648349E+03  0.00000000000E+00 0. -1.
         21    1    1    2  502  501 -0.23621227383E+02 -0.72486629353E+01 -0.14778248026E+03  0.14983379782E+03  0.00000000000E+00 0. -1.
<scales pt_clust_5="13000.00000" pt_clust_6="13000.00000" pt_clust_7="13000.00000" pt_clust_8="13000.00000" pt_clust_9="24.70841"></scales>
<clustering>
<clus scale="   24.708">  2  9  1 -1</clus>
<clus scale="   80.705">  5  6 -1 -1</clus>
<clus scale="   91.400">  7  8 -1 -1</clus>
<clus scale="  113.871">  2  5  1 -1</clus>
<clus scale="   24.708">  2  5  1 -1</clus>
</clustering>
</event>
<event>
 9    1  0.2674825E-005  0.1014598E+03  0.7546771E-02  0.1283025E+00
         -2   -1    0    0    0  501 -0.00000000000E+00  0.00000000000E+00  0.54165383150E+02  0.54165383150E+02  0.00000000000E+00 0.  1.
          1   -1    0    0  502    0  0.00000000000E+00 -0.00000000000E+00 -0.29388450296E+03  0.29388450296E+03  0.00000000000E+00 0. -1.
         23    2    1    2    0    0  0.46857296598E+02  0.20245206632E+02 -0.33921443125E+02  0.11110180227E+03  0.92668611345E+02 0.  0.
        -24    2    1    2    0    0 -0.24038681408E+02 -0.36575443659E+00 -0.12691308846E+03  0.15245749218E+03  0.80983720093E+02 0.  0.
         13    1    4    4    0    0 -0.51342135580E+02  0.49443629150E+01 -0.10522338370E+03  0.11718541755E+03  0.00000000000E+00 0. -1.
        -14    1    4    4    0    0  0.27303454172E+02 -0.53101173516E+01 -0.21689704766E+02  0.35272074632E+02  0.00000000000E+00 0.  1.
        -13    1    3    3    0    0  0.31696612641E+01  0.30987057055E+02  0.22875083074E+02  0.38646007337E+02  0.00000000000E+00 0.  1.
         13    1    3    3    0    0  0.43687635334E+02 -0.10741850422E+02 -0.56796526199E+02  0.72455794936E+02  0.00000000000E+00 0. -1.
         21    1    1    2  502  501 -0.22818615190E+02 -0.19879452196E+02 -0.78884588229E+02  0.84490591658E+02  0.00000000000E+00 0. -1.
<scales pt_clust_5="13000.00000" pt_clust_6="13000.00000" pt_clust_7="13000.00000" pt_clust_8="13000.00000" pt_clust_9="30.26354"></scales>
<clustering>
<clus scale="   30.264">  2  9  1 -1</clus>
<clus scale="   80.984">  5  6 -1 -1</clus>
<clus scale="   90.912">  2  5  1 -1</clus>
<clus scale="   92.669">  7  8 -1 -1</clus>
<clus scale="   30.264">  2  5  1 -1</clus>
</clustering>
</event>
<event>
 9    1  0.2674825E-005  0.9307429E+02  0.7546771E-02  0.1302673E+00
          1   -1    0    0  502    0  0.00000000000E+00  0.00000000000E+00  0.44526591072E+03  0.44526591072E+03  0.00000000000E+00 0. -1.
         -2   -1    0    0    0  501 -0.00000000000E+00 -0.00000000000E+00 -0.62003857018E+02  0.62003857018E+02  0.00000000000E+00 0.  1.
         23    2    1    2    0    0 -0.19011858056E+02 -0.95987961643E+01 -0.13152106954E+02  0.94626508456E+02  0.91255742563E+02 0.  0.
        -24    2    1    2    0    0  0.49449826373E+01 -0.19668044145E+02  0.28653835077E+03  0.29806962129E+03  0.79561220813E+02 0.  0.
         13    1    4    4    0    0  0.13346688174E+02  0.27602846538E+02  0.72574585569E+02  0.78785288555E+02  0.00000000000E+00 0. -1.
        -14    1    4    4    0    0 -0.84017055365E+01 -0.47270890682E+02  0.21396376520E+03  0.21928433273E+03  0.00000000000E+00 0.  1.
        -11    1    3    3    0    0 -0.37233755286E+02 -0.36747928636E+02 -0.27289168668E+02  0.59003911042E+02  0.00000000000E+00 0.  1.
         11    1    3    3    0    0  0.18221897229E+02  0.27149132471E+02  0.14137061714E+02  0.35622597414E+02  0.00000000000E+00 0. -1.
         21    1    1    2  502  501  0.14066875419E+02  0.29266840309E+02  0.10987580989E+03  0.11457363800E+03  0.00000000000E+00 0. -1.
<scales pt_clust_5="13000.00000" pt_clust_6="13000.00000" pt_clust_7="13000.00000" pt_clust_8="13000.00000" pt_clust_9="32.47191"></scales>
<clustering>
<clus scale="   32.472">  1  9  2 -1</clus>
<clus scale="   79.561">  5  6 -1 -1</clus>
<clus scale="   81.641">  1  5  2 -1</clus>
<clus scale="   91.256">  7  8 -1 -1</clus>
<clus scale="   32.472">  1  5  2 -1</clus>
</clustering>
</event>
<event>
 9    1  0.2674825E-005  0.2586543E+03  0.7546771E-02  0.1136824E+00
         -2   -1    0    0    0  501 -0.00000000000E+00  0.00000000000E+00  0.17451556450E+03  0.17451556450E+03  0.00000000000E+00 0.  1.
          1   -1    0    0  502    0  0.00000000000E+00 -0.00000000000E+00 -0.10382496174E+04  0.10382496174E+04  0.00000000000E+00 0. -1.
        -24    2    1    2    0    0  0.26810572024E+02  0.95043344809E+02  0.45404904807E+02  0.13395820238E+03  0.78301663063E+02 0.  0.
         23    2    1    2    0    0 -0.34204438640E+02  0.16995237268E+03 -0.85735262440E+02  0.21378036438E+03  0.91092021405E+02 0.  0.
         11    1    3    3    0    0  0.46588932417E+02  0.45876519357E+02  0.19328121413E+01  0.65413449801E+02  0.00000000000E+00 0. -1.
        -12    1    3    3    0    0 -0.19778360392E+02  0.49166825452E+02  0.43472092666E+02  0.68544752575E+02  0.00000000000E+00 0.  1.
        -11    1    4    4    0    0 -0.10905812610E+02  0.10587232373E+03 -0.97792816449E+02  0.14453830160E+03  0.00000000000E+00 0.  1.
         11    1    4    4    0    0 -0.23298626030E+02  0.64080048948E+02  0.12057554009E+02  0.69242062771E+02  0.00000000000E+00 0. -1.
         21    1    1    2  502  501  0.73938666160E+01 -0.26499571749E+03 -0.82340369531E+03  0.86502661520E+03  0.00000000000E+00 0. -1.
<scales pt_clust_5="13000.00000" pt_clust_6="13000.00000" pt_clust_7="13000.00000" pt_clust_8="13000.00000" pt_clust_9="242.08319"></scales>
<clustering>
<clus scale="   78.302">  5  6 -1 -1</clus>
<clus scale="   91.092">  7  8 -1 -1</clus>
<clus scale="  126.029">  1  5  2 -1</clus>
<clus scale="  242.083">  2  9  1 -1</clus>
<clus scale="  242.083">  2  5  1 -1</clus>
</clustering>
</event>
<event>
 9    1  0.2674825E-005  0.9911381E+02  0.7546771E-02  0.1288553E+00
         -2   -1    0    0    0  501 -0.00000000000E+00  0.00000000000E+00  0.35441297436E+03  0.35441297436E+03  0.00000000000E+00 0.  1.
          1   -1    0    0  502    0  0.00000000000E+00 -0.00000000000E+00 -0.80662608109E+02  0.80662608109E+02  0.00000000000E+00 0. -1.
         23    2    1    2    0    0  0.32813205224E+01 -0.38888946179E+02  0.29915810128E+03  0.31547620604E+03  0.92230959115E+02 0.  0.
        -24    2    1    2    0    0  0.20902297698E+02  0.18553756497E+02 -0.23418762740E+02  0.87939885902E+02  0.80023978625E+02 0.  0.
         11    1    4    4    0    0  0.29831852801E+02 -0.10394438113E+02  0.18203524515E+02  0.36460280991E+02  0.00000000000E+00 0. -1.
        -12    1    4    4    0    0 -0.89295551026E+01  0.28948194610E+02 -0.41622287254E+02  0.51479604911E+02  0.00000000000E+00 0.  1.
        -13    1    3    3    0    0  0.17572488304E+02 -0.65851072734E+02  0.22998276155E+03  0.23986918672E+03  0.00000000000E+00 0.  1.
         13    1    3    3    0    0 -0.14291167782E+02  0.26962126555E+02  0.69175339727E+02  0.75607019326E+02  0.00000000000E+00 0. -1.
         21    1    1    2  502  501 -0.24183618221E+02  0.20335189682E+02 -0.19889722846E+01  0.31659490526E+02  0.00000000000E+00 0.  1.
<scales pt_clust_5="13000.00000" pt_clust_6="13000.00000" pt_clust_7="13000.00000" pt_clust_8="13000.00000" pt_clust_9="31.59695"></scales>
<clustering>
<clus scale="   31.597">  2  9  1 -1</clus>
<clus scale="   80.024">  5  6 -1 -1</clus>
<clus scale="   87.868">  2  5  1 -1</clus>
<clus scale="   92.231">  7  8 -1 -1</clus>
<clus scale="   31.597">  2  5  1 -1</clus>
</clustering>
</event>
<event>
 9    1  0.2674825E-005  0.2237186E+03  0.7546771E-02  0.1158656E+00
          1   -1    0    0  502    0  0.00000000000E+00  0.00000000000E+00  0.84092380913E+03  0.84092380913E+03  0.00000000000E+00 0. -1.
         -2   -1    0    0    0  501 -0.00000000000E+00 -0.00000000000E+00 -0.12100489814E+03  0.12100489814E+03  0.00000000000E+00 0.  1.
        -24    2    1    2    0    0 -0.17805486525E+02 -0.80807531811E+02  0.64279249869E+02  0.13249802999E+03  0.81098788158E+02 0.  0.
         23    2    1    2    0    0  0.17251785830E+03 -0.95954455463E+02  0.50664733131E+03  0.55125908910E+03  0.90693969135E+02 0.  0.
         13    1    3    3    0    0 -0.16173421415E+02 -0.21526541413E+02 -0.17030487163E+02  0.31859206495E+02  0.00000000000E+00 0. -1.
        -14    1    3    3    0    0 -0.16320651102E+01 -0.59280990398E+02  0.81309737032E+02  0.10063882350E+03  0.00000000000E+00 0.  1.
        -13    1    4    4    0    0  0.89765419201E+02 -0.66681068347E+02  0.38722597027E+03  0.40304856706E+03  0.00000000000E+00 0.  1.
         13    1    4    4    0    0  0.82752439098E+02 -0.29273387116E+02  0.11942136104E+03  0.14821052203E+03  0.00000000000E+00 0. -1.
         21    1    1    2  502  501 -0.15471237177E+03  0.17676198727E+03  0.14899232981E+03  0.27817158818E+03  0.00000000000E+00 0. -1.
<scales pt_clust_5="13000.00000" pt_clust_6="13000.00000" pt_clust_7="13000.00000" pt_clust_8="13000.00000" pt_clust_9="204.51062"></scales>
<clustering>
<clus scale="   81.099">  5  6 -1 -1</clus>
<clus scale="   90.694">  7  8 -1 -1</clus>
<clus scale="  115.862">  2  5  1 -1</clus>
<clus scale="  204.511">  2  9  1 -1</clus>
<clus scale="  223.719">  1  5  2 -1</clus>
</clustering>
</event>
<event>
 9    1  0.2674825E-005  0.1183655E+03  0.7546771E-02  0.1251135E+00
          1   -1    0    0  502    0  0.00000000000E+00  0.00000000000E+00  0.65584417112E+02  0.65584417112E+02  0.00000000000E+00 0. -1.
         -2   -1    0    0    0  501 -0.00000000000E+00 -0.00000000000E+00 -0.41146250611E+03  0.41146250611E+03  0.00000000000E+00 0.  1.
        -24    2    1    2    0    0  0.56547912350E+02  0.20912134921E+02 -0.17582509386E+03  0.20077368635E+03  0.75898786050E+02 0.  0.
         23    2    1    2    0    0 -0.96404183040E+02 -0.73131477240E+02 -0.11505487031E+03  0.19059841116E+03  0.91913827486E+02 0.  0.
         13    1    3    3    0    0  0.72122010834E+02  0.23781257832E+02 -0.16486491895E+03  0.18151466655E+03  0.00000000000E+00 0. -1.
        -14    1    3    3    0    0 -0.15574098485E+02 -0.28691229113E+01 -0.10960174904E+02  0.19259019804E+02  0.00000000000E+00 0.  1.
        -13    1    4    4    0    0 -0.24991086534E+02 -0.20257999304E+02 -0.93900818355E+02  0.99258776084E+02  0.00000000000E+00 0. -1.
         13    1    4    4    0    0 -0.71413096506E+02 -0.52873477936E+02 -0.21154051958E+02  0.91339635076E+02  0.00000000000E+00 0.  1.
         21    1    1    2  502  501  0.39856270691E+02  0.52219342320E+02 -0.54998124832E+02  0.85674825711E+02  0.00000000000E+00 0. -1.
<scales pt_clust_5="13000.00000" pt_clust_6="13000.00000" pt_clust_7="13000.00000" pt_clust_8="13000.00000" pt_clust_9="65.69157"></scales>
<clustering>
<clus scale="   65.692">  1  9  2 -1</clus>
<clus scale="   75.899">  5  6 -1 -1</clus>
<clus scale="   91.914">  7  8 -1 -1</clus>
<clus scale="  106.409">  2  5  1 -1</clus>
<clus scale="   65.692">  1  5  2 -1</clus>
</clustering>
</event>
<event>
 9    1  0.2674825E-005  0.1080787E+03  0.7546771E-02  0.1268835E+00
         -2   -1    0    0    0  501 -0.00000000000E+00  0.00000000000E+00  0.12493867875E+03  0.12493867875E+03  0.00000000000E+00 0.  1.
          1   -1    0    0  502    0  0.00000000000E+00 -0.00000000000E+00 -0.24713463379E+03  0.24713463379E+03  0.00000000000E+00 0. -1.
        -24    2    1    2    0    0 -0.59271676464E+02 -0.40955430736E+01  0.78311514923E+02  0.12788869838E+03  0.81810272578E+02 0.  0.
         23    2    1    2    0    0  0.34573568374E+02  0.39064397698E+01 -0.10067418296E+03  0.14134144474E+03  0.92905979274E+02 0.  0.
         13    1    3    3    0    0 -0.13738112009E+02 -0.29756790705E+02 -0.11308897205E+01  0.32794530431E+02  0.00000000000E+00 0. -1.
        -14    1    3    3    0    0 -0.45533564455E+02  0.25661247631E+02  0.79442404643E+02  0.95094167947E+02  0.00000000000E+00 0.  1.
        -11    1    4    4    0    0  0.60698553517E+02  0.24442305049E+02 -0.73568219944E+02  0.98458233078E+02  0.00000000000E+00 0. -1.
         11    1    4    4    0    0 -0.26124985142E+02 -0.20535865280E+02 -0.27105963019E+02  0.42883211664E+02  0.00000000000E+00 0.  1.
         21    1    1    2  502  501  0.24698108090E+02  0.18910330380E+00 -0.99833287002E+02  0.10284316942E+03  0.00000000000E+00 0. -1.
<scales pt_clust_5="13000.00000" pt_clust_6="13000.00000" pt_clust_7="13000.00000" pt_clust_8="13000.00000" pt_clust_9="24.69883"></scales>
<clustering>
<clus scale="   24.699">  2  9  1 -1</clus>
<clus scale="   81.810">  5  6 -1 -1</clus>
<clus scale="   92.906">  7  8 -1 -1</clus>
<clus scale="   98.704">  1  5  2 -1</clus>
<clus scale="   24.699">  2  5  1 -1</clus>
</clustering>
</event>
<event>
 9    1  0.2674825E-005  0.1338216E+03  0.7546771E-02  0.1224012E+00
         -4   -1    0    0    0  501 -0.00000000000E+00  0.00000000000E+00  0.18793393216E+03  0.18793393216E+03  0.00000000000E+00 0.  1.
          3   -1    0    0  502    0  0.00000000000E+00 -0.00000000000E+00 -0.15088358275E+03  0.15088358275E+03  0.00000000000E+00 0. -1.
         23    2    1    2    0    0 -0.50058420068E+02  0.94039165529E+02  0.10425946116E+03  0.17396113745E+03  0.89684067855E+02 0.  0.
        -24    2    1    2    0    0  0.51497707536E+02 -0.66592504776E+02 -0.33547543662E+02  0.12139959547E+03  0.80782724155E+02 0.  0.
         13    1    4    4    0    0  0.49775063662E+02 -0.10240683405E+01 -0.55889241477E+01  0.50098320846E+02  0.00000000000E+00 0. -1.
        -14    1    4    4    0    0  0.17226438739E+01 -0.65568436435E+02 -0.27958619515E+02  0.71301274628E+02  0.00000000000E+00 0.  1.
        -13    1    3    3    0    0  0.97518374276E+01  0.54143430367E+02  0.10828533531E+02  0.56070192826E+02  0.00000000000E+00 0. -1.
         13    1    3    3    0    0 -0.59810257496E+02  0.39895735163E+02  0.93430927628E+02  0.11789094462E+03  0.00000000000E+00 0.  1.
         21    1    1    2  502  501 -0.14392874678E+01 -0.27446660753E+02 -0.33661568082E+02  0.43456781987E+02  0.00000000000E+00 0. -1.
<scales pt_clust_5="13000.00000" pt_clust_6="13000.00000" pt_clust_7="13000.00000" pt_clust_8="13000.00000" pt_clust_9="27.48437"></scales>
<clustering>
<clus scale="   27.484">  2  9  1 -1</clus>
<clus scale="   80.783">  5  6 -1 -1</clus>
<clus scale="   89.684">  7  8 -1 -1</clus>
<clus scale="  128.027">  2  5  1 -1</clus>
<clus scale="   27.484">  2  5  1 -1</clus>
</clustering>
</event>
<event>
 9    1  0.2674825E-005  0.2485754E+03  0.7546771E-02  0.1115188E+00
         -2   -1    0    0    0  501 -0.00000000000E+00  0.00000000000E+00  0.27253719638E+03  0.27253719638E+03  0.00000000000E+00 0.  1.
          1   -1    0    0  502    0  0.00000000000E+00 -0.00000000000E+00 -0.60523355774E+03  0.60523355774E+03  0.00000000000E+00 0. -1.
        -24    2    1    2    0    0  0.77777470491E+02 -0.20528416115E+03  0.13939353853E+03  0.27206701932E+03  0.79993641527E+02 0.  0.
         23    2    1    2    0    0 -0.75046973464E+02  0.27242959475E+03 -0.31131383491E+03  0.43144843950E+03  0.96858246013E+02 0.  0.
         13    1    3    3    0    0 -0.79968533364E+01 -0.40498182769E+02  0.25971594186E+01  0.41361790434E+02  0.00000000000E+00 0. -1.
        -14    1    3    3    0    0  0.85774323828E+02 -0.16478597838E+03  0.13679637911E+03  0.23070522889E+03  0.00000000000E+00 0.  1.
        -11    1    4    4    0    0 -0.22964350244E+02  0.51664233174E+02 -0.12757222246E+03  0.13953933608E+03  0.00000000000E+00 0.  1.
         11    1    4    4    0    0 -0.52082623220E+02  0.22076536157E+03 -0.18374161245E+03  0.29190910342E+03  0.00000000000E+00 0. -1.
         21    1    1    2  502  501 -0.27304970271E+01 -0.67145433593E+02 -0.16077606498E+03  0.17425529529E+03  0.00000000000E+00 0.  1.
<scales pt_clust_5="13000.00000" pt_clust_6="13000.00000" pt_clust_7="13000.00000" pt_clust_8="13000.00000" pt_clust_9="67.20093"></scales>
<clustering>
<clus scale="   67.201">  2  9  1 -1</clus>
<clus scale="   79.994">  5  6 -1 -1</clus>
<clus scale="   96.858">  7  8 -1 -1</clus>
<clus scale="  242.502">  1  5  2 -1</clus>
<clus scale="   67.201">  2  5  1 -1</clus>
</clustering>
</event>
<event>
 9    1  0.2674825E-005  0.1106727E+03  0.7546771E-02  0.1263495E+00
         -2   -1    0    0    0  501 -0.00000000000E+00  0.00000000000E+00  0.12098588451E+03  0.12098588451E+03  0.00000000000E+00 0.  1.
          1   -1    0    0  502    0  0.00000000000E+00 -0.00000000000E+00 -0.27816562239E+03  0.27816562239E+03  0.00000000000E+00 0. -1.
         23    2    1    2    0    0 -0.43185634575E+01  0.58247879889E+02  0.65032415292E+02  0.12700989095E+03  0.92145709929E+02 0.  0.
        -24    2    1    2    0    0 -0.14350496417E+02 -0.82891426879E+02 -0.20662264743E+03  0.23751690087E+03  0.81513399940E+02 0.  0.
         11    1    4    4    0    0 -0.37367674911E+02 -0.52512236649E+02 -0.17954797269E+03  0.19076517665E+03  0.00000000000E+00 0. -1.
        -12    1    4    4    0    0  0.23017178493E+02 -0.30379190230E+02 -0.27074674737E+02  0.46751724214E+02  0.00000000000E+00 0.  1.
        -11    1    3    3    0    0  0.12565638055E+02  0.80281175491E+02  0.46325686268E+02  0.93536258243E+02  0.00000000000E+00 0.  1.
         11    1    3    3    0    0 -0.16884201512E+02 -0.22033295602E+02  0.18706729024E+02  0.33473632706E+02  0.00000000000E+00 0. -1.
         21    1    1    2  502  501  0.18669059875E+02  0.24643546990E+02 -0.15589505744E+02  0.34624715077E+02  0.00000000000E+00 0.  1.
<scales pt_clust_5="13000.00000" pt_clust_6="13000.00000" pt_clust_7="13000.00000" pt_clust_8="13000.00000" pt_clust_9="30.91663"></scales>
<clustering>
<clus scale="   30.917">  2  9  1 -1</clus>
<clus scale="   81.513">  5  6 -1 -1</clus>
<clus scale="   92.146">  7  8 -1 -1</clus>
<clus scale="  101.990">  2  5  1 -1</clus>
<clus scale="   30.917">  2  5  1 -1</clus>
</clustering>
</event>
<event>
 9    1  0.2674825E-005  0.1054233E+03  0.7546771E-02  0.1274826E+00
          3   -1    0    0  502    0  0.00000000000E+00  0.00000000000E+00  0.10823708371E+03  0.10823708371E+03  0.00000000000E+00 0. -1.
         -4   -1    0    0    0  501 -0.00000000000E+00 -0.00000000000E+00 -0.24568438761E+03  0.24568438761E+03  0.00000000000E+00 0.  1.
        -24    2    1    2    0    0 -0.14389738498E+02 -0.47788075344E+02 -0.16323686962E+03  0.18863595930E+03  0.80290004472E+02 0.  0.
         23    2    1    2    0    0 -0.15848704922E+02  0.56627026243E+02 -0.18146903036E+02  0.11122162574E+03  0.92645228655E+02 0.  0.
         13    1    3    3    0    0 -0.62683719674E+01  0.19482048923E+02 -0.14171834163E+02  0.24893444939E+02  0.00000000000E+00 0. -1.
        -14    1    3    3    0    0 -0.81213665309E+01 -0.67270124267E+02 -0.14906503545E+03  0.16374251436E+03  0.00000000000E+00 0.  1.
        -11    1    4    4    0    0 -0.45082201875E+02 -0.78556819477E+00 -0.40490435365E+01  0.45270484831E+02  0.00000000000E+00 0.  1.
         11    1    4    4    0    0  0.29233496953E+02  0.57412594437E+02 -0.14097859499E+02  0.65951140904E+02  0.00000000000E+00 0. -1.
         21    1    1    2  502  501  0.30238443420E+02 -0.88389508982E+01  0.43936468762E+02  0.54063886289E+02  0.00000000000E+00 0. -1.
<scales pt_clust_5="13000.00000" pt_clust_6="13000.00000" pt_clust_7="13000.00000" pt_clust_8="13000.00000" pt_clust_9="31.50382"></scales>
<clustering>
<clus scale="   31.504">  1  9  2 -1</clus>
<clus scale="   80.290">  5  6 -1 -1</clus>
<clus scale="   92.645">  7  8 -1 -1</clus>
<clus scale="   94.749">  2  5  1 -1</clus>
<clus scale="   31.504">  1  5  2 -1</clus>
</clustering>
</event>
<event>
 9    1  0.2674825E-005  0.9915767E+02  0.7546771E-02  0.1285436E+00
          1   -1    0    0  502    0  0.00000000000E+00  0.00000000000E+00  0.30548763410E+03  0.30548763410E+03  0.00000000000E+00 0. -1.
         -2   -1    0    0    0  501 -0.00000000000E+00 -0.00000000000E+00 -0.14796364181E+03  0.14796364181E+03  0.00000000000E+00 0.  1.
         23    2    1    2    0    0  0.94549579654E+01 -0.38147926812E+02 -0.11303199597E+03  0.15010687771E+03  0.90615573003E+02 0.  0.
        -24    2    1    2    0    0 -0.36962635587E+02  0.40541717730E+02  0.15539925981E+03  0.18492364550E+03  0.83892534900E+02 0.  0.
         11    1    4    4    0    0  0.42061832940E+01  0.56062861540E+02  0.85296512579E+02  0.10215787527E+03  0.00000000000E+00 0. -1.
        -12    1    4    4    0    0 -0.41168818881E+02 -0.15521143810E+02  0.70102747229E+02  0.82765770233E+02  0.00000000000E+00 0.  1.
        -13    1    3    3    0    0  0.25369737078E+02 -0.54844784304E+02 -0.11170489314E+03  0.12700219320E+03  0.00000000000E+00 0.  1.
         13    1    3    3    0    0 -0.15914779113E+02  0.16696857492E+02 -0.13271028301E+01  0.23104684508E+02  0.00000000000E+00 0. -1.
         21    1    1    2  502  501  0.27507677621E+02 -0.23937909172E+01  0.11515672846E+03  0.11842075271E+03  0.00000000000E+00 0. -1.
<scales pt_clust_5="13000.00000" pt_clust_6="13000.00000" pt_clust_7="13000.00000" pt_clust_8="13000.00000" pt_clust_9="27.61164"></scales>
<clustering>
<clus scale="   27.612">  1  9  2 -1</clus>
<clus scale="   83.893">  5  6 -1 -1</clus>
<clus scale="   90.616">  7  8 -1 -1</clus>
<clus scale="   93.054">  1  5  2 -1</clus>
<clus scale="   27.612">  1  5  2 -1</clus>
</clustering>
</event>
<event>
 9    1  0.2674825E-005  0.1937621E+03  0.7546771E-02  0.1172121E+00
         -2   -1    0    0    0  501 -0.00000000000E+00  0.00000000000E+00  0.26582492951E+03  0.26582492951E+03  0.00000000000E+00 0.  1.
          1   -1    0    0  502    0  0.00000000000E+00 -0.00000000000E+00 -0.32317384977E+03  0.32317384977E+03  0.00000000000E+00 0. -1.
         23    2    1    2    0    0 -0.82090471276E+02  0.44368747169E+02 -0.58009617861E+01  0.13086201695E+03  0.91563011759E+02 0.  0.
        -24    2    1    2    0    0 -0.10929504962E+03  0.28419913172E+01  0.13290751950E+03  0.18817177426E+03  0.76096800879E+02 0.  0.
         11    1    4    4    0    0 -0.68673935790E+02 -0.29463816479E+02  0.48509149642E+02  0.89091882556E+02  0.00000000000E+00 0. -1.
        -12    1    4    4    0    0 -0.40621113827E+02  0.32305807797E+02  0.84398369855E+02  0.99079891704E+02  0.00000000000E+00 0.  1.
        -13    1    3    3    0    0 -0.47886301203E+02 -0.70647276523E+01 -0.37689982304E+02  0.61347721928E+02  0.00000000000E+00 0.  1.
         13    1    3    3    0    0 -0.34204170074E+02  0.51433474822E+02  0.31889020517E+02  0.69514295021E+02  0.00000000000E+00 0. -1.
         21    1    1    2  502  501  0.19138552089E+03 -0.47210738487E+02 -0.18445547797E+03  0.26996498808E+03  0.00000000000E+00 0. -1.
<scales pt_clust_5="13000.00000" pt_clust_6="13000.00000" pt_clust_7="13000.00000" pt_clust_8="13000.00000" pt_clust_9="178.19378"></scales>
<clustering>
<clus scale="   76.097">  5  6 -1 -1</clus>
<clus scale="   91.563">  7  8 -1 -1</clus>
<clus scale="  130.733">  1  7  2 -1</clus>
<clus scale="  178.194">  2  9  1 -1</clus>
<clus scale="  178.194">  2  5  1 -1</clus>
</clustering>
</event>
<event>
 9    1  0.2674825E-005  0.8999118E+02  0.7546771E-02  0.1308622E+00
         -2   -1    0    0    0  501 -0.00000000000E+00  0.00000000000E+00  0.22472560768E+03  0.22472560768E+03  0.00000000000E+00 0.  1.
          1   -1    0    0  502    0  0.00000000000E+00 -0.00000000000E+00 -0.41664187742E+02  0.41664187742E+02  0.00000000000E+00 0. -1.
         23    2    1    2    0    0 -0.14862538940E+02  0.11928888393E+02  0.86732390145E+02  0.12598386804E+03  0.89365732042E+02 0.  0.
        -24    2    1    2    0    0  0.66168116409E+01  0.75981442339E+01  0.76170997687E+02  0.11115454656E+03  0.80323087217E+02 0.  0.
         13    1    4    4    0    0  0.15966476012E+02  0.34718461242E+02  0.72865425827E+02  0.82278005495E+02  0.00000000000E+00 0. -1.
        -14    1    4    4    0    0 -0.93496643713E+01 -0.27120317008E+02  0.33055718592E+01  0.28876541064E+02  0.00000000000E+00 0.  1.
        -11    1    3    3    0    0 -0.42393905377E+02 -0.17609502067E+02  0.66535671819E+02  0.80835223761E+02  0.00000000000E+00 0.  1.
         11    1    3    3    0    0  0.27531366437E+02  0.29538390459E+02  0.20196718326E+02  0.45148644276E+02  0.00000000000E+00 0. -1.
         21    1    1    2  502  501  0.82457272986E+01 -0.19527032627E+02  0.20158032106E+02  0.29251380827E+02  0.00000000000E+00 0.  1.
<scales pt_clust_5="13000.00000" pt_clust_6="13000.00000" pt_clust_7="13000.00000" pt_clust_8="13000.00000" pt_clust_9="21.19663"></scales>
<clustering>
<clus scale="   21.197">  1  9  2 -1</clus>
<clus scale="   80.323">  5  6 -1 -1</clus>
<clus scale="   81.018">  2  5  1 -1</clus>
<clus scale="   89.366">  7  8 -1 -1</clus>
<clus scale="   81.018">  2  5  1 -1</clus>
</clustering>
</event>
<event>
 9    1  0.2674825E-005  0.1123294E+03  0.7546771E-02  0.1262249E+00
          1   -1    0    0  502    0  0.00000000000E+00  0.00000000000E+00  0.18238141133E+03  0.18238141133E+03  0.00000000000E+00 0. -1.
         -2   -1    0    0    0  501 -0.00000000000E+00 -0.00000000000E+00 -0.28392890064E+03  0.28392890064E+03  0.00000000000E+00 0.  1.
         23    2    1    2    0    0 -0.56931833205E+02  0.19548932125E+02 -0.16315963033E+03  0.19715973154E+03  0.92884338802E+02 0.  0.
        -24    2    1    2    0    0  0.28701466989E+02 -0.89905098085E+02 -0.51888568926E+02  0.13266118589E+03  0.77458800590E+02 0.  0.
         11    1    4    4    0    0  0.21751410635E+02 -0.48350175923E+02  0.13651588906E+02  0.54746956592E+02  0.00000000000E+00 0. -1.
        -12    1    4    4    0    0  0.69500563538E+01 -0.41554922162E+02 -0.65540157832E+02  0.77914229303E+02  0.00000000000E+00 0.  1.
        -11    1    3    3    0    0 -0.50868749567E+02 -0.10894362170E+02 -0.15715703047E+03  0.16554349591E+03  0.00000000000E+00 0.  1.
         11    1    3    3    0    0 -0.60630836378E+01  0.30443294295E+02 -0.60025998506E+01  0.31616235635E+02  0.00000000000E+00 0. -1.
         21    1    1    2  502  501  0.28230366216E+02  0.70356165960E+02  0.11350070994E+03  0.13648939454E+03  0.00000000000E+00 0. -1.
<scales pt_clust_5="13000.00000" pt_clust_6="13000.00000" pt_clust_7="13000.00000" pt_clust_8="13000.00000" pt_clust_9="75.80860"></scales>
<clustering>
<clus scale="   75.809">  1  9  2 -1</clus>
<clus scale="   77.459">  5  6 -1 -1</clus>
<clus scale="   92.884">  7  8 -1 -1</clus>
<clus scale="   99.951">  1  5  2 -1</clus>
<clus scale="   75.809">  1  5  2 -1</clus>
</clustering>
</event>
<event>
 9    1  0.2674825E-005  0.8305557E+02  0.7546771E-02  0.1321304E+00
          1   -1    0    0  502    0  0.00000000000E+00  0.00000000000E+00  0.16760575042E+03  0.16760575042E+03  0.00000000000E+00 0. -1.
         -2   -1    0    0    0  501 -0.00000000000E+00 -0.00000000000E+00 -0.23179055878E+03  0.23179055878E+03  0.00000000000E+00 0.  1.
         23    2    1    2    0    0 -0.15745286671E+02  0.81319119521E+01 -0.20251993967E+03  0.21903488362E+03  0.81534730222E+02 0.  0.
        -24    2    1    2    0    0 -0.15590254417E+02 -0.13202013037E+01  0.11238724773E+03  0.13911087166E+03  0.80474481645E+02 0.  0.
         13    1    4    4    0    0  0.16311472482E+02 -0.30795347681E+02  0.71117984496E+02  0.79197129317E+02  0.00000000000E+00 0. -1.
        -14    1    4    4    0    0 -0.31901726899E+02  0.29475146377E+02  0.41269263234E+02  0.59913742338E+02  0.00000000000E+00 0.  1.
        -13    1    3    3    0    0 -0.21582595131E+02 -0.33110795784E+02 -0.12405780346E+03  0.13020165825E+03  0.00000000000E+00 0.  1.
         13    1    3    3    0    0  0.58373084592E+01  0.41242707736E+02 -0.78462136208E+02  0.88833225371E+02  0.00000000000E+00 0. -1.
         21    1    1    2  502  501  0.31335541089E+02 -0.68117106485E+01  0.25947883575E+02  0.41250553927E+02  0.00000000000E+00 0. -1.
<scales pt_clust_5="13000.00000" pt_clust_6="13000.00000" pt_clust_7="13000.00000" pt_clust_8="13000.00000" pt_clust_9="32.06736"></scales>
<clustering>
<clus scale="   32.067">  1  9  2 -1</clus>
<clus scale="   80.474">  5  6 -1 -1</clus>
<clus scale="   81.535">  7  8 -1 -1</clus>
<clus scale="   82.015">  1  5  2 -1</clus>
<clus scale="   32.067">  1  5  2 -1</clus>
</clustering>
</event>
<event>
 9    1  0.2674825E-005  0.1306979E+03  0.7546771E-02  0.1226610E+00
          1   -1    0    0  502    0  0.00000000000E+00  0.00000000000E+00  0.19836660111E+03  0.19836660111E+03  0.00000000000E+00 0. -1.
         -2   -1    0    0    0  501 -0.00000000000E+00 -0.00000000000E+00 -0.16106540983E+03  0.16106540983E+03  0.00000000000E+00 0.  1.
         23    2    1    2    0    0 -0.80974104403E+02  0.18114322204E+02 -0.68692652262E+02  0.13391476185E+03  0.79558460984E+02 0.  0.
        -24    2    1    2    0    0  0.10953761809E+03  0.16228624506E+02  0.11641029177E+03  0.17964988926E+03  0.80379528805E+02 0.  0.
         13    1    4    4    0    0  0.36321718325E+02 -0.95884902617E+01  0.90200735985E+02  0.97710691021E+02  0.00000000000E+00 0. -1.
        -14    1    4    4    0    0  0.73215899769E+02  0.25817114767E+02  0.26209555785E+02  0.81939198241E+02  0.00000000000E+00 0.  1.
        -13    1    3    3    0    0 -0.71192337559E+02 -0.45169784071E+01 -0.79658780200E+02  0.10693116143E+03  0.00000000000E+00 0.  1.
         13    1    3    3    0    0 -0.97817668437E+01  0.22631300612E+02  0.10966127938E+02  0.26983600425E+02  0.00000000000E+00 0. -1.
         21    1    1    2  502  501 -0.28563513691E+02 -0.34342946710E+02 -0.10416448230E+02  0.45867359820E+02  0.00000000000E+00 0.  1.
<scales pt_clust_5="13000.00000" pt_clust_6="13000.00000" pt_clust_7="13000.00000" pt_clust_8="13000.00000" pt_clust_9="44.66892"></scales>
<clustering>
<clus scale="   44.669">  2  9  1 -1</clus>
<clus scale="   79.558">  7  8 -1 -1</clus>
<clus scale="   80.380">  5  6 -1 -1</clus>
<clus scale="  130.195">  2  7  1 -1</clus>
<clus scale="  130.698">  1  5  2 -1</clus>
</clustering>
</event>
<event>
 9    1  0.2674825E-005  0.9282836E+02  0.7546771E-02  0.1302548E+00
         -2   -1    0    0    0  501 -0.00000000000E+00  0.00000000000E+00  0.32429258972E+02  0.32429258972E+02  0.00000000000E+00 0.  1.
          1   -1    0    0  502    0  0.00000000000E+00 -0.00000000000E+00 -0.50786681907E+03  0.50786681907E+03  0.00000000000E+00 0. -1.
         23    2    1    2    0    0  0.11007183144E+02  0.23088826658E+02 -0.57277460239E+02  0.10947497406E+03  0.89720736154E+02 0.  0.
        -24    2    1    2    0    0 -0.23036188673E+02 -0.63225936337E+01 -0.31554157916E+03  0.32614845075E+03  0.78966338223E+02 0.  0.
         11    1    4    4    0    0 -0.45229876278E+02  0.17902201497E+02 -0.21247349701E+03  0.21797068027E+03  0.00000000000E+00 0. -1.
        -12    1    4    4    0    0  0.22193687605E+02 -0.24224795130E+02 -0.10306808215E+03  0.10817777048E+03  0.00000000000E+00 0.  1.
        -11    1    3    3    0    0 -0.28770578666E+02 -0.10565720169E+02  0.18009119143E+01  0.30702181082E+02  0.00000000000E+00 0. -1.
         11    1    3    3    0    0  0.39777761809E+02  0.33654546827E+02 -0.59078372153E+02  0.78772792975E+02  0.00000000000E+00 0.  1.
         21    1    1    2  502  501  0.12029005529E+02 -0.16766233024E+02 -0.10261852070E+03  0.10467265323E+03  0.00000000000E+00 0. -1.
<scales pt_clust_5="13000.00000" pt_clust_6="13000.00000" pt_clust_7="13000.00000" pt_clust_8="13000.00000" pt_clust_9="20.63501"></scales>
<clustering>
<clus scale="   20.635">  2  9  1 -1</clus>
<clus scale="   78.966">  5  6 -1 -1</clus>
<clus scale="   82.480">  2  5  1 -1</clus>
<clus scale="   89.721">  7  8 -1 -1</clus>
<clus scale="   20.635">  2  5  1 -1</clus>
</clustering>
</event>
<event>
 9    1  0.2674825E-005  0.1219241E+03  0.7546771E-02  0.1243583E+00
          3   -1    0    0  502    0  0.00000000000E+00  0.00000000000E+00  0.40545141387E+03  0.40545141387E+03  0.00000000000E+00 0. -1.
         -4   -1    0    0    0  501 -0.00000000000E+00 -0.00000000000E+00 -0.10132207921E+03  0.10132207921E+03  0.00000000000E+00 0.  1.
        -24    2    1    2    0    0 -0.60522919982E+01  0.92505664606E+02 -0.32747906683E+02  0.12718152238E+03  0.80677047672E+02 0.  0.
         23    2    1    2    0    0  0.54339996849E+01 -0.40285843355E+02  0.12148080146E+03  0.15795506418E+03  0.92410711765E+02 0.  0.
         11    1    3    3    0    0  0.27156839034E+02  0.82186353667E+02 -0.14023629333E+02  0.87685533671E+02  0.00000000000E+00 0. -1.
        -12    1    3    3    0    0 -0.33209131032E+02  0.10319310939E+02 -0.18724277351E+02  0.39495988713E+02  0.00000000000E+00 0.  1.
        -11    1    4    4    0    0 -0.31057725998E+02  0.15108523290E+02  0.44701380370E+02  0.56489496609E+02  0.00000000000E+00 0.  1.
         11    1    4    4    0    0  0.36491725683E+02 -0.55394366644E+02  0.76779421094E+02  0.10146556757E+03  0.00000000000E+00 0. -1.
         21    1    1    2  502  501  0.61829231331E+00 -0.52219821251E+02  0.21539643988E+03  0.22163690652E+03  0.00000000000E+00 0. -1.
<scales pt_clust_5="13000.00000" pt_clust_6="13000.00000" pt_clust_7="13000.00000" pt_clust_8="13000.00000" pt_clust_9="52.22348"></scales>
<clustering>
<clus scale="   52.223">  1  9  2 -1</clus>
<clus scale="   80.677">  5  6 -1 -1</clus>
<clus scale="   92.411">  7  8 -1 -1</clus>
<clus scale="  113.290">  2  5  1 -1</clus>
<clus scale="   52.223">  1  5  2 -1</clus>
</clustering>
</event>
<event>
 9    1  0.2674825E-005  0.9785412E+02  0.7546771E-02  0.1291750E+00
         -2   -1    0    0    0  501 -0.00000000000E+00  0.00000000000E+00  0.11976523685E+03  0.11976523685E+03  0.00000000000E+00 0.  1.
          1   -1    0    0  502    0  0.00000000000E+00 -0.00000000000E+00 -0.43058496014E+03  0.43058496014E+03  0.00000000000E+00 0. -1.
         23    2    1    2    0    0  0.25121660710E+02  0.10339916637E+02  0.86370583690E+02  0.13039733246E+03  0.93838024669E+02 0.  0.
        -24    2    1    2    0    0 -0.15356208983E+02 -0.48596675425E+02 -0.25902035292E+03  0.27625220397E+03  0.81402008314E+02 0.  0.
         11    1    4    4    0    0 -0.11588483663E+02 -0.64833208225E+02 -0.24718770462E+03  0.25581125690E+03  0.00000000000E+00 0. -1.
        -12    1    4    4    0    0 -0.37677253203E+01  0.16236532800E+02 -0.11832648299E+02  0.20440947072E+02  0.00000000000E+00 0.  1.
        -13    1    3    3    0    0  0.60523189192E+02  0.10774033867E+02  0.62700746464E+02  0.87809565782E+02  0.00000000000E+00 0. -1.
         13    1    3    3    0    0 -0.35401528482E+02 -0.43411723057E+00  0.23669837225E+02  0.42587766681E+02  0.00000000000E+00 0.  1.
         21    1    1    2  502  501 -0.97654517265E+01  0.38256758788E+02 -0.13816995406E+03  0.14370066056E+03  0.00000000000E+00 0. -1.
<scales pt_clust_5="13000.00000" pt_clust_6="13000.00000" pt_clust_7="13000.00000" pt_clust_8="13000.00000" pt_clust_9="39.48346"></scales>
<clustering>
<clus scale="   39.483">  2  9  1 -1</clus>
<clus scale="   81.402">  5  6 -1 -1</clus>
<clus scale="   86.001">  2  5  1 -1</clus>
<clus scale="   93.838">  7  8 -1 -1</clus>
<clus scale="   39.483">  2  5  1 -1</clus>
</clustering>
</event>
<event>
 9    1  0.2674825E-005  0.9052271E+02  0.7546771E-02  0.1310979E+00
          1   -1    0    0  502    0  0.00000000000E+00  0.00000000000E+00  0.73066355345E+03  0.73066355345E+03  0.00000000000E+00 0. -1.
         -2   -1    0    0    0  501 -0.00000000000E+00 -0.00000000000E+00 -0.35857290103E+02  0.35857290103E+02  0.00000000000E+00 0.  1.
         23    2    1    2    0    0 -0.23772256583E+01 -0.88849773998E+01  0.46166474337E+02  0.10061938632E+03  0.88928755332E+02 0.  0.
        -24    2    1    2    0    0  0.46599023963E+02  0.36241036957E+02  0.34434984680E+03  0.35720048482E+03  0.74367247969E+02 0.  0.
         11    1    4    4    0    0  0.65056537328E+02  0.15401255962E+02  0.25468687557E+03  0.26331531730E+03  0.00000000000E+00 0. -1.
        -12    1    4    4    0    0 -0.18457513364E+02  0.20839780995E+02  0.89662971232E+02  0.93885167527E+02  0.00000000000E+00 0.  1.
        -13    1    3    3    0    0 -0.19876223911E+02  0.30060778351E+02 -0.21983993976E+01  0.36104676040E+02  0.00000000000E+00 0.  1.
         13    1    3    3    0    0  0.17498998253E+02 -0.38945755751E+02  0.48364873734E+02  0.64514710277E+02  0.00000000000E+00 0. -1.
         21    1    1    2  502  501 -0.44221798305E+02 -0.27356059557E+02  0.30428994221E+03  0.30870097241E+03  0.00000000000E+00 0.  1.
<scales pt_clust_5="13000.00000" pt_clust_6="13000.00000" pt_clust_7="13000.00000" pt_clust_8="13000.00000" pt_clust_9="51.99924"></scales>
<clustering>
<clus scale="   51.999">  1  9  2 -1</clus>
<clus scale="   74.367">  5  6 -1 -1</clus>
<clus scale="   76.266">  1  5  2 -1</clus>
<clus scale="   88.929">  7  8 -1 -1</clus>
<clus scale="   51.999">  1  5  2 -1</clus>
</clustering>
</event>
<event>
 9    1  0.2674825E-005  0.9641547E+02  0.7546771E-02  0.1294692E+00
         -2   -1    0    0    0  501 -0.00000000000E+00  0.00000000000E+00  0.12738227820E+03  0.12738227820E+03  0.00000000000E+00 0.  1.
          1   -1    0    0  502    0  0.00000000000E+00 -0.00000000000E+00 -0.26158297247E+03  0.26158297247E+03  0.00000000000E+00 0. -1.
        -24    2    1    2    0    0 -0.12673449009E+02  0.26372384861E+02  0.85636567866E+02  0.12112070360E+03  0.80501453967E+02 0.  0.
         23    2    1    2    0    0  0.43672797039E+02  0.11963858054E+02 -0.16128597802E+03  0.19130122619E+03  0.92371777807E+02 0.  0.
         13    1    3    3    0    0 -0.21163909850E+02 -0.22108866946E+02  0.55581008522E+02  0.63450465609E+02  0.00000000000E+00 0. -1.
        -14    1    3    3    0    0  0.84904608407E+01  0.48481251807E+02  0.30055559345E+02  0.57670237988E+02  0.00000000000E+00 0.  1.
        -13    1    4    4    0    0  0.98060869823E+01  0.50528774276E+02 -0.77042739412E+02  0.92654735809E+02  0.00000000000E+00 0.  1.
         13    1    4    4    0    0  0.33866710056E+02 -0.38564916223E+02 -0.84243238611E+02  0.98646490384E+02  0.00000000000E+00 0. -1.
         21    1    1    2  502  501 -0.30999348030E+02 -0.38336242915E+02 -0.58551284120E+02  0.76543320879E+02  0.00000000000E+00 0. -1.
<scales pt_clust_5="13000.00000" pt_clust_6="13000.00000" pt_clust_7="13000.00000" pt_clust_8="13000.00000" pt_clust_9="49.30139"></scales>
<clustering>
<clus scale="   49.301">  2  9  1 -1</clus>
<clus scale="   80.501">  5  6 -1 -1</clus>
<clus scale="   85.111">  1  5  2 -1</clus>
<clus scale="   92.372">  7  8 -1 -1</clus>
<clus scale="   49.301">  2  5  1 -1</clus>
</clustering>
</event>
<event>
 9    1  0.2674825E-005  0.1028756E+03  0.7546771E-02  0.1278108E+00
         -2   -1    0    0    0  501 -0.00000000000E+00  0.00000000000E+00  0.25457190332E+03  0.25457190332E+03  0.00000000000E+00 0.  1.
          1   -1    0    0  502    0  0.00000000000E+00 -0.00000000000E+00 -0.53019306344E+02  0.53019306344E+02  0.00000000000E+00 0. -1.
         23    2    1    2    0    0  0.19526971780E+01  0.41130241541E+02  0.11348666872E+03  0.15050888377E+03  0.89878753460E+02 0.  0.
        -24    2    1    2    0    0 -0.10614832347E+02 -0.60440060246E+02  0.89603969056E+02  0.13586282416E+03  0.81634307554E+02 0.  0.
         13    1    4    4    0    0  0.28378727913E+02 -0.19711825516E+02  0.60734408432E+01  0.35082687280E+02  0.00000000000E+00 0. -1.
        -14    1    4    4    0    0 -0.38993560260E+02 -0.40728234730E+02  0.83530528212E+02  0.10078013688E+03  0.00000000000E+00 0.  1.
        -11    1    3    3    0    0  0.33417904168E+02 -0.12164218254E+02  0.54051598144E+02  0.64701621206E+02  0.00000000000E+00 0.  1.
         11    1    3    3    0    0 -0.31465206990E+02  0.53294459796E+02  0.59435070571E+02  0.85807262569E+02  0.00000000000E+00 0. -1.
         21    1    1    2  502  501  0.86621351692E+01  0.19309818705E+02 -0.15380407959E+01  0.21219501728E+02  0.00000000000E+00 0. -1.
<scales pt_clust_5="13000.00000" pt_clust_6="13000.00000" pt_clust_7="13000.00000" pt_clust_8="13000.00000" pt_clust_9="21.16369"></scales>
<clustering>
<clus scale="   21.164">  2  9  1 -1</clus>
<clus scale="   81.634">  5  6 -1 -1</clus>
<clus scale="   89.879">  7  8 -1 -1</clus>
<clus scale="   95.757">  2  5  1 -1</clus>
<clus scale="   21.164">  2  5  1 -1</clus>
</clustering>
</event>
<event>
 9    1  0.2674825E-005  0.1069481E+03  0.7546771E-02  0.1271082E+00
         -2   -1    0    0    0  501 -0.00000000000E+00  0.00000000000E+00  0.41243295486E+03  0.41243295486E+03  0.00000000000E+00 0.  1.
          1   -1    0    0  502    0  0.00000000000E+00 -0.00000000000E+00 -0.50079741046E+02  0.50079741046E+02  0.00000000000E+00 0. -1.
        -24    2    1    2    0    0 -0.49917598011E+02  0.33137149969E+02  0.31003693407E+03  0.32590145197E+03  0.80616490960E+02 0.  0.
         23    2    1    2    0    0  0.25864243949E+02 -0.20037261715E+02  0.32172626822E+02  0.10261216061E+03  0.91780861924E+02 0.  0.
         13    1    3    3    0    0 -0.59394459621E+02  0.89152193202E+01  0.12102417677E+03  0.13510749177E+03  0.00000000000E+00 0. -1.
        -14    1    3    3    0    0  0.94768616101E+01  0.24221930649E+02  0.18901275729E+03  0.19079396020E+03  0.00000000000E+00 0.  1.
        -11    1    4    4    0    0 -0.14161553254E+02  0.24050651720E+02  0.32792879028E+02  0.43062238141E+02  0.00000000000E+00 0.  1.
         11    1    4    4    0    0  0.40025797204E+02 -0.44087913435E+02 -0.62025220656E+00  0.59549922465E+02  0.00000000000E+00 0. -1.
         21    1    1    2  502  501  0.24053354062E+02 -0.13099888254E+02  0.20143652932E+02  0.33999083331E+02  0.00000000000E+00 0. -1.
<scales pt_clust_5="13000.00000" pt_clust_6="13000.00000" pt_clust_7="13000.00000" pt_clust_8="13000.00000" pt_clust_9="27.38925"></scales>
<clustering>
<clus scale="   27.389">  2  9  1 -1</clus>
<clus scale="   80.616">  5  6 -1 -1</clus>
<clus scale="   91.781">  7  8 -1 -1</clus>
<clus scale="   97.536">  1  5  2 -1</clus>
<clus scale="   27.389">  2  5  1 -1</clus>
</clustering>
</event>
<event>
 9    1  0.2674825E-005  0.1172362E+03  0.7546771E-02  0.1251991E+00
         -2   -1    0    0    0  501 -0.00000000000E+00  0.00000000000E+00  0.10725425593E+03  0.10725425593E+03  0.00000000000E+00 0.  1.
          1   -1    0    0  502    0  0.00000000000E+00 -0.00000000000E+00 -0.23299551419E+03  0.23299551419E+03  0.00000000000E+00 0. -1.
        -24    2    1    2    0    0 -0.93815702517E+01 -0.74676583455E+02  0.48596886111E+02  0.11962573235E+03  0.79272016014E+02 0.  0.
         23    2    1    2    0    0 -0.10056576956E+02  0.62598155999E+02 -0.15259714874E+03  0.18905821975E+03  0.91855630066E+02 0.  0.
         11    1    3    3    0    0  0.28460899433E+02 -0.79786471087E+01  0.14233601625E+01  0.29592356452E+02  0.00000000000E+00 0. -1.
        -12    1    3    3    0    0 -0.37842469684E+02 -0.66697936346E+02  0.47173525948E+02  0.90033375895E+02  0.00000000000E+00 0.  1.
        -11    1    4    4    0    0  0.91931505433E+01  0.27735872787E+02 -0.14575001679E+03  0.14865012630E+03  0.00000000000E+00 0. -1.
         11    1    4    4    0    0 -0.19249727499E+02  0.34862283213E+02 -0.68471319519E+01  0.40408093441E+02  0.00000000000E+00 0.  1.
         21    1    1    2  502  501  0.19438147208E+02  0.12078427455E+02 -0.21740995627E+02  0.31565818024E+02  0.00000000000E+00 0. -1.
<scales pt_clust_5="13000.00000" pt_clust_6="13000.00000" pt_clust_7="13000.00000" pt_clust_8="13000.00000" pt_clust_9="22.88515"></scales>
<clustering>
<clus scale="   22.885">  2  9  1 -1</clus>
<clus scale="   79.272">  5  6 -1 -1</clus>
<clus scale="   91.856">  7  8 -1 -1</clus>
<clus scale="  107.661">  1  5  2 -1</clus>
<clus scale="   22.885">  2  5  1 -1</clus>
</clustering>
</event>
<event>
 9    1  0.2674825E-005  0.1934345E+03  0.7546771E-02  0.1161125E+00
         -2   -1    0    0    0  501 -0.00000000000E+00  0.00000000000E+00  0.68251767712E+02  0.68251767712E+02  0.00000000000E+00 0.  1.
          1   -1    0    0  502    0  0.00000000000E+00 -0.00000000000E+00 -0.14748093879E+04  0.14748093879E+04  0.00000000000E+00 0. -1.
         23    2    1    2    0    0  0.11568116252E+03 -0.85878417335E+02 -0.21604678029E+03  0.27456462945E+03  0.89175616333E+02 0.  0.
        -24    2    1    2    0    0  0.14570428498E+03  0.24189150011E+02 -0.47456307181E+03  0.50383377403E+03  0.82604534272E+02 0.  0.
         13    1    4    4    0    0  0.31446925344E+02  0.26864734920E+02 -0.54006244793E+02  0.68024242536E+02  0.00000000000E+00 0. -1.
        -14    1    4    4    0    0  0.11425735964E+03 -0.26755849096E+01 -0.42055682702E+03  0.43580953149E+03  0.00000000000E+00 0.  1.
        -13    1    3    3    0    0  0.63318229007E+02  0.42817521917E+01 -0.10117473882E+03  0.11943139998E+03  0.00000000000E+00 0. -1.
         13    1    3    3    0    0  0.52362933509E+02 -0.90160169527E+02 -0.11487204147E+03  0.15513322947E+03  0.00000000000E+00 0.  1.
         21    1    1    2  502  501 -0.26138544750E+03  0.61689267324E+02 -0.71594776805E+03  0.76466275209E+03  0.00000000000E+00 0. -1.
<scales pt_clust_5="13000.00000" pt_clust_6="13000.00000" pt_clust_7="13000.00000" pt_clust_8="13000.00000" pt_clust_9="171.65258"></scales>
<clustering>
<clus scale="   82.605">  5  6 -1 -1</clus>
<clus scale="   89.176">  7  8 -1 -1</clus>
<clus scale="  169.229">  2  5  1 -1</clus>
<clus scale="  171.653">  2  9  1 -1</clus>
<clus scale="  169.229">  2  5  1 -1</clus>
</clustering>
</event>
<event>
 9    1  0.2674825E-005  0.1388997E+03  0.7546771E-02  0.1217178E+00
         -2   -1    0    0    0  501 -0.00000000000E+00  0.00000000000E+00  0.81306724854E+02  0.81306724854E+02  0.00000000000E+00 0.  1.
          1   -1    0    0  502    0  0.00000000000E+00 -0.00000000000E+00 -0.34268911317E+03  0.34268911317E+03  0.00000000000E+00 0. -1.
         23    2    1    2    0    0  0.98126656754E+02  0.34638379955E+02 -0.25749727281E+02  0.14063737191E+03  0.91033860688E+02 0.  0.
        -24    2    1    2    0    0 -0.93469543266E+02 -0.55704762965E+02 -0.21081291048E+03  0.25047228031E+03  0.80341171526E+02 0.  0.
         13    1    4    4    0    0 -0.63225653310E+02 -0.48589908045E+02 -0.20348379176E+03  0.21855003068E+03  0.00000000000E+00 0. -1.
        -14    1    4    4    0    0 -0.30243889957E+02 -0.71148549200E+01 -0.73291187207E+01  0.31922249630E+02  0.00000000000E+00 0.  1.
        -13    1    3    3    0    0  0.34666991577E+02  0.60496395169E+02 -0.12182331817E+02  0.70781518364E+02  0.00000000000E+00 0.  1.
         13    1    3    3    0    0  0.63459665177E+02 -0.25858015215E+02 -0.13567395463E+02  0.69855853548E+02  0.00000000000E+00 0. -1.
         21    1    1    2  502  501 -0.46571134875E+01  0.21066383010E+02 -0.24819750556E+02  0.32886185806E+02  0.00000000000E+00 0. -1.
<scales pt_clust_5="13000.00000" pt_clust_6="13000.00000" pt_clust_7="13000.00000" pt_clust_8="13000.00000" pt_clust_9="21.57501"></scales>
<clustering>
<clus scale="   21.575">  2  9  1 -1</clus>
<clus scale="   80.341">  5  6 -1 -1</clus>
<clus scale="   91.034">  7  8 -1 -1</clus>
<clus scale="  132.139">  2  5  1 -1</clus>
<clus scale="   21.575">  2  5  1 -1</clus>
</clustering>
</event>
<event>
 9    1  0.2674825E-005  0.1017095E+03  0.7546771E-02  0.1285452E+00
          1   -1    0    0  502    0  0.00000000000E+00  0.00000000000E+00  0.60430330720E+02  0.60430330720E+02  0.00000000000E+00 0. -1.
         -2   -1    0    0    0  501 -0.00000000000E+00 -0.00000000000E+00 -0.30611329453E+03  0.30611329453E+03  0.00000000000E+00 0.  1.
        -24    2    1    2    0    0 -0.74726979233E+01 -0.45203682694E+02 -0.16675075036E+03  0.18801815097E+03  0.73795651661E+02 0.  0.
         23    2    1    2    0    0 -0.34875216129E+02  0.35028073492E+02 -0.20989596447E+02  0.10603936725E+03  0.91435975499E+02 0.  0.
         13    1    3    3    0    0 -0.33756174054E+02 -0.68404144849E+01 -0.38815731825E+02  0.51893463887E+02  0.00000000000E+00 0. -1.
        -14    1    3    3    0    0  0.26283476130E+02 -0.38363268209E+02 -0.12793501853E+03  0.13612468708E+03  0.00000000000E+00 0.  1.
        -13    1    4    4    0    0 -0.17627935051E+01  0.59690388522E+02  0.14061999349E-01  0.59716414164E+02  0.00000000000E+00 0.  1.
         13    1    4    4    0    0 -0.33112422624E+02 -0.24662315030E+02 -0.21003658446E+02  0.46322953088E+02  0.00000000000E+00 0. -1.
         21    1    1    2  502  501  0.42347914052E+02  0.10175609201E+02 -0.57942617002E+02  0.72486107029E+02  0.00000000000E+00 0.  1.
<scales pt_clust_5="13000.00000" pt_clust_6="13000.00000" pt_clust_7="13000.00000" pt_clust_8="13000.00000" pt_clust_9="43.55329"></scales>
<clustering>
<clus scale="   43.553">  2  9  1 -1</clus>
<clus scale="   73.796">  5  6 -1 -1</clus>
<clus scale="   86.198">  2  5  1 -1</clus>
<clus scale="   91.436">  7  8 -1 -1</clus>
<clus scale="  101.709">  1  5  2 -1</clus>
</clustering>
</event>
<event>
 9    1  0.2674825E-005  0.1087011E+03  0.7546771E-02  0.1267319E+00
          1   -1    0    0  502    0  0.00000000000E+00  0.00000000000E+00  0.14374885251E+03  0.14374885251E+03  0.00000000000E+00 0. -1.
         -2   -1    0    0    0  501 -0.00000000000E+00 -0.00000000000E+00 -0.40628701540E+03  0.40628701540E+03  0.00000000000E+00 0.  1.
         23    2    1    2    0    0  0.59454224864E+02 -0.17348369280E+02 -0.37090327072E+03  0.38689497374E+03  0.91009415464E+02 0.  0.
        -24    2    1    2    0    0 -0.34133059500E+02  0.63964313007E+01  0.55797369472E+02  0.10377361804E+03  0.80309633768E+02 0.  0.
         11    1    4    4    0    0 -0.23831743364E+02  0.39342281228E+02  0.51399345054E+02  0.68975791087E+02  0.00000000000E+00 0. -1.
        -12    1    4    4    0    0 -0.10301316135E+02 -0.32945849928E+02  0.43980244184E+01  0.34797826949E+02  0.00000000000E+00 0.  1.
        -13    1    3    3    0    0 -0.15854523876E+02  0.19742260372E+02 -0.10732345138E+03  0.11026987798E+03  0.00000000000E+00 0. -1.
         13    1    3    3    0    0  0.75308748740E+02 -0.37090629652E+02 -0.26357981933E+03  0.27662509576E+03  0.00000000000E+00 0.  1.
         21    1    1    2  502  501 -0.25321165364E+02  0.10951937980E+02  0.52567738355E+02  0.59367276144E+02  0.00000000000E+00 0. -1.
<scales pt_clust_5="13000.00000" pt_clust_6="13000.00000" pt_clust_7="13000.00000" pt_clust_8="13000.00000" pt_clust_9="27.58816"></scales>
<clustering>
<clus scale="   27.588">  1  9  2 -1</clus>
<clus scale="   80.310">  5  6 -1 -1</clus>
<clus scale="   91.009">  7  8 -1 -1</clus>
<clus scale="   99.914">  1  5  2 -1</clus>
<clus scale="   27.588">  1  5  2 -1</clus>
</clustering>
</event>
<event>
 9    1  0.2674825E-005  0.1623443E+03  0.7546771E-02  0.1187226E+00
          3   -1    0    0  502    0  0.00000000000E+00  0.00000000000E+00  0.42108184783E+03  0.42108184783E+03  0.00000000000E+00 0. -1.
         -4   -1    0    0    0  501 -0.00000000000E+00 -0.00000000000E+00 -0.83997988181E+02  0.83997988181E+02  0.00000000000E+00 0.  1.
        -24    2    1    2    0    0  0.78507959879E+02 -0.11791552256E+03  0.70956014034E+02  0.17780075271E+03  0.80689413870E+02 0.  0.
         23    2    1    2    0    0 -0.53384672479E+02  0.12329082723E+03  0.24886255799E+03  0.29632486506E+03  0.88460734507E+02 0.  0.
         13    1    3    3    0    0  0.93007364059E+02 -0.81158908070E+02  0.56072718952E+02  0.13557760855E+03  0.00000000000E+00 0. -1.
        -14    1    3    3    0    0 -0.14499404180E+02 -0.36756614491E+02  0.14883295082E+02  0.42223144162E+02  0.00000000000E+00 0.  1.
        -13    1    4    4    0    0 -0.31263261415E+02  0.93882274976E+02  0.23831823730E+03  0.25804428941E+03  0.00000000000E+00 0. -1.
         13    1    4    4    0    0 -0.22121411064E+02  0.29408552256E+02  0.10544320691E+02  0.38280575649E+02  0.00000000000E+00 0.  1.
         21    1    1    2  502  501 -0.25123287400E+02 -0.53753046708E+01  0.17265287622E+02  0.30954218238E+02  0.00000000000E+00 0.  1.
<scales pt_clust_5="13000.00000" pt_clust_6="13000.00000" pt_clust_7="13000.00000" pt_clust_8="13000.00000" pt_clust_9="25.69190"></scales>
<clustering>
<clus scale="   25.692">  2  9  1 -1</clus>
<clus scale="   80.689">  5  6 -1 -1</clus>
<clus scale="   88.461">  7  8 -1 -1</clus>
<clus scale="  158.244">  2  5  1 -1</clus>
<clus scale="  162.344">  1  5  2 -1</clus>
</clustering>
</event>
<event>
 9    1  0.2674825E-005  0.1007158E+03  0.7546771E-02  0.1288558E+00
          1   -1    0    0  502    0  0.00000000000E+00  0.00000000000E+00  0.50582570257E+03  0.50582570257E+03  0.00000000000E+00 0. -1.
         -2   -1    0    0    0  501 -0.00000000000E+00 -0.00000000000E+00 -0.11337313185E+03  0.11337313185E+03  0.00000000000E+00 0.  1.
        -24    2    1    2    0    0 -0.38794075277E+02 -0.93023426454E+01 -0.82002374236E+02  0.11657349471E+03  0.72618705801E+02 0.  0.
         23    2    1    2    0    0  0.64970973595E+02  0.41046693276E+02  0.29136176065E+03  0.31496594629E+03  0.91683222637E+02 0.  0.
         11    1    3    3    0    0 -0.97555442262E+01 -0.39469205025E+02 -0.45568157779E+02  0.61069188564E+02  0.00000000000E+00 0. -1.
        -12    1    3    3    0    0 -0.29038531051E+02  0.30166862380E+02 -0.36434216456E+02  0.55504306141E+02  0.00000000000E+00 0.  1.
        -11    1    4    4    0    0  0.61530635791E+02  0.63843982463E+02  0.17321455594E+03  0.19459022490E+03  0.00000000000E+00 0. -1.
         11    1    4    4    0    0  0.34403378041E+01 -0.22797289187E+02  0.11814720471E+03  0.12037572139E+03  0.00000000000E+00 0.  1.
         21    1    1    2  502  501 -0.26176898318E+02 -0.31744350630E+02  0.18309318430E+03  0.18765939342E+03  0.00000000000E+00 0.  1.
<scales pt_clust_5="13000.00000" pt_clust_6="13000.00000" pt_clust_7="13000.00000" pt_clust_8="13000.00000" pt_clust_9="41.14528"></scales>
<clustering>
<clus scale="   41.145">  1  9  2 -1</clus>
<clus scale="   72.619">  5  6 -1 -1</clus>
<clus scale="   83.734">  2  5  1 -1</clus>
<clus scale="   91.683">  7  8 -1 -1</clus>
<clus scale="   41.145">  1  5  2 -1</clus>
</clustering>
</event>
<event>
 9    1  0.2674825E-005  0.1031254E+03  0.7546771E-02  0.1288839E+00
          1   -1    0    0  502    0  0.00000000000E+00  0.00000000000E+00  0.70554890912E+02  0.70554890912E+02  0.00000000000E+00 0. -1.
         -2   -1    0    0    0  501 -0.00000000000E+00 -0.00000000000E+00 -0.26858494775E+03  0.26858494775E+03  0.00000000000E+00 0.  1.
        -24    2    1    2    0    0  0.19775657738E+02 -0.60387575366E+02 -0.17620381237E+03  0.19507746805E+03  0.54494946110E+02 0.  0.
         23    2    1    2    0    0 -0.26430620797E+02  0.10336315878E+02 -0.94940388703E+01  0.92086410736E+02  0.87088191659E+02 0.  0.
         13    1    3    3    0    0 -0.11235132325E+02 -0.48144500232E+02 -0.11910122879E+03  0.12895434773E+03  0.00000000000E+00 0. -1.
        -14    1    3    3    0    0  0.31010790063E+02 -0.12243075134E+02 -0.57102583580E+02  0.66123120318E+02  0.00000000000E+00 0.  1.
        -11    1    4    4    0    0 -0.31808755574E+02  0.44305753208E+02 -0.16509563359E+02  0.56985633109E+02  0.00000000000E+00 0.  1.
         11    1    4    4    0    0  0.53781347773E+01 -0.33969437330E+02  0.70155244888E+01  0.35100777627E+02  0.00000000000E+00 0. -1.
         21    1    1    2  502  501  0.66549630588E+01  0.50051259488E+02 -0.12332205598E+02  0.51975959871E+02  0.00000000000E+00 0.  1.
<scales pt_clust_5="13000.00000" pt_clust_6="13000.00000" pt_clust_7="13000.00000" pt_clust_8="13000.00000" pt_clust_9="50.49175"></scales>
<clustering>
<clus scale="   50.492">  1  9  2 -1</clus>
<clus scale="   54.495">  5  6 -1 -1</clus>
<clus scale="   77.590">  2  5  1 -1</clus>
<clus scale="   87.088">  7  8 -1 -1</clus>
<clus scale="   50.492">  1  5  2 -1</clus>
</clustering>
</event>
<event>
 9    1  0.2674825E-005  0.1031086E+03  0.7546771E-02  0.1279864E+00
         -2   -1    0    0    0  501 -0.00000000000E+00  0.00000000000E+00  0.12109057524E+03  0.12109057524E+03  0.00000000000E+00 0.  1.
          1   -1    0    0  502    0  0.00000000000E+00 -0.00000000000E+00 -0.15659420528E+03  0.15659420528E+03  0.00000000000E+00 0. -1.
         23    2    1    2    0    0  0.73050402586E+02 -0.16632809562E+02  0.56750603069E+02  0.11189888609E+03  0.60726584677E+02 0.  0.
        -24    2    1    2    0    0 -0.55213070347E+02 -0.19781166022E+02 -0.56751658978E+02  0.11189173141E+03  0.76545614467E+02 0.  0.
         13    1    4    4    0    0 -0.29337745481E+02 -0.49082568374E+02 -0.36837115829E+02  0.68020400842E+02  0.00000000000E+00 0. -1.
        -14    1    4    4    0    0 -0.25875324867E+02  0.29301402352E+02 -0.19914543149E+02  0.43871330566E+02  0.00000000000E+00 0.  1.
        -11    1    3    3    0    0  0.23403448596E+02 -0.29596393353E+02  0.34108960717E+01  0.37885381320E+02  0.00000000000E+00 0.  1.
         11    1    3    3    0    0  0.49646953990E+02  0.12963583792E+02  0.53339706997E+02  0.74013504766E+02  0.00000000000E+00 0. -1.
         21    1    1    2  502  501 -0.17837332238E+02  0.36413975584E+02 -0.35502574125E+02  0.53894163030E+02  0.00000000000E+00 0. -1.
<scales pt_clust_5="13000.00000" pt_clust_6="13000.00000" pt_clust_7="13000.00000" pt_clust_8="13000.00000" pt_clust_9="40.54810"></scales>
<clustering>
<clus scale="   40.548">  2  9  1 -1</clus>
<clus scale="   60.727">  7  8 -1 -1</clus>
<clus scale="   76.546">  5  6 -1 -1</clus>
<clus scale="   91.978">  1  7  2 -1</clus>
<clus scale="   40.548">  2  5  1 -1</clus>
</clustering>
</event>
<event>
 9    1  0.2674825E-005  0.1170289E+03  0.7546771E-02  0.1251110E+00
         -2   -1    0    0    0  501 -0.00000000000E+00  0.00000000000E+00  0.13838210188E+03  0.13838210188E+03  0.00000000000E+00 0.  1.
          1   -1    0    0  502    0  0.00000000000E+00 -0.00000000000E+00 -0.21170368016E+03  0.21170368016E+03  0.00000000000E+00 0. -1.
        -24    2    1    2    0    0  0.66493491201E+02  0.45260604231E+02  0.72223814407E+02  0.13486691989E+03  0.80640560794E+02 0.  0.
         23    2    1    2    0    0 -0.22315948084E+02 -0.60932043515E+02 -0.91649352639E+02  0.14379034923E+03  0.89807267118E+02 0.  0.
         11    1    3    3    0    0  0.88812348033E+01  0.24372624842E+02  0.68756289144E+02  0.73486927206E+02  0.00000000000E+00 0. -1.
        -12    1    3    3    0    0  0.57612256398E+02  0.20887979388E+02  0.34675252625E+01  0.61379992682E+02  0.00000000000E+00 0.  1.
        -11    1    4    4    0    0 -0.39838447683E+02 -0.33042524570E+01 -0.68402591781E+02  0.79227107485E+02  0.00000000000E+00 0. -1.
         11    1    4    4    0    0  0.17522499599E+02 -0.57627791058E+02 -0.23246760858E+02  0.64563241746E+02  0.00000000000E+00 0.  1.
         21    1    1    2  502  501 -0.44177543117E+02  0.15671439284E+02 -0.53896040049E+02  0.71428512921E+02  0.00000000000E+00 0. -1.
<scales pt_clust_5="13000.00000" pt_clust_6="13000.00000" pt_clust_7="13000.00000" pt_clust_8="13000.00000" pt_clust_9="46.87483"></scales>
<clustering>
<clus scale="   46.875">  2  9  1 -1</clus>
<clus scale="   80.641">  5  6 -1 -1</clus>
<clus scale="   89.807">  7  8 -1 -1</clus>
<clus scale="  110.151">  1  5  2 -1</clus>
<clus scale="   46.875">  2  5  1 -1</clus>
</clustering>
</event>
<event>
 9    1  0.2674825E-005  0.1076908E+03  0.7546771E-02  0.1269158E+00
          1   -1    0    0  502    0  0.00000000000E+00  0.00000000000E+00  0.52171612632E+02  0.52171612632E+02  0.00000000000E+00 0. -1.
         -2   -1    0    0    0  501 -0.00000000000E+00 -0.00000000000E+00 -0.44263509773E+03  0.44263509773E+03  0.00000000000E+00 0.  1.
        -24    2    1    2    0    0 -0.62345220090E+02 -0.23642977740E+01 -0.35201801105E+03  0.36638033260E+03  0.80158291165E+02 0.  0.
         23    2    1    2    0    0  0.38970857858E+02  0.17439255964E+00 -0.35618121691E+02  0.10478001618E+03  0.90506591048E+02 0.  0.
         13    1    3    3    0    0  0.13790649239E+01  0.23175535746E+02 -0.34903300342E+02  0.41919537831E+02  0.00000000000E+00 0. -1.
        -14    1    3    3    0    0 -0.63724285014E+02 -0.25539833520E+02 -0.31711471070E+03  0.32446079477E+03  0.00000000000E+00 0.  1.
        -13    1    4    4    0    0 -0.21724333300E+02  0.24849825273E+02 -0.11099085002E+02  0.34823126817E+02  0.00000000000E+00 0.  1.
         13    1    4    4    0    0  0.60695191158E+02 -0.24675432713E+02 -0.24519036689E+02  0.69956889364E+02  0.00000000000E+00 0. -1.
         21    1    1    2  502  501  0.23374362232E+02  0.21899052144E+01 -0.28273523582E+01  0.23646361579E+02  0.00000000000E+00 0. -1.
<scales pt_clust_5="13000.00000" pt_clust_6="13000.00000" pt_clust_7="13000.00000" pt_clust_8="13000.00000" pt_clust_9="23.47672"></scales>
<clustering>
<clus scale="   23.477">  1  9  2 -1</clus>
<clus scale="   80.158">  5  6 -1 -1</clus>
<clus scale="   90.507">  7  8 -1 -1</clus>
<clus scale="   99.152">  2  5  1 -1</clus>
<clus scale="   23.477">  1  5  2 -1</clus>
</clustering>
</event>
<event>
 9    1  0.2674825E-005  0.3041584E+03  0.7546771E-02  0.1105259E+00
         -2   -1    0    0    0  501 -0.00000000000E+00  0.00000000000E+00  0.11054154214E+03  0.11054154214E+03  0.00000000000E+00 0.  1.
          1   -1    0    0  502    0  0.00000000000E+00 -0.00000000000E+00 -0.15843023949E+04  0.15843023949E+04  0.00000000000E+00 0. -1.
         23    2    1    2    0    0 -0.12872623647E+03  0.61982438722E+02 -0.28083215687E+03  0.32850862953E+03  0.92945966441E+02 0.  0.
        -24    2    1    2    0    0  0.10070183349E+03 -0.33698103453E+03 -0.47070487693E+03  0.59301982238E+03  0.80077160739E+02 0.  0.
         11    1    4    4    0    0  0.56783663644E+02 -0.29332339262E+03 -0.39170487554E+03  0.49264156000E+03  0.00000000000E+00 0. -1.
        -12    1    4    4    0    0  0.43918169847E+02 -0.43657641909E+02 -0.79000001391E+02  0.10037826239E+03  0.00000000000E+00 0.  1.
        -11    1    3    3    0    0 -0.85717967902E+02  0.85798056964E+02 -0.19908927374E+03  0.23312103191E+03  0.00000000000E+00 0.  1.
         11    1    3    3    0    0 -0.43008268565E+02 -0.23815618242E+02 -0.81742883134E+02  0.95387597623E+02  0.00000000000E+00 0. -1.
         21    1    1    2  502  501  0.28024402976E+02  0.27499859581E+03 -0.72222381895E+03  0.77331548512E+03  0.00000000000E+00 0.  1.
<scales pt_clust_5="13000.00000" pt_clust_6="13000.00000" pt_clust_7="13000.00000" pt_clust_8="13000.00000" pt_clust_9="293.42795"></scales>
<clustering>
<clus scale="   80.077">  5  6 -1 -1</clus>
<clus scale="   92.946">  7  8 -1 -1</clus>
<clus scale="  170.444">  1  7  2 -1</clus>
<clus scale="  293.428">  2  9  1 -1</clus>
<clus scale="  293.428">  2  5  1 -1</clus>
</clustering>
</event>
<event>
 9    1  0.2674825E-005  0.1276519E+03  0.7546771E-02  0.1251490E+00
         -2   -1    0    0    0  501 -0.00000000000E+00  0.00000000000E+00  0.85062098399E+02  0.85062098399E+02  0.00000000000E+00 0.  1.
          1   -1    0    0  502    0  0.00000000000E+00 -0.00000000000E+00 -0.11632707051E+04  0.11632707051E+04  0.00000000000E+00 0. -1.
         23    2    1    2    0    0  0.22988918473E+02  0.86368384991E+02  0.26218151773E+02  0.13077462492E+03  0.91796637972E+02 0.  0.
        -24    2    1    2    0    0  0.21754657946E+02 -0.13450293272E+02 -0.60920321557E+03  0.61499933309E+03  0.80258621385E+02 0.  0.
         13    1    4    4    0    0 -0.26961654486E+02 -0.25089429646E+01 -0.10911233459E+03  0.11242209377E+03  0.00000000000E+00 0. -1.
        -14    1    4    4    0    0  0.48716312432E+02 -0.10941350308E+02 -0.50009088098E+03  0.50257723932E+03  0.00000000000E+00 0.  1.
        -13    1    3    3    0    0 -0.19140197262E+02  0.69802819966E+02  0.40960329720E+02  0.83165674633E+02  0.00000000000E+00 0.  1.
         13    1    3    3    0    0  0.42129115734E+02  0.16565565025E+02 -0.14742177947E+02  0.47608950291E+02  0.00000000000E+00 0. -1.
         21    1    1    2  502  501 -0.44743576419E+02 -0.72918091719E+02 -0.49522354295E+03  0.50255884553E+03  0.00000000000E+00 0. -1.
<scales pt_clust_5="13000.00000" pt_clust_6="13000.00000" pt_clust_7="13000.00000" pt_clust_8="13000.00000" pt_clust_9="88.70386"></scales>
<clustering>
<clus scale="   80.259">  5  6 -1 -1</clus>
<clus scale="   84.236">  2  5  1 -1</clus>
<clus scale="   88.704">  2  9  1 -1</clus>
<clus scale="   91.797">  7  8 -1 -1</clus>
<clus scale="   84.236">  2  5  1 -1</clus>
</clustering>
</event>
<event>
 9    1  0.2674825E-005  0.2064237E+03  0.7546771E-02  0.1144867E+00
         -2   -1    0    0    0  501 -0.00000000000E+00  0.00000000000E+00  0.82600019804E+02  0.82600019804E+02  0.00000000000E+00 0.  1.
          1   -1    0    0  502    0  0.00000000000E+00 -0.00000000000E+00 -0.67041692117E+03  0.67041692117E+03  0.00000000000E+00 0. -1.
        -24    2    1    2    0    0  0.12381749501E+03  0.15702563546E+03 -0.16371221160E+03  0.27167913812E+03  0.83785700468E+02 0.  0.
         23    2    1    2    0    0 -0.11125634172E+03 -0.12160256387E+03 -0.32145308509E+03  0.37202207427E+03  0.88899835300E+02 0.  0.
         13    1    3    3    0    0  0.84594165994E+02  0.40363711043E+02 -0.70026522616E+02  0.11700049555E+03  0.00000000000E+00 0. -1.
        -14    1    3    3    0    0  0.39223329011E+02  0.11666192442E+03 -0.93685688979E+02  0.15467864257E+03  0.00000000000E+00 0.  1.
        -13    1    4    4    0    0 -0.12151467029E+03 -0.95500885847E+02 -0.29703107638E+03  0.33483383137E+03  0.00000000000E+00 0.  1.
         13    1    4    4    0    0  0.10258328565E+02 -0.26101678024E+02 -0.24422008705E+02  0.37188242898E+02  0.00000000000E+00 0. -1.
         21    1    1    2  502  501 -0.12561153281E+02 -0.35423071588E+02 -0.10265160468E+03  0.10931572858E+03  0.00000000000E+00 0.  1.
<scales pt_clust_5="13000.00000" pt_clust_6="13000.00000" pt_clust_7="13000.00000" pt_clust_8="13000.00000" pt_clust_9="37.58426"></scales>
<clustering>
<clus scale="   37.584">  2  9  1 -1</clus>
<clus scale="   83.786">  5  6 -1 -1</clus>
<clus scale="   88.900">  7  8 -1 -1</clus>
<clus scale="  204.273">  1  5  2 -1</clus>
<clus scale="   37.584">  2  5  1 -1</clus>
</clustering>
</event>
<event>
 9    1  0.2674825E-005  0.1242024E+03  0.7546771E-02  0.1240196E+00
         -2   -1    0    0    0  501 -0.00000000000E+00  0.00000000000E+00  0.23599873525E+02  0.23599873525E+02  0.00000000000E+00 0.  1.
          1   -1    0    0  502    0  0.00000000000E+00 -0.00000000000E+00 -0.88103819288E+03  0.88103819288E+03  0.00000000000E+00 0. -1.
         23    2    1    2    0    0  0.24107179005E+02 -0.69935287378E+02 -0.35407854490E+03  0.37321488132E+03  0.91900115218E+02 0.  0.
        -24    2    1    2    0    0  0.10841005142E+02  0.95955775250E+02 -0.33170401933E+03  0.35432394841E+03  0.78694763366E+02 0.  0.
         11    1    4    4    0    0 -0.31276665113E+02  0.18934660288E+02 -0.10747019648E+03  0.11351913615E+03  0.00000000000E+00 0. -1.
        -12    1    4    4    0    0  0.42117670256E+02  0.77021114962E+02 -0.22423382284E+03  0.24080481226E+03  0.00000000000E+00 0.  1.
        -13    1    3    3    0    0  0.51345149540E+02 -0.11070158422E+02 -0.14012825480E+03  0.14964892443E+03  0.00000000000E+00 0.  1.
         13    1    3    3    0    0 -0.27237970535E+02 -0.58865128957E+02 -0.21395029010E+03  0.22356595689E+03  0.00000000000E+00 0. -1.
         21    1    1    2  502  501 -0.34948184147E+02 -0.26020487872E+02 -0.17165575512E+03  0.17709923668E+03  0.00000000000E+00 0. -1.
<scales pt_clust_5="13000.00000" pt_clust_6="13000.00000" pt_clust_7="13000.00000" pt_clust_8="13000.00000" pt_clust_9="43.57111"></scales>
<clustering>
<clus scale="   43.571">  2  9  1 -1</clus>
<clus scale="   78.695">  5  6 -1 -1</clus>
<clus scale="   91.900">  7  8 -1 -1</clus>
<clus scale="  114.776">  2  5  1 -1</clus>
<clus scale="   43.571">  2  5  1 -1</clus>
</clustering>
</event>
<event>
 9    1  0.2674825E-005  0.1178271E+03  0.7546771E-02  0.1250279E+00
         -2   -1    0    0    0  501 -0.00000000000E+00  0.00000000000E+00  0.12338873780E+03  0.12338873780E+03  0.00000000000E+00 0.  1.
          1   -1    0    0  502    0  0.00000000000E+00 -0.00000000000E+00 -0.25191195079E+03  0.25191195079E+03  0.00000000000E+00 0. -1.
        -24    2    1    2    0    0 -0.43516965526E+00 -0.59566383986E+01  0.43602550778E+02  0.10464557901E+03  0.94941265312E+02 0.  0.
         23    2    1    2    0    0  0.68061389878E+02  0.20406717597E+02 -0.15422314453E+03  0.19922252439E+03  0.10419236537E+03 0.  0.
         13    1    3    3    0    0  0.40991792111E+02  0.20643434177E+02  0.21262235985E+02  0.50582220930E+02  0.00000000000E+00 0. -1.
        -14    1    3    3    0    0 -0.41426961767E+02 -0.26600072575E+02  0.22340314793E+02  0.54063358083E+02  0.00000000000E+00 0.  1.
        -11    1    4    4    0    0  0.88831243835E+01  0.23385229827E+02  0.82028906101E+01  0.26326152154E+02  0.00000000000E+00 0.  1.
         11    1    4    4    0    0  0.59178265494E+02 -0.29785122294E+01 -0.16242603514E+03  0.17289637223E+03  0.00000000000E+00 0. -1.
         21    1    1    2  502  501 -0.67626220222E+02 -0.14450079199E+02 -0.17902619244E+02  0.71432585185E+02  0.00000000000E+00 0.  1.
<scales pt_clust_5="13000.00000" pt_clust_6="13000.00000" pt_clust_7="13000.00000" pt_clust_8="13000.00000" pt_clust_9="69.15281"></scales>
<clustering>
<clus scale="   69.153">  1  9  2 -1</clus>
<clus scale="   94.941">  5  6 -1 -1</clus>
<clus scale="  104.192">  7  8 -1 -1</clus>
<clus scale="  109.732">  1  5  2 -1</clus>
<clus scale="  117.827">  2  5  1 -1</clus>
</clustering>
</event>
<event>
 9    1  0.2674825E-005  0.4349962E+03  0.7546771E-02  0.1086067E+00
         -2   -1    0    0    0  501 -0.00000000000E+00  0.00000000000E+00  0.31208521074E+03  0.31208521074E+03  0.00000000000E+00 0.  1.
          1   -1    0    0  502    0  0.00000000000E+00 -0.00000000000E+00 -0.82450657673E+03  0.82450657673E+03  0.00000000000E+00 0. -1.
        -24    2    1    2    0    0 -0.40279968234E+03 -0.17524843165E+03 -0.41140454642E+02  0.44844822140E+03  0.80334758228E+02 0.  0.
         23    2    1    2    0    0  0.30408141867E+02  0.15679039314E+02 -0.93438264130E+02  0.13415537446E+03  0.89980375228E+02 0.  0.
         13    1    3    3    0    0 -0.18276883071E+02 -0.30477635272E+02 -0.64002043455E+01  0.36109463057E+02  0.00000000000E+00 0. -1.
        -14    1    3    3    0    0 -0.38452279927E+03 -0.14477079638E+03 -0.34740250297E+02  0.41233875834E+03  0.00000000000E+00 0.  1.
        -13    1    4    4    0    0  0.58961325551E+02  0.57971081714E+01 -0.36194549069E+02  0.69426866242E+02  0.00000000000E+00 0.  1.
         13    1    4    4    0    0 -0.28553183684E+02  0.98819311424E+01 -0.57243715062E+02  0.64728508214E+02  0.00000000000E+00 0. -1.
         21    1    1    2  502  501  0.37239154047E+03  0.15956939234E+03 -0.37784264722E+03  0.55398819161E+03  0.00000000000E+00 0. -1.
<scales pt_clust_5="13000.00000" pt_clust_6="13000.00000" pt_clust_7="13000.00000" pt_clust_8="13000.00000" pt_clust_9="427.51379"></scales>
<clustering>
<clus scale="   80.335">  5  6 -1 -1</clus>
<clus scale="   89.980">  7  8 -1 -1</clus>
<clus scale="   96.265">  2  7  1 -1</clus>
<clus scale="  427.514">  2  9  1 -1</clus>
<clus scale="   96.265">  2  5  1 -1</clus>
</clustering>
</event>
<event>
 9    1  0.2674825E-005  0.1103090E+03  0.7546771E-02  0.1269737E+00
         -2   -1    0    0    0  501 -0.00000000000E+00  0.00000000000E+00  0.10330122026E+03  0.10330122026E+03  0.00000000000E+00 0.  1.
          1   -1    0    0  502    0  0.00000000000E+00 -0.00000000000E+00 -0.43175321787E+03  0.43175321787E+03  0.00000000000E+00 0. -1.
        -24    2    1    2    0    0 -0.47527146771E+02  0.79047821278E+01  0.69751824414E+02  0.11556951406E+03  0.78547312558E+02 0.  0.
         23    2    1    2    0    0  0.23396444107E+02  0.78461754197E+01 -0.30770553819E+03  0.32450954383E+03  0.10007392137E+03 0.  0.
         11    1    3    3    0    0  0.18024268330E+02  0.17794296264E+02  0.13940675430E+02  0.28911133838E+02  0.00000000000E+00 0. -1.
        -12    1    3    3    0    0 -0.65551415101E+02 -0.98895141361E+01  0.55811148984E+02  0.86658380221E+02  0.00000000000E+00 0.  1.
        -11    1    4    4    0    0  0.54854036180E+02  0.31913544386E+02 -0.18871813858E+03  0.19910292672E+03  0.00000000000E+00 0. -1.
         11    1    4    4    0    0 -0.31457592073E+02 -0.24067368966E+02 -0.11898739961E+03  0.12540661711E+03  0.00000000000E+00 0.  1.
         21    1    1    2  502  501  0.24130702664E+02 -0.15750957548E+02 -0.90498283837E+02  0.94975380242E+02  0.00000000000E+00 0. -1.
<scales pt_clust_5="13000.00000" pt_clust_6="13000.00000" pt_clust_7="13000.00000" pt_clust_8="13000.00000" pt_clust_9="28.81638"></scales>
<clustering>
<clus scale="   28.816">  2  9  1 -1</clus>
<clus scale="   78.547">  5  6 -1 -1</clus>
<clus scale="   91.230">  1  5  2 -1</clus>
<clus scale="  100.074">  7  8 -1 -1</clus>
<clus scale="   28.816">  2  5  1 -1</clus>
</clustering>
</event>
<event>
 9    1  0.2674825E-005  0.9579490E+02  0.7546771E-02  0.1296485E+00
          1   -1    0    0  502    0  0.00000000000E+00  0.00000000000E+00  0.61762402300E+03  0.61762402300E+03  0.00000000000E+00 0. -1.
         -2   -1    0    0    0  501 -0.00000000000E+00 -0.00000000000E+00 -0.39116764952E+02  0.39116764952E+02  0.00000000000E+00 0.  1.
        -24    2    1    2    0    0  0.25719031696E+02 -0.83225615772E+01  0.33742379252E+02  0.91910570744E+02  0.81106542487E+02 0.  0.
         23    2    1    2    0    0  0.12693307591E+02 -0.17188384355E+02  0.44112254770E+03  0.45139279408E+03  0.93326265538E+02 0.  0.
         13    1    3    3    0    0  0.23684803940E+02 -0.36981605789E+02 -0.44245564804E+01  0.44138257832E+02  0.00000000000E+00 0. -1.
        -14    1    3    3    0    0  0.20342277563E+01  0.28659044212E+02  0.38166935732E+02  0.47772312911E+02  0.00000000000E+00 0.  1.
        -13    1    4    4    0    0 -0.21663325316E+02 -0.45264930436E+02  0.26918648313E+03  0.27382398780E+03  0.00000000000E+00 0. -1.
         13    1    4    4    0    0  0.34356632907E+02  0.28076546081E+02  0.17193606457E+03  0.17756880628E+03  0.00000000000E+00 0.  1.
         21    1    1    2  502  501 -0.38412339287E+02  0.25510945932E+02  0.10364233110E+03  0.11343742313E+03  0.00000000000E+00 0.  1.
<scales pt_clust_5="13000.00000" pt_clust_6="13000.00000" pt_clust_7="13000.00000" pt_clust_8="13000.00000" pt_clust_9="46.11200"></scales>
<clustering>
<clus scale="   46.112">  1  9  2 -1</clus>
<clus scale="   81.107">  5  6 -1 -1</clus>
<clus scale="   83.935">  2  5  1 -1</clus>
<clus scale="   93.326">  7  8 -1 -1</clus>
<clus scale="   46.112">  1  5  2 -1</clus>
</clustering>
</event>
<event>
 9    1  0.2674825E-005  0.1585204E+03  0.7546771E-02  0.1191942E+00
          3   -1    0    0  502    0  0.00000000000E+00  0.00000000000E+00  0.50306965781E+03  0.50306965781E+03  0.00000000000E+00 0. -1.
         -4   -1    0    0    0  501 -0.00000000000E+00 -0.00000000000E+00 -0.18434760831E+03  0.18434760831E+03  0.00000000000E+00 0.  1.
        -24    2    1    2    0    0 -0.12789599479E+03 -0.14214168780E+02 -0.12736752180E+03  0.19838645917E+03  0.81088060119E+02 0.  0.
         23    2    1    2    0    0  0.14522781885E+03 -0.86877462814E+01  0.37519152724E+03  0.41253621570E+03  0.90834194258E+02 0.  0.
         11    1    3    3    0    0 -0.48312959406E+02 -0.44087438370E+02 -0.70193929508E+02  0.95942858037E+02  0.00000000000E+00 0. -1.
        -12    1    3    3    0    0 -0.79583035383E+02  0.29873269589E+02 -0.57173592295E+02  0.10244360113E+03  0.00000000000E+00 0.  1.
        -11    1    4    4    0    0  0.21347098077E+02  0.27378618752E+02  0.14040365953E+03  0.14463220586E+03  0.00000000000E+00 0.  1.
         11    1    4    4    0    0  0.12388072078E+03 -0.36066365033E+02  0.23478786771E+03  0.26790400984E+03  0.00000000000E+00 0. -1.
         21    1    1    2  502  501 -0.17331824065E+02  0.22901915062E+02  0.70898044058E+02  0.76494591248E+02  0.00000000000E+00 0.  1.
<scales pt_clust_5="13000.00000" pt_clust_6="13000.00000" pt_clust_7="13000.00000" pt_clust_8="13000.00000" pt_clust_9="28.72090"></scales>
<clustering>
<clus scale="   28.721">  1  9  2 -1</clus>
<clus scale="   81.088">  5  6 -1 -1</clus>
<clus scale="   90.834">  7  8 -1 -1</clus>
<clus scale="  153.144">  2  5  1 -1</clus>
<clus scale="   28.721">  1  5  2 -1</clus>
</clustering>
</event>
<event>
 9    1  0.2674825E-005  0.1173655E+03  0.7546771E-02  0.1251360E+00
          1   -1    0    0  502    0  0.00000000000E+00  0.00000000000E+00  0.80088123756E+02  0.80088123756E+02  0.00000000000E+00 0. -1.
         -2   -1    0    0    0  501 -0.00000000000E+00 -0.00000000000E+00 -0.66709267527E+03  0.66709267527E+03  0.00000000000E+00 0.  1.
        -24    2    1    2    0    0 -0.44622138705E+02  0.55490285723E+02 -0.53333501646E+03  0.54385626428E+03  0.79139682419E+02 0.  0.
         23    2    1    2    0    0  0.35491896124E+02 -0.10174934918E+03 -0.64526069133E+02  0.15493934473E+03  0.90719249325E+02 0.  0.
         13    1    3    3    0    0 -0.18882223009E+02 -0.19503271692E+02 -0.13102309708E+03  0.13380570960E+03  0.00000000000E+00 0. -1.
        -14    1    3    3    0    0 -0.25739915696E+02  0.74993557415E+02 -0.40231191939E+03  0.41005055468E+03  0.00000000000E+00 0.  1.
        -13    1    4    4    0    0 -0.30150665902E+02 -0.39578224556E+02 -0.30372454443E+02  0.58292233635E+02  0.00000000000E+00 0.  1.
         13    1    4    4    0    0  0.65642562025E+02 -0.62171124625E+02 -0.34153614690E+02  0.96647111093E+02  0.00000000000E+00 0. -1.
         21    1    1    2  502  501  0.91302425813E+01  0.46259063457E+02  0.10856534079E+02  0.48385190025E+02  0.00000000000E+00 0. -1.
<scales pt_clust_5="13000.00000" pt_clust_6="13000.00000" pt_clust_7="13000.00000" pt_clust_8="13000.00000" pt_clust_9="47.15148"></scales>
<clustering>
<clus scale="   47.151">  1  9  2 -1</clus>
<clus scale="   79.140">  5  6 -1 -1</clus>
<clus scale="   90.719">  7  8 -1 -1</clus>
<clus scale="  108.664">  2  5  1 -1</clus>
<clus scale="   47.151">  1  5  2 -1</clus>
</clustering>
</event>
<event>
 9    1  0.2674825E-005  0.1133318E+03  0.7546771E-02  0.1257021E+00
          1   -1    0    0  502    0  0.00000000000E+00  0.00000000000E+00  0.29108432833E+03  0.29108432833E+03  0.00000000000E+00 0. -1.
         -2   -1    0    0    0  501 -0.00000000000E+00 -0.00000000000E+00 -0.11473514906E+03  0.11473514906E+03  0.00000000000E+00 0.  1.
        -24    2    1    2    0    0 -0.68439758295E+02 -0.10469697200E+02 -0.24031070816E+02  0.12086584699E+03  0.96111630565E+02 0.  0.
         23    2    1    2    0    0  0.40767810429E+02  0.32214573443E+02  0.25632762580E+02  0.10669746436E+03  0.89596413287E+02 0.  0.
         13    1    3    3    0    0 -0.35478185880E+02  0.42907666347E+02 -0.96786385462E+01  0.56510579087E+02  0.00000000000E+00 0. -1.
        -14    1    3    3    0    0 -0.32961572415E+02 -0.53377363546E+02 -0.14352432270E+02  0.64355267907E+02  0.00000000000E+00 0.  1.
        -11    1    4    4    0    0  0.66624993302E+02  0.28960045269E+02  0.38792210907E+01  0.72750411069E+02  0.00000000000E+00 0. -1.
         11    1    4    4    0    0 -0.25857182873E+02  0.32545281741E+01  0.21753541490E+02  0.33947053290E+02  0.00000000000E+00 0.  1.
         21    1    1    2  502  501  0.27671947866E+02 -0.21744876244E+02  0.17474748750E+03  0.17825616604E+03  0.00000000000E+00 0. -1.
<scales pt_clust_5="13000.00000" pt_clust_6="13000.00000" pt_clust_7="13000.00000" pt_clust_8="13000.00000" pt_clust_9="35.19341"></scales>
<clustering>
<clus scale="   35.193">  1  9  2 -1</clus>
<clus scale="   89.596">  7  8 -1 -1</clus>
<clus scale="   96.112">  5  6 -1 -1</clus>
<clus scale="  107.862">  1  7  2 -1</clus>
<clus scale="   35.193">  1  5  2 -1</clus>
</clustering>
</event>
<event>
 9    1  0.2674825E-005  0.1073019E+03  0.7546771E-02  0.1269605E+00
          3   -1    0    0  502    0  0.00000000000E+00  0.00000000000E+00  0.22878774312E+03  0.22878774312E+03  0.00000000000E+00 0. -1.
         -4   -1    0    0    0  501 -0.00000000000E+00 -0.00000000000E+00 -0.13165194629E+03  0.13165194629E+03  0.00000000000E+00 0.  1.
        -24    2    1    2    0    0  0.50442120083E+02 -0.47104082464E+02 -0.65315167102E+02  0.12439878703E+03  0.80285646903E+02 0.  0.
         23    2    1    2    0    0 -0.20353239238E+02  0.28692184367E+02  0.33259968562E+02  0.10212058269E+03  0.89916028101E+02 0.  0.
         13    1    3    3    0    0  0.19449779722E+02  0.52266569130E+01  0.13942341291E+02  0.24494912827E+02  0.00000000000E+00 0. -1.
        -14    1    3    3    0    0  0.30992340361E+02 -0.52330739377E+02 -0.79257508393E+02  0.99903874206E+02  0.00000000000E+00 0.  1.
        -11    1    4    4    0    0  0.17899976346E+01  0.53953024578E+02  0.40831587751E+02  0.67685681728E+02  0.00000000000E+00 0. -1.
         11    1    4    4    0    0 -0.22143236872E+02 -0.25260840211E+02 -0.75716191888E+01  0.34434900965E+02  0.00000000000E+00 0.  1.
         21    1    1    2  502  501 -0.30088880846E+02  0.18411898096E+02  0.12919099536E+03  0.13392031969E+03  0.00000000000E+00 0. -1.
<scales pt_clust_5="13000.00000" pt_clust_6="13000.00000" pt_clust_7="13000.00000" pt_clust_8="13000.00000" pt_clust_9="35.27519"></scales>
<clustering>
<clus scale="   35.275">  1  9  2 -1</clus>
<clus scale="   80.286">  5  6 -1 -1</clus>
<clus scale="   89.916">  7  8 -1 -1</clus>
<clus scale="   99.371">  2  5  1 -1</clus>
<clus scale="   35.275">  1  5  2 -1</clus>
</clustering>
</event>
<event>
 9    1  0.2674825E-005  0.1198537E+03  0.7546771E-02  0.1249119E+00
         -4   -1    0    0    0  501 -0.00000000000E+00  0.00000000000E+00  0.29926914911E+03  0.29926914911E+03  0.00000000000E+00 0.  1.
          3   -1    0    0  502    0  0.00000000000E+00 -0.00000000000E+00 -0.22008045017E+03  0.22008045017E+03  0.00000000000E+00 0. -1.
        -24    2    1    2    0    0 -0.58032262264E+02  0.42949025210E+02  0.26626081503E+03  0.28711408849E+03  0.79544427574E+02 0.  0.
         23    2    1    2    0    0  0.33958741222E+02 -0.45850469839E+02 -0.14047626049E+03  0.17970812217E+03  0.96467443850E+02 0.  0.
         11    1    3    3    0    0  0.16846916407E+01  0.25423258661E+02  0.18062487726E+02  0.31231934454E+02  0.00000000000E+00 0. -1.
        -12    1    3    3    0    0 -0.59716953905E+02  0.17525766549E+02  0.24819832730E+03  0.25588215403E+03  0.00000000000E+00 0.  1.
        -11    1    4    4    0    0  0.68008112212E+02 -0.27187077191E+02 -0.92819444396E+02  0.11823573804E+03  0.00000000000E+00 0. -1.
         11    1    4    4    0    0 -0.34049370990E+02 -0.18663392648E+02 -0.47656816094E+02  0.61472384126E+02  0.00000000000E+00 0.  1.
         21    1    1    2  502  501  0.24073521042E+02  0.29014446289E+01 -0.46595855604E+02  0.52527388625E+02  0.00000000000E+00 0. -1.
<scales pt_clust_5="13000.00000" pt_clust_6="13000.00000" pt_clust_7="13000.00000" pt_clust_8="13000.00000" pt_clust_9="24.24774"></scales>
<clustering>
<clus scale="   24.248">  2  9  1 -1</clus>
<clus scale="   79.544">  5  6 -1 -1</clus>
<clus scale="   96.467">  7  8 -1 -1</clus>
<clus scale="  106.706">  1  5  2 -1</clus>
<clus scale="   24.248">  2  5  1 -1</clus>
</clustering>
</event>
<event>
 9    1  0.2674825E-005  0.1043885E+03  0.7546771E-02  0.1276126E+00
          1   -1    0    0  502    0  0.00000000000E+00  0.00000000000E+00  0.11598312356E+03  0.11598312356E+03  0.00000000000E+00 0. -1.
         -2   -1    0    0    0  501 -0.00000000000E+00 -0.00000000000E+00 -0.23018630292E+03  0.23018630292E+03  0.00000000000E+00 0.  1.
        -24    2    1    2    0    0 -0.50298676818E+02 -0.19920049094E+01 -0.13645092211E+03  0.16492246092E+03  0.77760137594E+02 0.  0.
         23    2    1    2    0    0  0.72143695089E+02 -0.45968219752E+02 -0.18437368899E+01  0.12330054751E+03  0.88779703104E+02 0.  0.
         11    1    3    3    0    0 -0.28818976868E+02 -0.37967976315E+02 -0.93325528339E+02  0.10479386858E+03  0.00000000000E+00 0. -1.
        -12    1    3    3    0    0 -0.21479699950E+02  0.35975971406E+02 -0.43125393768E+02  0.60128592334E+02  0.00000000000E+00 0.  1.
        -11    1    4    4    0    0  0.22805742275E+02 -0.41601177870E+02 -0.38973646744E+02  0.61397923592E+02  0.00000000000E+00 0.  1.
         11    1    4    4    0    0  0.49337952815E+02 -0.43670418820E+01  0.37129909854E+02  0.61902623922E+02  0.00000000000E+00 0. -1.
         21    1    1    2  502  501 -0.21845018272E+02  0.47960224662E+02  0.24091479642E+02  0.57946418045E+02  0.00000000000E+00 0. -1.
<scales pt_clust_5="13000.00000" pt_clust_6="13000.00000" pt_clust_7="13000.00000" pt_clust_8="13000.00000" pt_clust_9="52.70093"></scales>
<clustering>
<clus scale="   52.701">  1  9  2 -1</clus>
<clus scale="   77.760">  5  6 -1 -1</clus>
<clus scale="   88.780">  7  8 -1 -1</clus>
<clus scale="   95.193">  2  5  1 -1</clus>
<clus scale="   52.701">  1  5  2 -1</clus>
</clustering>
</event>
<event>
 9    1  0.2674825E-005  0.1129523E+03  0.7546771E-02  0.1255269E+00
          3   -1    0    0  502    0  0.00000000000E+00  0.00000000000E+00  0.43640444526E+02  0.43640444526E+02  0.00000000000E+00 0. -1.
         -4   -1    0    0    0  501 -0.00000000000E+00 -0.00000000000E+00 -0.89028677255E+03  0.89028677255E+03  0.00000000000E+00 0.  1.
        -24    2    1    2    0    0  0.76471455340E+02  0.22696703070E+00 -0.73766521138E+03  0.74702032198E+03  0.89674201239E+02 0.  0.
         23    2    1    2    0    0 -0.36720957053E+02  0.50170499590E+01 -0.10999740657E+03  0.14679910691E+03  0.89871846872E+02 0.  0.
         11    1    3    3    0    0  0.58544424174E+02 -0.41586070913E+02 -0.41574188660E+03  0.42189829007E+03  0.00000000000E+00 0. -1.
        -12    1    3    3    0    0  0.17927031166E+02  0.41813037943E+02 -0.32192332479E+03  0.32512203191E+03  0.00000000000E+00 0.  1.
        -13    1    4    4    0    0 -0.48729510386E+02 -0.30551656980E+02 -0.50997096400E+02  0.76867891658E+02  0.00000000000E+00 0. -1.
         13    1    4    4    0    0  0.12008553333E+02  0.35568706939E+02 -0.59000310169E+02  0.69931215251E+02  0.00000000000E+00 0.  1.
         21    1    1    2  502  501 -0.39750498287E+02 -0.52440169897E+01  0.10162899273E+01  0.40107788190E+02  0.00000000000E+00 0. -1.
<scales pt_clust_5="13000.00000" pt_clust_6="13000.00000" pt_clust_7="13000.00000" pt_clust_8="13000.00000" pt_clust_9="40.09491"></scales>
<clustering>
<clus scale="   40.095">  1  9  2 -1</clus>
<clus scale="   89.674">  5  6 -1 -1</clus>
<clus scale="   89.872">  7  8 -1 -1</clus>
<clus scale="  112.795">  2  5  1 -1</clus>
<clus scale="   40.095">  1  5  2 -1</clus>
</clustering>
</event>
<event>
 9    1  0.2674825E-005  0.1041545E+03  0.7546771E-02  0.1277830E+00
         -2   -1    0    0    0  501 -0.00000000000E+00  0.00000000000E+00  0.13043238448E+03  0.13043238448E+03  0.00000000000E+00 0.  1.
          1   -1    0    0  502    0  0.00000000000E+00 -0.00000000000E+00 -0.11595457018E+03  0.11595457018E+03  0.00000000000E+00 0. -1.
         23    2    1    2    0    0  0.35810753895E+02  0.33730308743E+02  0.53196226662E+02  0.11692136986E+03  0.91763960112E+02 0.  0.
        -24    2    1    2    0    0 -0.18930719336E+02 -0.49102041298E+02 -0.13664879375E+02  0.95570080034E+02  0.78597256155E+02 0.  0.
         13    1    4    4    0    0 -0.11454013113E+02 -0.65794262001E+02 -0.27915742662E+02  0.72383478896E+02  0.00000000000E+00 0. -1.
        -14    1    4    4    0    0 -0.74767062228E+01  0.16692220703E+02  0.14250863287E+02  0.23186601138E+02  0.00000000000E+00 0.  1.
        -13    1    3    3    0    0  0.19568395030E+02 -0.90879719921E+01 -0.20755390203E+02  0.29938262165E+02  0.00000000000E+00 0. -1.
         13    1    3    3    0    0  0.16242358865E+02  0.42818280735E+02  0.73951616865E+02  0.86983107691E+02  0.00000000000E+00 0.  1.
         21    1    1    2  502  501 -0.16880034560E+02  0.15371732556E+02 -0.25053532989E+02  0.33895504772E+02  0.00000000000E+00 0.  1.
<scales pt_clust_5="13000.00000" pt_clust_6="13000.00000" pt_clust_7="13000.00000" pt_clust_8="13000.00000" pt_clust_9="22.83037"></scales>
<clustering>
<clus scale="   22.830">  2  9  1 -1</clus>
<clus scale="   78.597">  5  6 -1 -1</clus>
<clus scale="   91.764">  7  8 -1 -1</clus>
<clus scale="   92.763">  2  5  1 -1</clus>
<clus scale="   22.830">  2  5  1 -1</clus>
</clustering>
</event>
<event>
 9    1  0.2674825E-005  0.1522964E+03  0.7546771E-02  0.1199694E+00
         -2   -1    0    0    0  501 -0.00000000000E+00  0.00000000000E+00  0.61407122348E+02  0.61407122348E+02  0.00000000000E+00 0.  1.
          1   -1    0    0  502    0  0.00000000000E+00 -0.00000000000E+00 -0.72303076939E+03  0.72303076939E+03  0.00000000000E+00 0. -1.
         23    2    1    2    0    0 -0.87383377557E+01  0.12311267479E+03 -0.79257376981E+02  0.17272241584E+03  0.91204231739E+02 0.  0.
        -24    2    1    2    0    0  0.48311996340E+02 -0.11189214590E+03 -0.46974541168E+03  0.49181788433E+03  0.79813396396E+02 0.  0.
         13    1    4    4    0    0  0.38506457643E+02 -0.12410207414E+03 -0.41375505848E+03  0.43367882183E+03  0.00000000000E+00 0. -1.
        -14    1    4    4    0    0  0.98055386971E+01  0.12209928235E+02 -0.55990353198E+02  0.58139062495E+02  0.00000000000E+00 0.  1.
        -11    1    3    3    0    0 -0.38787290611E+02  0.10687355384E+03 -0.39622962423E+02  0.12040095338E+03  0.00000000000E+00 0.  1.
         11    1    3    3    0    0  0.30048952855E+02  0.16239120953E+02 -0.39634414558E+02  0.52321462464E+02  0.00000000000E+00 0. -1.
         21    1    1    2  502  501 -0.39573658584E+02 -0.11220528884E+02 -0.11262085838E+03  0.11989759157E+03  0.00000000000E+00 0. -1.
<scales pt_clust_5="13000.00000" pt_clust_6="13000.00000" pt_clust_7="13000.00000" pt_clust_8="13000.00000" pt_clust_9="41.13362"></scales>
<clustering>
<clus scale="   41.134">  2  9  1 -1</clus>
<clus scale="   79.813">  5  6 -1 -1</clus>
<clus scale="   91.204">  7  8 -1 -1</clus>
<clus scale="  145.761">  2  5  1 -1</clus>
<clus scale="   41.134">  2  5  1 -1</clus>
</clustering>
</event>
<event>
 9    1  0.2674825E-005  0.1173668E+03  0.7546771E-02  0.1251254E+00
          1   -1    0    0  502    0  0.00000000000E+00  0.00000000000E+00  0.72204639166E+03  0.72204639166E+03  0.00000000000E+00 0. -1.
         -2   -1    0    0    0  501 -0.00000000000E+00 -0.00000000000E+00 -0.35859384971E+02  0.35859384971E+02  0.00000000000E+00 0.  1.
         23    2    1    2    0    0  0.34540827397E+00  0.81437361889E+02  0.10007176509E+03  0.15782175207E+03  0.90891055882E+02 0.  0.
        -24    2    1    2    0    0  0.86770863501E+01 -0.48389905066E+02  0.45816752090E+03  0.46762965867E+03  0.79643868080E+02 0.  0.
         11    1    4    4    0    0 -0.16259475446E+01 -0.67425333110E+02  0.27328712684E+03  0.28148654132E+03  0.00000000000E+00 0. -1.
        -12    1    4    4    0    0  0.10303033895E+02  0.19035428044E+02  0.18488039406E+03  0.18614311734E+03  0.00000000000E+00 0.  1.
        -13    1    3    3    0    0  0.23858439331E+02  0.89157666393E+02  0.57985236131E+02  0.10899817527E+03  0.00000000000E+00 0.  1.
         13    1    3    3    0    0 -0.23513031057E+02 -0.77203045039E+01  0.42086528961E+02  0.48823576796E+02  0.00000000000E+00 0. -1.
         21    1    1    2  502  501 -0.90224946241E+01 -0.33047456823E+02  0.12794772070E+03  0.13245436589E+03  0.00000000000E+00 0. -1.
<scales pt_clust_5="13000.00000" pt_clust_6="13000.00000" pt_clust_7="13000.00000" pt_clust_8="13000.00000" pt_clust_9="34.25697"></scales>
<clustering>
<clus scale="   34.257">  1  9  2 -1</clus>
<clus scale="   79.644">  5  6 -1 -1</clus>
<clus scale="   90.891">  7  8 -1 -1</clus>
<clus scale="  108.890">  1  5  2 -1</clus>
<clus scale="   34.257">  1  5  2 -1</clus>
</clustering>
</event>
<event>
 9    1  0.2674825E-005  0.1060455E+03  0.7546771E-02  0.1274276E+00
         -2   -1    0    0    0  501 -0.00000000000E+00  0.00000000000E+00  0.81901643267E+02  0.81901643267E+02  0.00000000000E+00 0.  1.
          1   -1    0    0  502    0  0.00000000000E+00 -0.00000000000E+00 -0.27610238060E+03  0.27610238060E+03  0.00000000000E+00 0. -1.
        -24    2    1    2    0    0 -0.23052051728E+02  0.37776539920E+02  0.26837121048E+02  0.92453656566E+02  0.76609291140E+02 0.  0.
         23    2    1    2    0    0  0.44913302312E+02 -0.35534357681E+02 -0.21842477436E+03  0.24341962248E+03  0.90905639283E+02 0.  0.
         11    1    3    3    0    0 -0.38537419802E+02 -0.59337870585E+01  0.23391944301E+00  0.38992271954E+02  0.00000000000E+00 0. -1.
        -12    1    3    3    0    0  0.15485368074E+02  0.43710326979E+02  0.26603201605E+02  0.53461384612E+02  0.00000000000E+00 0.  1.
        -13    1    4    4    0    0 -0.23948875431E+02 -0.27549913612E+01 -0.21723489471E+02  0.32450710417E+02  0.00000000000E+00 0. -1.
         13    1    4    4    0    0  0.68862177742E+02 -0.32779366320E+02 -0.19670128489E+03  0.21096891206E+03  0.00000000000E+00 0.  1.
         21    1    1    2  502  501 -0.21861250583E+02 -0.22421822392E+01 -0.26130840221E+01  0.22130744822E+02  0.00000000000E+00 0. -1.
<scales pt_clust_5="13000.00000" pt_clust_6="13000.00000" pt_clust_7="13000.00000" pt_clust_8="13000.00000" pt_clust_9="21.97593"></scales>
<clustering>
<clus scale="   21.976">  1  9  2 -1</clus>
<clus scale="   76.609">  5  6 -1 -1</clus>
<clus scale="   90.906">  7  8 -1 -1</clus>
<clus scale="   94.079">  1  5  2 -1</clus>
<clus scale="  106.046">  2  5  1 -1</clus>
</clustering>
</event>
<event>
 9    1  0.2674825E-005  0.9824090E+02  0.7546771E-02  0.1291498E+00
          1   -1    0    0  502    0  0.00000000000E+00  0.00000000000E+00  0.20156422311E+03  0.20156422311E+03  0.00000000000E+00 0. -1.
         -2   -1    0    0    0  501 -0.00000000000E+00 -0.00000000000E+00 -0.10178849305E+03  0.10178849305E+03  0.00000000000E+00 0.  1.
        -24    2    1    2    0    0  0.62926028541E+02 -0.66612227440E+00  0.95722638022E+01  0.10166737602E+03  0.79274827821E+02 0.  0.
         23    2    1    2    0    0 -0.90327690484E+01 -0.27806898013E+02  0.10035401618E+03  0.13989351248E+03  0.92975543962E+02 0.  0.
         11    1    3    3    0    0  0.23884098666E+02 -0.19514727429E+02 -0.29958057590E+02  0.42997208867E+02  0.00000000000E+00 0. -1.
        -12    1    3    3    0    0  0.39041929874E+02  0.18848605155E+02  0.39530321392E+02  0.58670167155E+02  0.00000000000E+00 0.  1.
        -11    1    4    4    0    0 -0.33420875782E+02  0.20371552917E+02  0.63229894443E+02  0.74363799376E+02  0.00000000000E+00 0.  1.
         11    1    4    4    0    0  0.24388106734E+02 -0.48178450930E+02  0.37124121740E+02  0.65529713101E+02  0.00000000000E+00 0. -1.
         21    1    1    2  502  501 -0.53893259492E+02  0.28473020287E+02 -0.10150549926E+02  0.61791827670E+02  0.00000000000E+00 0.  1.
<scales pt_clust_5="13000.00000" pt_clust_6="13000.00000" pt_clust_7="13000.00000" pt_clust_8="13000.00000" pt_clust_9="60.95241"></scales>
<clustering>
<clus scale="   60.952">  2  9  1 -1</clus>
<clus scale="   79.275">  5  6 -1 -1</clus>
<clus scale="   85.389">  2  5  1 -1</clus>
<clus scale="   92.976">  7  8 -1 -1</clus>
<clus scale="   98.241">  1  5  2 -1</clus>
</clustering>
</event>
<event>
 9    1  0.2674825E-005  0.1106199E+03  0.7546771E-02  0.1263714E+00
          1   -1    0    0  502    0  0.00000000000E+00  0.00000000000E+00  0.52526143521E+03  0.52526143521E+03  0.00000000000E+00 0. -1.
         -2   -1    0    0    0  501 -0.00000000000E+00 -0.00000000000E+00 -0.85858413867E+02  0.85858413867E+02  0.00000000000E+00 0.  1.
        -24    2    1    2    0    0 -0.67375440015E+02 -0.20112034199E+02 -0.28438018779E+02  0.10937465175E+03  0.78804503021E+02 0.  0.
         23    2    1    2    0    0  0.46590648475E+00  0.20805627821E+02  0.38139929543E+03  0.39243123676E+03  0.90020896543E+02 0.  0.
         13    1    3    3    0    0 -0.40704584718E+02 -0.47444972658E+02 -0.13030266107E+01  0.62526686510E+02  0.00000000000E+00 0. -1.
        -14    1    3    3    0    0 -0.26670855297E+02  0.27332938459E+02 -0.27134992169E+02  0.46847965239E+02  0.00000000000E+00 0.  1.
        -11    1    4    4    0    0  0.35380429830E+02 -0.17851785207E+02  0.18863561526E+03  0.19275335638E+03  0.00000000000E+00 0. -1.
         11    1    4    4    0    0 -0.34914523345E+02  0.38657413028E+02  0.19276368016E+03  0.19967788038E+03  0.00000000000E+00 0.  1.
         21    1    1    2  502  501  0.66909533530E+02 -0.69359362234E+00  0.86441744696E+02  0.10931396057E+03  0.00000000000E+00 0.  1.
<scales pt_clust_5="13000.00000" pt_clust_6="13000.00000" pt_clust_7="13000.00000" pt_clust_8="13000.00000" pt_clust_9="66.91313"></scales>
<clustering>
<clus scale="   66.913">  1  9  2 -1</clus>
<clus scale="   78.805">  5  6 -1 -1</clus>
<clus scale="   90.021">  7  8 -1 -1</clus>
<clus scale="  101.701">  2  5  1 -1</clus>
<clus scale="   66.913">  1  5  2 -1</clus>
</clustering>
</event>
<event>
 9    1  0.2674825E-005  0.9387292E+02  0.7546771E-02  0.1301191E+00
          1   -1    0    0  502    0  0.00000000000E+00  0.00000000000E+00  0.19130068033E+03  0.19130068033E+03  0.00000000000E+00 0. -1.
         -2   -1    0    0    0  501 -0.00000000000E+00 -0.00000000000E+00 -0.10304489632E+03  0.10304489632E+03  0.00000000000E+00 0.  1.
        -24    2    1    2    0    0 -0.31548289060E+02  0.22811885274E+02 -0.12765324615E+02  0.90313049423E+02  0.80484885110E+02 0.  0.
         23    2    1    2    0    0 -0.11978694097E+02  0.16212442137E+02  0.94456870436E+01  0.95388363880E+02  0.92754442307E+02 0.  0.
         11    1    3    3    0    0 -0.38935762992E+02  0.48468239193E+02 -0.13436585635E+02  0.63605862023E+02  0.00000000000E+00 0. -1.
        -12    1    3    3    0    0  0.73874739315E+01 -0.25656353918E+02  0.67126101910E+00  0.26707187400E+02  0.00000000000E+00 0.  1.
        -11    1    4    4    0    0 -0.18678950088E+02  0.52051696298E+02  0.17585815587E+02  0.58030536563E+02  0.00000000000E+00 0. -1.
         11    1    4    4    0    0  0.67002559907E+01 -0.35839254161E+02 -0.81401285436E+01  0.37357827317E+02  0.00000000000E+00 0.  1.
         21    1    1    2  502  501  0.43526983157E+02 -0.39024327411E+02  0.91575421574E+02  0.10864416335E+03  0.00000000000E+00 0. -1.
<scales pt_clust_5="13000.00000" pt_clust_6="13000.00000" pt_clust_7="13000.00000" pt_clust_8="13000.00000" pt_clust_9="58.45936"></scales>
<clustering>
<clus scale="   58.459">  1  9  2 -1</clus>
<clus scale="   80.485">  5  6 -1 -1</clus>
<clus scale="   81.771">  2  5  1 -1</clus>
<clus scale="   92.754">  7  8 -1 -1</clus>
<clus scale="   58.459">  1  5  2 -1</clus>
</clustering>
</event>
<event>
 9    1  0.2674825E-005  0.8742572E+02  0.7546771E-02  0.1313011E+00
          1   -1    0    0  502    0  0.00000000000E+00  0.00000000000E+00  0.29283684256E+03  0.29283684256E+03  0.00000000000E+00 0. -1.
         -2   -1    0    0    0  501 -0.00000000000E+00 -0.00000000000E+00 -0.19763827298E+03  0.19763827298E+03  0.00000000000E+00 0.  1.
         23    2    1    2    0    0 -0.14572478346E+02  0.13593962010E+02 -0.16683312296E+03  0.18867893694E+03  0.85844611953E+02 0.  0.
        -24    2    1    2    0    0 -0.23321568984E+02  0.32649743669E+02  0.16929858602E+03  0.19146092503E+03  0.79908530465E+02 0.  0.
         13    1    4    4    0    0  0.12115622747E+02  0.39440387716E+02  0.13685004703E+03  0.14293448803E+03  0.00000000000E+00 0. -1.
        -14    1    4    4    0    0 -0.35437191731E+02 -0.67906440470E+01  0.32448538994E+02  0.48526436992E+02  0.00000000000E+00 0.  1.
        -11    1    3    3    0    0  0.10437125439E+02 -0.26975802768E+02 -0.22394513226E+02  0.36580619801E+02  0.00000000000E+00 0. -1.
         11    1    3    3    0    0 -0.25009603784E+02  0.40569764779E+02 -0.14443860973E+03  0.15209831714E+03  0.00000000000E+00 0.  1.
         21    1    1    2  502  501  0.37894047330E+02 -0.46243705679E+02  0.92733106517E+02  0.11033525358E+03  0.00000000000E+00 0. -1.
<scales pt_clust_5="13000.00000" pt_clust_6="13000.00000" pt_clust_7="13000.00000" pt_clust_8="13000.00000" pt_clust_9="59.78661"></scales>
<clustering>
<clus scale="   59.787">  1  9  2 -1</clus>
<clus scale="   79.909">  5  6 -1 -1</clus>
<clus scale="   81.605">  1  5  2 -1</clus>
<clus scale="   85.845">  7  8 -1 -1</clus>
<clus scale="   59.787">  1  5  2 -1</clus>
</clustering>
</event>
<event>
 9    1  0.2674825E-005  0.1645139E+03  0.7546771E-02  0.1206286E+00
         -2   -1    0    0    0  501 -0.00000000000E+00  0.00000000000E+00  0.49132835029E+03  0.49132835029E+03  0.00000000000E+00 0.  1.
          1   -1    0    0  502    0  0.00000000000E+00 -0.00000000000E+00 -0.32882598148E+03  0.32882598148E+03  0.00000000000E+00 0. -1.
        -24    2    1    2    0    0 -0.15434890146E+03 -0.13344656192E+02  0.40385356954E+03  0.43996223353E+03  0.80420134765E+02 0.  0.
         23    2    1    2    0    0  0.44929211561E+02 -0.64441362674E+01 -0.24929875316E+03  0.26871372171E+03  0.89426142523E+02 0.  0.
         13    1    3    3    0    0 -0.13932235523E+03 -0.26514543428E+02  0.27348229921E+03  0.30806867361E+03  0.00000000000E+00 0. -1.
        -14    1    3    3    0    0 -0.15026546228E+02  0.13169887236E+02  0.13037127033E+03  0.13189355992E+03  0.00000000000E+00 0.  1.
        -11    1    4    4    0    0 -0.21289774953E+02  0.16623508465E+02 -0.42571586910E+02  0.50417611638E+02  0.00000000000E+00 0.  1.
         11    1    4    4    0    0  0.66218986515E+02 -0.23067644732E+02 -0.20672716625E+03  0.21829611008E+03  0.00000000000E+00 0. -1.
         21    1    1    2  502  501  0.10941968989E+03  0.19788792460E+02  0.79475524268E+01  0.11147837653E+03  0.00000000000E+00 0. -1.
<scales pt_clust_5="13000.00000" pt_clust_6="13000.00000" pt_clust_7="13000.00000" pt_clust_8="13000.00000" pt_clust_9="143.51807"></scales>
<clustering>
<clus scale="   80.420">  5  6 -1 -1</clus>
<clus scale="   89.426">  7  8 -1 -1</clus>
<clus scale="  100.286">  2  7  1 -1</clus>
<clus scale="  143.518">  2  9  1 -1</clus>
<clus scale="  100.286">  2  5  1 -1</clus>
</clustering>
</event>
<event>
 9    1  0.2674825E-005  0.8805993E+02  0.7546771E-02  0.1310794E+00
         -2   -1    0    0    0  501 -0.00000000000E+00  0.00000000000E+00  0.34855181229E+03  0.34855181229E+03  0.00000000000E+00 0.  1.
          1   -1    0    0  502    0  0.00000000000E+00 -0.00000000000E+00 -0.44022606380E+02  0.44022606380E+02  0.00000000000E+00 0. -1.
        -24    2    1    2    0    0 -0.90327293585E+01 -0.17406116239E+02  0.23272875293E+03  0.24738232954E+03  0.81552323365E+02 0.  0.
         23    2    1    2    0    0 -0.14804313256E+02  0.11765039897E+02  0.79972531671E+02  0.11936943991E+03  0.86578712782E+02 0.  0.
         13    1    3    3    0    0 -0.29649513357E+02 -0.39421636915E+02  0.18000062402E+03  0.18663703745E+03  0.00000000000E+00 0. -1.
        -14    1    3    3    0    0  0.20616783999E+02  0.22015520676E+02  0.52728128906E+02  0.60745292089E+02  0.00000000000E+00 0.  1.
        -11    1    4    4    0    0 -0.30918386636E+02 -0.28595781821E+01  0.90148932475E+02  0.95346493622E+02  0.00000000000E+00 0.  1.
         11    1    4    4    0    0  0.16114073380E+02  0.14624618079E+02 -0.10176400804E+02  0.24022946285E+02  0.00000000000E+00 0. -1.
         21    1    1    2  502  501  0.23837042615E+02  0.56410763420E+01 -0.81720786885E+01  0.25822649225E+02  0.00000000000E+00 0.  1.
<scales pt_clust_5="13000.00000" pt_clust_6="13000.00000" pt_clust_7="13000.00000" pt_clust_8="13000.00000" pt_clust_9="24.49544"></scales>
<clustering>
<clus scale="   24.495">  2  9  1 -1</clus>
<clus scale="   81.552">  5  6 -1 -1</clus>
<clus scale="   83.123">  1  5  2 -1</clus>
<clus scale="   86.579">  7  8 -1 -1</clus>
<clus scale="   24.495">  2  5  1 -1</clus>
</clustering>
</event>
<event>
 9    1  0.2674825E-005  0.8459224E+02  0.7546771E-02  0.1320455E+00
         -2   -1    0    0    0  501 -0.00000000000E+00  0.00000000000E+00  0.11345630742E+04  0.11345630742E+04  0.00000000000E+00 0.  1.
          1   -1    0    0  502    0  0.00000000000E+00 -0.00000000000E+00 -0.16824166065E+02  0.16824166065E+02  0.00000000000E+00 0. -1.
        -24    2    1    2    0    0  0.29830746356E+02  0.84791931938E+00  0.92835064835E+03  0.93233512596E+03  0.80766753147E+02 0.  0.
         23    2    1    2    0    0 -0.46797833753E+01  0.14271571737E+02  0.16150436139E+03  0.17857148018E+03  0.74689602046E+02 0.  0.
         11    1    3    3    0    0  0.10308569860E+02 -0.22318526493E+02  0.86132035886E+02  0.89571819471E+02  0.00000000000E+00 0. -1.
        -12    1    3    3    0    0  0.19522176496E+02  0.23166445812E+02  0.84221861246E+03  0.84276330649E+03  0.00000000000E+00 0.  1.
        -13    1    4    4    0    0 -0.43063228760E+01 -0.28142406309E+02  0.34833979425E+02  0.44988282609E+02  0.00000000000E+00 0.  1.
         13    1    4    4    0    0 -0.37346049928E+00  0.42413978045E+02  0.12667038196E+03  0.13358319757E+03  0.00000000000E+00 0. -1.
         21    1    1    2  502  501 -0.25150962981E+02 -0.15119491056E+02  0.27883898371E+02  0.40480634099E+02  0.00000000000E+00 0. -1.
<scales pt_clust_5="13000.00000" pt_clust_6="13000.00000" pt_clust_7="13000.00000" pt_clust_8="13000.00000" pt_clust_9="29.34570"></scales>
<clustering>
<clus scale="   29.346">  2  9  1 -1</clus>
<clus scale="   74.690">  7  8 -1 -1</clus>
<clus scale="   78.811">  2  7  1 -1</clus>
<clus scale="   80.767">  5  6 -1 -1</clus>
<clus scale="   29.346">  2  5  1 -1</clus>
</clustering>
</event>
<event>
 9    1  0.2674825E-005  0.2690923E+03  0.7546771E-02  0.1102139E+00
         -2   -1    0    0    0  501 -0.00000000000E+00  0.00000000000E+00  0.30312129734E+03  0.30312129734E+03  0.00000000000E+00 0.  1.
          1   -1    0    0  502    0  0.00000000000E+00 -0.00000000000E+00 -0.11517922409E+04  0.11517922409E+04  0.00000000000E+00 0. -1.
         23    2    1    2    0    0  0.97386235151E+02  0.21329740564E+03  0.13251899652E+03  0.28434207312E+03  0.91155186688E+02 0.  0.
        -24    2    1    2    0    0 -0.45890397739E+02 -0.37721563612E+03 -0.37476888293E+03  0.54027986110E+03  0.83982426466E+02 0.  0.
         13    1    4    4    0    0  0.21337368965E+02 -0.47287655177E+02 -0.40395764206E+02  0.65751223656E+02  0.00000000000E+00 0. -1.
        -14    1    4    4    0    0 -0.67227766704E+02 -0.32992798095E+03 -0.33437311872E+03  0.47452863744E+03  0.00000000000E+00 0.  1.
        -13    1    3    3    0    0  0.42915396426E+01  0.29519138935E+02  0.58082363324E+02  0.65294393368E+02  0.00000000000E+00 0.  1.
         13    1    3    3    0    0  0.93094695508E+02  0.18377826670E+03  0.74436633193E+02  0.21904767975E+03  0.00000000000E+00 0. -1.
         21    1    1    2  502  501 -0.51495837412E+02  0.16391823049E+03 -0.60642105718E+03  0.63029160406E+03  0.00000000000E+00 0. -1.
<scales pt_clust_5="13000.00000" pt_clust_6="13000.00000" pt_clust_7="13000.00000" pt_clust_8="13000.00000" pt_clust_9="171.81678"></scales>
<clustering>
<clus scale="   83.982">  5  6 -1 -1</clus>
<clus scale="   91.155">  7  8 -1 -1</clus>
<clus scale="  171.817">  2  9  1 -1</clus>
<clus scale="  266.748">  2  5  1 -1</clus>
<clus scale="  171.817">  2  5  1 -1</clus>
</clustering>
</event>
<event>
 9    1  0.2674825E-005  0.1253115E+03  0.7546771E-02  0.1237327E+00
          3   -1    0    0  502    0  0.00000000000E+00  0.00000000000E+00  0.20544062332E+03  0.20544062332E+03  0.00000000000E+00 0. -1.
         -4   -1    0    0    0  501 -0.00000000000E+00 -0.00000000000E+00 -0.89613739770E+02  0.89613739770E+02  0.00000000000E+00 0.  1.
        -24    2    1    2    0    0 -0.72398770126E+02 -0.54242295890E+02  0.24126336523E+02  0.12406304186E+03  0.81398707985E+02 0.  0.
         23    2    1    2    0    0  0.74447155546E+02  0.32052339783E+02  0.74855949496E+02  0.14305692486E+03  0.91061183392E+02 0.  0.
         11    1    3    3    0    0 -0.54433028002E+02 -0.73303722758E+02  0.31939264549E+02  0.96729038699E+02  0.00000000000E+00 0. -1.
        -12    1    3    3    0    0 -0.17965742124E+02  0.19061426868E+02 -0.78129280256E+01  0.27334003158E+02  0.00000000000E+00 0.  1.
        -13    1    4    4    0    0 -0.72427553798E+01 -0.19014248406E+02 -0.11005926118E+01  0.20376713475E+02  0.00000000000E+00 0.  1.
         13    1    4    4    0    0  0.81689910925E+02  0.51066588189E+02  0.75956542108E+02  0.12268021138E+03  0.00000000000E+00 0. -1.
         21    1    1    2  502  501 -0.20483854193E+01  0.22189956107E+02  0.16844597533E+02  0.27934396376E+02  0.00000000000E+00 0.  1.
<scales pt_clust_5="13000.00000" pt_clust_6="13000.00000" pt_clust_7="13000.00000" pt_clust_8="13000.00000" pt_clust_9="22.28430"></scales>
<clustering>
<clus scale="   22.284">  1  9  2 -1</clus>
<clus scale="   81.399">  5  6 -1 -1</clus>
<clus scale="   91.061">  7  8 -1 -1</clus>
<clus scale="  118.476">  2  5  1 -1</clus>
<clus scale="   22.284">  1  5  2 -1</clus>
</clustering>
</event>
<event>
 9    1  0.2674825E-005  0.1024902E+03  0.7546771E-02  0.1279714E+00
         -2   -1    0    0    0  501 -0.00000000000E+00  0.00000000000E+00  0.10702674684E+03  0.10702674684E+03  0.00000000000E+00 0.  1.
          1   -1    0    0  502    0  0.00000000000E+00 -0.00000000000E+00 -0.50156490047E+03  0.50156490047E+03  0.00000000000E+00 0. -1.
         23    2    1    2    0    0  0.12216212836E+02 -0.42711907958E+02  0.68983652088E+02  0.12272897357E+03  0.91269456888E+02 0.  0.
        -24    2    1    2    0    0 -0.34949501147E+02  0.66345159437E+02 -0.31958029418E+03  0.33823309771E+03  0.81528621642E+02 0.  0.
         13    1    4    4    0    0 -0.56846860548E+02  0.67883165313E+02 -0.24605798918E+03  0.26150377383E+03  0.00000000000E+00 0. -1.
        -14    1    4    4    0    0  0.21897359401E+02 -0.15380058759E+01 -0.73522304995E+02  0.76729323876E+02  0.00000000000E+00 0.  1.
        -13    1    3    3    0    0  0.47290881710E+02 -0.23067618096E+02  0.13695191372E+02  0.54370035536E+02  0.00000000000E+00 0.  1.
         13    1    3    3    0    0 -0.35074668873E+02 -0.19644289862E+02  0.55288460715E+02  0.68358938033E+02  0.00000000000E+00 0. -1.
         21    1    1    2  502  501  0.22733288310E+02 -0.23633251479E+02 -0.14394151155E+03  0.14762957603E+03  0.00000000000E+00 0.  1.
<scales pt_clust_5="13000.00000" pt_clust_6="13000.00000" pt_clust_7="13000.00000" pt_clust_8="13000.00000" pt_clust_9="32.79227"></scales>
<clustering>
<clus scale="   32.792">  2  9  1 -1</clus>
<clus scale="   81.529">  5  6 -1 -1</clus>
<clus scale="   91.269">  7  8 -1 -1</clus>
<clus scale="   93.920">  2  5  1 -1</clus>
<clus scale="   32.792">  2  5  1 -1</clus>
</clustering>
</event>
<event>
 9    1  0.2674825E-005  0.2809124E+03  0.7546771E-02  0.1095491E+00
         -2   -1    0    0    0  501 -0.00000000000E+00  0.00000000000E+00  0.10659673597E+04  0.10659673597E+04  0.00000000000E+00 0.  1.
          1   -1    0    0  502    0  0.00000000000E+00 -0.00000000000E+00 -0.16538163364E+03  0.16538163364E+03  0.00000000000E+00 0. -1.
        -24    2    1    2    0    0  0.16366641928E+03 -0.21014094532E+03  0.86096344959E+03  0.90490577660E+03  0.81550532121E+02 0.  0.
         23    2    1    2    0    0 -0.19477526363E+03  0.18684036690E+03  0.26209227273E+02  0.28532646783E+03  0.88755527297E+02 0.  0.
         11    1    3    3    0    0  0.52814833458E+02 -0.54625611377E+02  0.14248830821E+03  0.16148152225E+03  0.00000000000E+00 0. -1.
        -12    1    3    3    0    0  0.11085158582E+03 -0.15551533394E+03  0.71847514138E+03  0.74342425435E+03  0.00000000000E+00 0.  1.
        -11    1    4    4    0    0 -0.12918880290E+03  0.12437206670E+03 -0.25341500699E+02  0.18110866745E+03  0.00000000000E+00 0. -1.
         11    1    4    4    0    0 -0.65586460734E+02  0.62468300204E+02  0.51550727971E+02  0.10421780038E+03  0.00000000000E+00 0.  1.
         21    1    1    2  502  501  0.31108844355E+02  0.23300578413E+02  0.13413049179E+02  0.41116748896E+02  0.00000000000E+00 0. -1.
<scales pt_clust_5="13000.00000" pt_clust_6="13000.00000" pt_clust_7="13000.00000" pt_clust_8="13000.00000" pt_clust_9="38.86743"></scales>
<clustering>
<clus scale="   38.867">  2  9  1 -1</clus>
<clus scale="   81.551">  5  6 -1 -1</clus>
<clus scale="   88.756">  7  8 -1 -1</clus>
<clus scale="  278.720">  1  5  2 -1</clus>
<clus scale="   38.867">  2  5  1 -1</clus>
</clustering>
</event>
<event>
 9    1  0.2674825E-005  0.2461305E+03  0.7546771E-02  0.1116460E+00
         -2   -1    0    0    0  501 -0.00000000000E+00  0.00000000000E+00  0.73615244513E+03  0.73615244513E+03  0.00000000000E+00 0.  1.
          1   -1    0    0  502    0  0.00000000000E+00 -0.00000000000E+00 -0.54185878457E+03  0.54185878457E+03  0.00000000000E+00 0. -1.
        -24    2    1    2    0    0  0.42915316548E+02  0.15133092510E+03  0.97236176098E+02  0.20142575623E+03  0.79841643544E+02 0.  0.
         23    2    1    2    0    0 -0.10579179953E+03 -0.22173266597E+03 -0.45032069236E+03  0.52112825127E+03  0.91807670111E+02 0.  0.
         13    1    3    3    0    0 -0.21153074323E+02  0.61876491943E+02  0.46628987390E+02  0.80314477359E+02  0.00000000000E+00 0. -1.
        -14    1    3    3    0    0  0.64068390871E+02  0.89454433160E+02  0.50607188708E+02  0.12111127887E+03  0.00000000000E+00 0.  1.
        -11    1    4    4    0    0 -0.73913445020E+02 -0.18872908897E+03 -0.28612340400E+03  0.35064008426E+03  0.00000000000E+00 0.  1.
         11    1    4    4    0    0 -0.31878354506E+02 -0.33003577005E+02 -0.16419728837E+03  0.17048816700E+03  0.00000000000E+00 0. -1.
         21    1    1    2  502  501  0.62876482978E+02  0.70401740871E+02  0.54737817683E+03  0.55545722220E+03  0.00000000000E+00 0.  1.
<scales pt_clust_5="13000.00000" pt_clust_6="13000.00000" pt_clust_7="13000.00000" pt_clust_8="13000.00000" pt_clust_9="94.39204"></scales>
<clustering>
<clus scale="   79.842">  5  6 -1 -1</clus>
<clus scale="   91.808">  7  8 -1 -1</clus>
<clus scale="   94.392">  1  9  2 -1</clus>
<clus scale="  241.922">  1  5  2 -1</clus>
<clus scale="  246.131">  2  5  1 -1</clus>
</clustering>
</event>
<event>
 9    1  0.2674825E-005  0.1353351E+03  0.7546771E-02  0.1222364E+00
         -2   -1    0    0    0  501 -0.00000000000E+00  0.00000000000E+00  0.14119066789E+03  0.14119066789E+03  0.00000000000E+00 0.  1.
          1   -1    0    0  502    0  0.00000000000E+00 -0.00000000000E+00 -0.26535410932E+03  0.26535410932E+03  0.00000000000E+00 0. -1.
         23    2    1    2    0    0 -0.35826027532E+02 -0.90892869247E+02  0.70297967098E+02  0.15119018029E+03  0.91496713100E+02 0.  0.
        -24    2    1    2    0    0  0.17264519874E+02  0.10891954206E+03 -0.14259958035E+03  0.19739651101E+03  0.80431411505E+02 0.  0.
         11    1    4    4    0    0 -0.11411825968E+02  0.10412838564E+03 -0.12622164694E+03  0.16402699359E+03  0.00000000000E+00 0. -1.
        -12    1    4    4    0    0  0.28676345842E+02  0.47911564157E+01 -0.16377933404E+02  0.33369517426E+02  0.00000000000E+00 0.  1.
        -13    1    3    3    0    0  0.76128542362E+01 -0.41665006800E+02  0.74182531250E+02  0.85422340660E+02  0.00000000000E+00 0.  1.
         13    1    3    3    0    0 -0.43438881768E+02 -0.49227862447E+02 -0.38845641517E+01  0.65767839625E+02  0.00000000000E+00 0. -1.
         21    1    1    2  502  501  0.18561507658E+02 -0.18026672814E+02 -0.51861828185E+02  0.57958085906E+02  0.00000000000E+00 0.  1.
<scales pt_clust_5="13000.00000" pt_clust_6="13000.00000" pt_clust_7="13000.00000" pt_clust_8="13000.00000" pt_clust_9="25.87451"></scales>
<clustering>
<clus scale="   25.875">  2  9  1 -1</clus>
<clus scale="   80.431">  5  6 -1 -1</clus>
<clus scale="   91.497">  7  8 -1 -1</clus>
<clus scale="  128.114">  2  5  1 -1</clus>
<clus scale="   25.875">  2  5  1 -1</clus>
</clustering>
</event>
<event>
 9    1  0.2674825E-005  0.9981802E+02  0.7546771E-02  0.1285427E+00
          1   -1    0    0  502    0  0.00000000000E+00  0.00000000000E+00  0.25055156351E+03  0.25055156351E+03  0.00000000000E+00 0. -1.
         -2   -1    0    0    0  501 -0.00000000000E+00 -0.00000000000E+00 -0.14124299368E+03  0.14124299368E+03  0.00000000000E+00 0.  1.
        -24    2    1    2    0    0  0.34259828417E+02  0.31327171228E+02 -0.95041366141E+02  0.13321037122E+03  0.80975392699E+02 0.  0.
         23    2    1    2    0    0 -0.92366567740E+01 -0.22876328707E+02  0.58978647560E+02  0.11083308665E+03  0.90536456657E+02 0.  0.
         11    1    3    3    0    0 -0.34669801257E+01 -0.21750004400E+02 -0.48202232632E+02  0.52995640135E+02  0.00000000000E+00 0. -1.
        -12    1    3    3    0    0  0.37726808542E+02  0.53077175628E+02 -0.46839133509E+02  0.80214731087E+02  0.00000000000E+00 0.  1.
        -11    1    4    4    0    0  0.24401288111E+02  0.24139764837E+02  0.12066895855E+02  0.36383527639E+02  0.00000000000E+00 0.  1.
         11    1    4    4    0    0 -0.33637944885E+02 -0.47016093545E+02  0.46911751705E+02  0.74449559007E+02  0.00000000000E+00 0. -1.
         21    1    1    2  502  501 -0.25023171643E+02 -0.84508425210E+01  0.14537128841E+03  0.14775109933E+03  0.00000000000E+00 0. -1.
<scales pt_clust_5="13000.00000" pt_clust_6="13000.00000" pt_clust_7="13000.00000" pt_clust_8="13000.00000" pt_clust_9="26.41166"></scales>
<clustering>
<clus scale="   26.412">  1  9  2 -1</clus>
<clus scale="   80.975">  5  6 -1 -1</clus>
<clus scale="   90.536">  7  8 -1 -1</clus>
<clus scale="   91.235">  2  5  1 -1</clus>
<clus scale="   26.412">  1  5  2 -1</clus>
</clustering>
</event>
<event>
 9    1  0.2674825E-005  0.1443762E+03  0.7546771E-02  0.1215691E+00
         -2   -1    0    0    0  501 -0.00000000000E+00  0.00000000000E+00  0.23924476956E+03  0.23924476956E+03  0.00000000000E+00 0.  1.
          1   -1    0    0  502    0  0.00000000000E+00 -0.00000000000E+00 -0.11926348440E+03  0.11926348440E+03  0.00000000000E+00 0. -1.
         23    2    1    2    0    0  0.61957216302E+02  0.30747084499E+02  0.14561777002E+03  0.19659482121E+03  0.11252070443E+03 0.  0.
        -24    2    1    2    0    0 -0.85054124856E+02 -0.45030805034E+02 -0.38942397925E+02  0.13167208391E+03  0.80987960635E+02 0.  0.
         13    1    4    4    0    0 -0.33037633772E+02  0.20408975902E+02 -0.26839828110E+02  0.47205803834E+02  0.00000000000E+00 0. -1.
        -14    1    4    4    0    0 -0.52016491084E+02 -0.65439780936E+02 -0.12102569815E+02  0.84466280075E+02  0.00000000000E+00 0.  1.
        -11    1    3    3    0    0  0.22006652410E+02  0.71352890991E+02  0.74536131747E+02  0.10550432569E+03  0.00000000000E+00 0. -1.
         11    1    3    3    0    0  0.39950563892E+02 -0.40605806491E+02  0.71081638268E+02  0.91090495525E+02  0.00000000000E+00 0.  1.
         21    1    1    2  502  501  0.23096908554E+02  0.14283720535E+02  0.13305913072E+02  0.30241348841E+02  0.00000000000E+00 0. -1.
<scales pt_clust_5="13000.00000" pt_clust_6="13000.00000" pt_clust_7="13000.00000" pt_clust_8="13000.00000" pt_clust_9="27.15680"></scales>
<clustering>
<clus scale="   27.157">  1  9  2 -1</clus>
<clus scale="   80.988">  5  6 -1 -1</clus>
<clus scale="  112.521">  7  8 -1 -1</clus>
<clus scale="  121.419">  2  5  1 -1</clus>
<clus scale="  121.419">  2  5  1 -1</clus>
</clustering>
</event>
<event>
 9    1  0.2674825E-005  0.9739135E+02  0.7546771E-02  0.1291903E+00
         -4   -1    0    0    0  501 -0.00000000000E+00  0.00000000000E+00  0.76203811144E+02  0.76203811144E+02  0.00000000000E+00 0.  1.
          3   -1    0    0  502    0  0.00000000000E+00 -0.00000000000E+00 -0.16337325147E+03  0.16337325147E+03  0.00000000000E+00 0. -1.
        -24    2    1    2    0    0 -0.28858506068E+02 -0.68070884930E+01  0.39417068759E+01  0.86908458138E+02  0.81598978036E+02 0.  0.
         23    2    1    2    0    0  0.22778307561E+02  0.28751059629E+02 -0.76703315771E+02  0.12572250476E+03  0.92613577992E+02 0.  0.
         11    1    3    3    0    0 -0.18011894394E+02  0.34850519593E+02  0.15747144594E+02  0.42272445144E+02  0.00000000000E+00 0. -1.
        -12    1    3    3    0    0 -0.10846611674E+02 -0.41657608086E+02 -0.11805437718E+02  0.44636012994E+02  0.00000000000E+00 0.  1.
        -13    1    4    4    0    0  0.26057602824E+02 -0.10590348385E+02  0.10480940720E+02  0.30016733037E+02  0.00000000000E+00 0.  1.
         13    1    4    4    0    0 -0.32792952624E+01  0.39341408014E+02 -0.87184256490E+02  0.95705771726E+02  0.00000000000E+00 0. -1.
         21    1    1    2  502  501  0.60801985071E+01 -0.21943971136E+02 -0.14407831426E+02  0.26946099708E+02  0.00000000000E+00 0.  1.
<scales pt_clust_5="13000.00000" pt_clust_6="13000.00000" pt_clust_7="13000.00000" pt_clust_8="13000.00000" pt_clust_9="22.77074"></scales>
<clustering>
<clus scale="   22.771">  2  9  1 -1</clus>
<clus scale="   81.599">  5  6 -1 -1</clus>
<clus scale="   86.984">  1  5  2 -1</clus>
<clus scale="   92.614">  7  8 -1 -1</clus>
<clus scale="   22.771">  2  5  1 -1</clus>
</clustering>
</event>
<event>
 9    1  0.2674825E-005  0.1030271E+03  0.7546771E-02  0.1279199E+00
         -2   -1    0    0    0  501 -0.00000000000E+00  0.00000000000E+00  0.35946642446E+03  0.35946642446E+03  0.00000000000E+00 0.  1.
          1   -1    0    0  502    0  0.00000000000E+00 -0.00000000000E+00 -0.14800854831E+03  0.14800854831E+03  0.00000000000E+00 0. -1.
        -24    2    1    2    0    0  0.65681865434E+01  0.44622367931E+02  0.31934343348E+03  0.33273344167E+03  0.81835309629E+02 0.  0.
         23    2    1    2    0    0 -0.26324025397E+02 -0.38412279294E+02 -0.11301300776E+03  0.15340730700E+03  0.92700617063E+02 0.  0.
         11    1    3    3    0    0  0.36021603377E+02 -0.41931842321E+01  0.11467816992E+03  0.12027560584E+03  0.00000000000E+00 0. -1.
        -12    1    3    3    0    0 -0.29453416833E+02  0.48815552163E+02  0.20466526356E+03  0.21245783583E+03  0.00000000000E+00 0.  1.
        -13    1    4    4    0    0  0.20140520524E+02 -0.31551694839E+02 -0.96691205949E+02  0.10368384311E+03  0.00000000000E+00 0. -1.
         13    1    4    4    0    0 -0.46464545922E+02 -0.68605844546E+01 -0.16321801813E+02  0.49723463890E+02  0.00000000000E+00 0.  1.
         21    1    1    2  502  501  0.19755838854E+02 -0.62100886368E+01  0.51274504298E+01  0.21334224092E+02  0.00000000000E+00 0. -1.
<scales pt_clust_5="13000.00000" pt_clust_6="13000.00000" pt_clust_7="13000.00000" pt_clust_8="13000.00000" pt_clust_9="20.70890"></scales>
<clustering>
<clus scale="   20.709">  2  9  1 -1</clus>
<clus scale="   81.835">  5  6 -1 -1</clus>
<clus scale="   92.701">  7  8 -1 -1</clus>
<clus scale="   93.371">  1  5  2 -1</clus>
<clus scale="   20.709">  2  5  1 -1</clus>
</clustering>
</event>
<event>
 9    1  0.2674825E-005  0.9429914E+02  0.7546771E-02  0.1295665E+00
         -2   -1    0    0    0  501 -0.00000000000E+00  0.00000000000E+00  0.14352059024E+03  0.14352059024E+03  0.00000000000E+00 0.  1.
          1   -1    0    0  502    0  0.00000000000E+00 -0.00000000000E+00 -0.95771276843E+02  0.95771276843E+02  0.00000000000E+00 0. -1.
         23    2    1    2    0    0  0.55780021016E+02  0.17840745845E+02  0.54801188888E+02  0.11829296923E+03  0.86950292166E+02 0.  0.
        -24    2    1    2    0    0 -0.25367508698E+02 -0.10965213584E+02 -0.17976860567E+02  0.87960296976E+02  0.81548144809E+02 0.  0.
         11    1    4    4    0    0  0.21194076523E+02 -0.10004605644E+02 -0.31687136820E+02  0.39412633172E+02  0.00000000000E+00 0. -1.
        -12    1    4    4    0    0 -0.46561585221E+02 -0.96060793948E+00  0.13710276253E+02  0.48547663804E+02  0.00000000000E+00 0.  1.
        -11    1    3    3    0    0  0.50505938736E+02 -0.21348759286E+02  0.55218117787E+01  0.55109978914E+02  0.00000000000E+00 0. -1.
         11    1    3    3    0    0  0.52740822802E+01  0.39189505131E+02  0.49279377110E+02  0.63182990311E+02  0.00000000000E+00 0.  1.
         21    1    1    2  502  501 -0.30412512318E+02 -0.68755322609E+01  0.10924985076E+02  0.33038600882E+02  0.00000000000E+00 0. -1.
<scales pt_clust_5="13000.00000" pt_clust_6="13000.00000" pt_clust_7="13000.00000" pt_clust_8="13000.00000" pt_clust_9="31.18002"></scales>
<clustering>
<clus scale="   31.180">  1  9  2 -1</clus>
<clus scale="   81.548">  5  6 -1 -1</clus>
<clus scale="   86.950">  7  8 -1 -1</clus>
<clus scale="   89.342">  2  5  1 -1</clus>
<clus scale="   89.342">  2  5  1 -1</clus>
</clustering>
</event>
<event>
 9    1  0.2674825E-005  0.9658876E+02  0.7546771E-02  0.1293221E+00
          1   -1    0    0  502    0  0.00000000000E+00  0.00000000000E+00  0.23551497625E+03  0.23551497625E+03  0.00000000000E+00 0. -1.
         -2   -1    0    0    0  501 -0.00000000000E+00 -0.00000000000E+00 -0.76428246098E+02  0.76428246098E+02  0.00000000000E+00 0.  1.
        -24    2    1    2    0    0 -0.37639191986E+02 -0.29659573586E+02 -0.37593968411E+01  0.93843003046E+02  0.80597624514E+02 0.  0.
         23    2    1    2    0    0 -0.23542288508E+01 -0.61949793611E+01  0.95969255654E+02  0.13232412358E+03  0.90860637724E+02 0.  0.
         11    1    3    3    0    0 -0.61570898501E+02 -0.28973122396E+02  0.52802654630E+01  0.68251729406E+02  0.00000000000E+00 0. -1.
        -12    1    3    3    0    0  0.23931706515E+02 -0.68645119035E+00 -0.90396623041E+01  0.25591273640E+02  0.00000000000E+00 0.  1.
        -13    1    4    4    0    0 -0.49935348580E+01 -0.45999630916E+02  0.29723410769E+02  0.54994386827E+02  0.00000000000E+00 0.  1.
         13    1    4    4    0    0  0.26393060072E+01  0.39804651555E+02  0.66245844885E+02  0.77329736752E+02  0.00000000000E+00 0. -1.
         21    1    1    2  502  501  0.39993420837E+02  0.35854552948E+02  0.66876871341E+02  0.85776095724E+02  0.00000000000E+00 0. -1.
<scales pt_clust_5="13000.00000" pt_clust_6="13000.00000" pt_clust_7="13000.00000" pt_clust_8="13000.00000" pt_clust_9="53.71241"></scales>
<clustering>
<clus scale="   53.712">  1  9  2 -1</clus>
<clus scale="   80.598">  5  6 -1 -1</clus>
<clus scale="   87.004">  2  5  1 -1</clus>
<clus scale="   90.861">  7  8 -1 -1</clus>
<clus scale="   53.712">  1  5  2 -1</clus>
</clustering>
</event>
<event>
 9    1  0.2674825E-005  0.9406606E+02  0.7546771E-02  0.1295099E+00
          1   -1    0    0  502    0  0.00000000000E+00  0.00000000000E+00  0.56501429134E+02  0.56501429134E+02  0.00000000000E+00 0. -1.
         -2   -1    0    0    0  501 -0.00000000000E+00 -0.00000000000E+00 -0.32175327411E+03  0.32175327411E+03  0.00000000000E+00 0.  1.
        -24    2    1    2    0    0 -0.41992125322E+02 -0.20405484967E+02 -0.19719990927E+03  0.22001485775E+03  0.85668027943E+02 0.  0.
         23    2    1    2    0    0  0.30426138805E+02 -0.72117427060E+01 -0.86242774131E+02  0.12320572053E+03  0.82243992652E+02 0.  0.
         11    1    3    3    0    0 -0.33837358081E+02 -0.53156173488E+02 -0.14134977945E+03  0.15475886318E+03  0.00000000000E+00 0. -1.
        -12    1    3    3    0    0 -0.81547672416E+01  0.32750688521E+02 -0.55850129818E+02  0.65255994576E+02  0.00000000000E+00 0.  1.
        -13    1    4    4    0    0 -0.30989678093E+01 -0.38918589398E+02 -0.24379354068E+02  0.46028394573E+02  0.00000000000E+00 0. -1.
         13    1    4    4    0    0  0.33525106614E+02  0.31706846692E+02 -0.61863420063E+02  0.77177325962E+02  0.00000000000E+00 0.  1.
         21    1    1    2  502  501  0.11565986517E+02  0.27617227673E+02  0.18190838427E+02  0.35034124952E+02  0.00000000000E+00 0. -1.
<scales pt_clust_5="13000.00000" pt_clust_6="13000.00000" pt_clust_7="13000.00000" pt_clust_8="13000.00000" pt_clust_9="29.94133"></scales>
<clustering>
<clus scale="   29.941">  1  9  2 -1</clus>
<clus scale="   82.244">  7  8 -1 -1</clus>
<clus scale="   85.668">  5  6 -1 -1</clus>
<clus scale="   90.959">  1  7  2 -1</clus>
<clus scale="   29.941">  1  5  2 -1</clus>
</clustering>
</event>
<event>
 9    1  0.2674825E-005  0.1093430E+03  0.7546771E-02  0.1264498E+00
         -2   -1    0    0    0  501 -0.00000000000E+00  0.00000000000E+00  0.14532901682E+03  0.14532901682E+03  0.00000000000E+00 0.  1.
          1   -1    0    0  502    0  0.00000000000E+00 -0.00000000000E+00 -0.24504704352E+03  0.24504704352E+03  0.00000000000E+00 0. -1.
         23    2    1    2    0    0  0.35596936038E+02 -0.36763232480E+02  0.95737494730E+02  0.13932256519E+03  0.87329446106E+02 0.  0.
        -24    2    1    2    0    0 -0.19030073293E+02  0.65405723234E+02 -0.19047554281E+03  0.21759227274E+03  0.80158670300E+02 0.  0.
         13    1    4    4    0    0 -0.23873159959E+02  0.35178128555E+02 -0.18043313173E+03  0.18537406377E+03  0.00000000000E+00 0. -1.
        -14    1    4    4    0    0  0.48430866665E+01  0.30227594679E+02 -0.10042411087E+02  0.32218208966E+02  0.00000000000E+00 0.  1.
        -11    1    3    3    0    0  0.48393606360E+02  0.11020688492E+02  0.62120376157E+02  0.79513130018E+02  0.00000000000E+00 0.  1.
         11    1    3    3    0    0 -0.12796670322E+02 -0.47783920972E+02  0.33617118573E+02  0.59809435175E+02  0.00000000000E+00 0. -1.
         21    1    1    2  502  501 -0.16566862745E+02 -0.28642490754E+02 -0.49799786127E+01  0.33461222404E+02  0.00000000000E+00 0. -1.
<scales pt_clust_5="13000.00000" pt_clust_6="13000.00000" pt_clust_7="13000.00000" pt_clust_8="13000.00000" pt_clust_9="33.08857"></scales>
<clustering>
<clus scale="   33.089">  1  9  2 -1</clus>
<clus scale="   80.159">  5  6 -1 -1</clus>
<clus scale="   87.329">  7  8 -1 -1</clus>
<clus scale="  103.706">  2  5  1 -1</clus>
<clus scale="  103.706">  2  5  1 -1</clus>
</clustering>
</event>
<event>
 9    1  0.2674825E-005  0.1001320E+03  0.7546771E-02  0.1286295E+00
         -2   -1    0    0    0  501 -0.00000000000E+00  0.00000000000E+00  0.28743417878E+03  0.28743417878E+03  0.00000000000E+00 0.  1.
          1   -1    0    0  502    0  0.00000000000E+00 -0.00000000000E+00 -0.17142838696E+03  0.17142838696E+03  0.00000000000E+00 0. -1.
         23    2    1    2    0    0  0.12512081363E+02  0.10293850474E+02  0.23301141465E+03  0.25149252444E+03  0.93229045671E+02 0.  0.
        -24    2    1    2    0    0 -0.27540502162E+02  0.26838078836E+02 -0.13608707401E+03  0.16299960762E+03  0.81058118877E+02 0.  0.
         13    1    4    4    0    0 -0.54721638724E+02  0.26542230566E+02 -0.10777073372E+03  0.12374764157E+03  0.00000000000E+00 0. -1.
        -14    1    4    4    0    0  0.27181136562E+02  0.29584826958E+00 -0.28316340292E+02  0.39251966047E+02  0.00000000000E+00 0.  1.
        -13    1    3    3    0    0  0.52039098980E+02 -0.10699411816E+00  0.15366888823E+03  0.16224119847E+03  0.00000000000E+00 0.  1.
         13    1    3    3    0    0 -0.39527017617E+02  0.10400844592E+02  0.79342526420E+02  0.89251325977E+02  0.00000000000E+00 0. -1.
         21    1    1    2  502  501  0.15028420799E+02 -0.37131929310E+02  0.19081451174E+02  0.44370433679E+02  0.00000000000E+00 0.  1.
<scales pt_clust_5="13000.00000" pt_clust_6="13000.00000" pt_clust_7="13000.00000" pt_clust_8="13000.00000" pt_clust_9="40.05788"></scales>
<clustering>
<clus scale="   40.058">  1  9  2 -1</clus>
<clus scale="   81.058">  5  6 -1 -1</clus>
<clus scale="   88.911">  2  5  1 -1</clus>
<clus scale="   93.229">  7  8 -1 -1</clus>
<clus scale="   88.911">  2  5  1 -1</clus>
</clustering>
</event>
<event>
 9    1  0.2674825E-005  0.1741987E+03  0.7546771E-02  0.1174968E+00
          1   -1    0    0  502    0  0.00000000000E+00  0.00000000000E+00  0.11173392922E+04  0.11173392922E+04  0.00000000000E+00 0. -1.
         -2   -1    0    0    0  501 -0.00000000000E+00 -0.00000000000E+00 -0.64189849480E+02  0.64189849480E+02  0.00000000000E+00 0.  1.
        -24    2    1    2    0    0  0.13798499469E+03  0.40143337969E+02  0.10863273946E+03  0.19645523924E+03  0.78372460706E+02 0.  0.
         23    2    1    2    0    0 -0.18591877917E+03  0.12593530034E+02  0.74663879794E+03  0.77475393108E+03  0.89720508752E+02 0.  0.
         13    1    3    3    0    0  0.82961001860E+02  0.17730976831E+02  0.10761580499E+03  0.13703312320E+03  0.00000000000E+00 0. -1.
        -14    1    3    3    0    0  0.55023992835E+02  0.22412361138E+02  0.10169344714E+01  0.59422116042E+02  0.00000000000E+00 0.  1.
        -13    1    4    4    0    0 -0.57399365341E+02 -0.15526615793E+02  0.11394801104E+03  0.12852981039E+03  0.00000000000E+00 0.  1.
         13    1    4    4    0    0 -0.12851941383E+03  0.28120145827E+02  0.63269078690E+03  0.64622412069E+03  0.00000000000E+00 0. -1.
         21    1    1    2  502  501  0.47933784473E+02 -0.52736868003E+02  0.19787790534E+03  0.21031997138E+03  0.00000000000E+00 0.  1.
<scales pt_clust_5="13000.00000" pt_clust_6="13000.00000" pt_clust_7="13000.00000" pt_clust_8="13000.00000" pt_clust_9="71.26588"></scales>
<clustering>
<clus scale="   71.266">  1  9  2 -1</clus>
<clus scale="   78.372">  5  6 -1 -1</clus>
<clus scale="   89.721">  7  8 -1 -1</clus>
<clus scale="  168.635">  2  5  1 -1</clus>
<clus scale="   71.266">  1  5  2 -1</clus>
</clustering>
</event>
<event>
 9    1  0.2674825E-005  0.1142258E+03  0.7546771E-02  0.1259440E+00
         -2   -1    0    0    0  501 -0.00000000000E+00  0.00000000000E+00  0.37330322924E+02  0.37330322924E+02  0.00000000000E+00 0.  1.
          1   -1    0    0  502    0  0.00000000000E+00 -0.00000000000E+00 -0.44751543728E+03  0.44751543728E+03  0.00000000000E+00 0. -1.
         23    2    1    2    0    0  0.79477088721E+02 -0.19694787358E+02 -0.17492742816E+03  0.21520176934E+03  0.94908925416E+02 0.  0.
        -24    2    1    2    0    0 -0.54071700474E+02 -0.64644809135E+01 -0.17852195248E+03  0.20220005452E+03  0.77776836061E+02 0.  0.
         11    1    4    4    0    0 -0.10008452186E+02  0.26649854902E+02 -0.11322767981E+03  0.11675140837E+03  0.00000000000E+00 0. -1.
        -12    1    4    4    0    0 -0.44063248288E+02 -0.33114335816E+02 -0.65294272666E+02  0.85448646152E+02  0.00000000000E+00 0.  1.
        -11    1    3    3    0    0  0.51282351850E+02 -0.34702985697E+02 -0.33880864973E+02  0.70583920541E+02  0.00000000000E+00 0.  1.
         11    1    3    3    0    0  0.28194736871E+02  0.15008198339E+02 -0.14104656318E+03  0.14461784880E+03  0.00000000000E+00 0. -1.
         21    1    1    2  502  501 -0.25405388247E+02  0.26159268272E+02 -0.56735733727E+02  0.67443936347E+02  0.00000000000E+00 0.  1.
<scales pt_clust_5="13000.00000" pt_clust_6="13000.00000" pt_clust_7="13000.00000" pt_clust_8="13000.00000" pt_clust_9="36.46561"></scales>
<clustering>
<clus scale="   36.466">  1  9  2 -1</clus>
<clus scale="   77.777">  5  6 -1 -1</clus>
<clus scale="   94.909">  7  8 -1 -1</clus>
<clus scale="  100.444">  2  5  1 -1</clus>
<clus scale="  100.444">  2  5  1 -1</clus>
</clustering>
</event>
<event>
 9    1  0.6246687E-005  0.9463374E+02  0.7546771E-02  0.1297172E+00
         -2   -1    0    0    0  501 -0.00000000000E+00  0.00000000000E+00  0.14136980615E+03  0.14136980615E+03  0.00000000000E+00 0.  1.
          1   -1    0    0  502    0  0.00000000000E+00 -0.00000000000E+00 -0.36537885883E+03  0.36537885883E+03  0.00000000000E+00 0. -1.
         23    2    1    2    0    0 -0.80669381484E+01 -0.28604731868E+02  0.11127247813E+03  0.14613975895E+03  0.89955314354E+02 0.  0.
        -24    2    1    2    0    0 -0.15625544543E+02  0.27968056930E+02 -0.32182949366E+03  0.33335644937E+03  0.80783225318E+02 0.  0.
         11    1    4    4    0    0 -0.30022865026E+01  0.55188707656E+02 -0.23754881302E+03  0.24389392314E+03  0.00000000000E+00 0. -1.
        -12    1    4    4    0    0 -0.12623258040E+02 -0.27220650726E+02 -0.84280680641E+02  0.89462526226E+02  0.00000000000E+00 0.  1.
        -11    1    3    3    0    0 -0.22742408485E+02 -0.57510846492E+02  0.79780582205E+02  0.10094382549E+03  0.00000000000E+00 0.  1.
         11    1    3    3    0    0  0.14675470337E+02  0.28906114624E+02  0.31491895924E+02  0.45195933458E+02  0.00000000000E+00 0. -1.
         21    1    1    2  502  501  0.23692482691E+02  0.63667493846E+00 -0.13452037149E+02  0.27252456669E+02  0.00000000000E+00 0. -1.
<scales pt_clust_5="13000.00000" pt_clust_6="13000.00000" pt_clust_7="13000.00000" pt_clust_8="13000.00000" pt_clust_9="23.70104"></scales>
<clustering>
<clus scale="   23.701">  2  9  1 -1</clus>
<clus scale="   80.783">  5  6 -1 -1</clus>
<clus scale="   85.962">  2  5  1 -1</clus>
<clus scale="   89.955">  7  8 -1 -1</clus>
<clus scale="   23.701">  2  5  1 -1</clus>
</clustering>
</event>
<event>
 9    1  0.2674825E-005  0.1338106E+03  0.7546771E-02  0.1224988E+00
          1   -1    0    0  502    0  0.00000000000E+00  0.00000000000E+00  0.25448540281E+03  0.25448540281E+03  0.00000000000E+00 0. -1.
         -2   -1    0    0    0  501 -0.00000000000E+00 -0.00000000000E+00 -0.25702683098E+03  0.25702683098E+03  0.00000000000E+00 0.  1.
        -24    2    1    2    0    0  0.42299078702E+02  0.90731108585E+02 -0.21286555953E+03  0.24812106278E+03  0.78936488606E+02 0.  0.
         23    2    1    2    0    0 -0.67906444344E+01 -0.76799965472E+02  0.14863108225E+03  0.19085870957E+03  0.91605135560E+02 0.  0.
         13    1    3    3    0    0  0.45954794741E+02  0.18058481757E+02 -0.52783709676E+02  0.72277741596E+02  0.00000000000E+00 0. -1.
        -14    1    3    3    0    0 -0.36557160391E+01  0.72672626828E+02 -0.16008184986E+03  0.17584332118E+03  0.00000000000E+00 0.  1.
        -11    1    4    4    0    0 -0.23127047205E+02  0.76092288939E+01  0.72759318106E+01  0.25410624953E+02  0.00000000000E+00 0.  1.
         11    1    4    4    0    0  0.16336402771E+02 -0.84409194366E+02  0.14135515044E+03  0.16544808462E+03  0.00000000000E+00 0. -1.
         21    1    1    2  502  501 -0.35508434267E+02 -0.13931143113E+02  0.61693049123E+02  0.72532461441E+02  0.00000000000E+00 0. -1.
<scales pt_clust_5="13000.00000" pt_clust_6="13000.00000" pt_clust_7="13000.00000" pt_clust_8="13000.00000" pt_clust_9="38.14349"></scales>
<clustering>
<clus scale="   38.143">  1  9  2 -1</clus>
<clus scale="   78.936">  5  6 -1 -1</clus>
<clus scale="   91.605">  7  8 -1 -1</clus>
<clus scale="  125.478">  2  5  1 -1</clus>
<clus scale="   38.143">  1  5  2 -1</clus>
</clustering>
</event>
<event>
 9    1  0.2674825E-005  0.1274112E+03  0.7546771E-02  0.1237233E+00
          1   -1    0    0  502    0  0.00000000000E+00  0.00000000000E+00  0.99784679452E+02  0.99784679452E+02  0.00000000000E+00 0. -1.
         -2   -1    0    0    0  501 -0.00000000000E+00 -0.00000000000E+00 -0.51920948184E+03  0.51920948184E+03  0.00000000000E+00 0.  1.
        -24    2    1    2    0    0  0.65065058015E+02  0.64432196348E+02 -0.39231994583E+03  0.40939112972E+03  0.72809254169E+02 0.  0.
         23    2    1    2    0    0 -0.36084244981E+02 -0.59764974087E+02 -0.85129333655E+02  0.14457603388E+03  0.93708597584E+02 0.  0.
         13    1    3    3    0    0  0.62463573944E+01  0.33127399498E+02 -0.47827965136E+02  0.58514577904E+02  0.00000000000E+00 0. -1.
        -14    1    3    3    0    0  0.58818700621E+02  0.31304796850E+02 -0.34449198069E+03  0.35087655181E+03  0.00000000000E+00 0.  1.
        -11    1    4    4    0    0 -0.49208994747E+02 -0.37980349609E+02 -0.71705002357E+01  0.62573542285E+02  0.00000000000E+00 0. -1.
         11    1    4    4    0    0  0.13124749766E+02 -0.21784624478E+02 -0.77958833419E+02  0.82002491597E+02  0.00000000000E+00 0.  1.
         21    1    1    2  502  501 -0.28980813035E+02 -0.46672222607E+01  0.58024477093E+02  0.65026997698E+02  0.00000000000E+00 0. -1.
<scales pt_clust_5="13000.00000" pt_clust_6="13000.00000" pt_clust_7="13000.00000" pt_clust_8="13000.00000" pt_clust_9="29.35422"></scales>
<clustering>
<clus scale="   29.354">  1  9  2 -1</clus>
<clus scale="   72.809">  5  6 -1 -1</clus>
<clus scale="   93.709">  7  8 -1 -1</clus>
<clus scale="  112.931">  2  5  1 -1</clus>
<clus scale="   29.354">  1  5  2 -1</clus>
</clustering>
</event>
<event>
 9    1  0.2674825E-005  0.9239679E+02  0.7546771E-02  0.1304650E+00
          1   -1    0    0  502    0  0.00000000000E+00  0.00000000000E+00  0.17016221908E+03  0.17016221908E+03  0.00000000000E+00 0. -1.
         -2   -1    0    0    0  501 -0.00000000000E+00 -0.00000000000E+00 -0.19923724552E+03  0.19923724552E+03  0.00000000000E+00 0.  1.
        -24    2    1    2    0    0 -0.13028977018E+02 -0.10582825345E+02 -0.14479781784E+03  0.16619634784E+03  0.79831494712E+02 0.  0.
         23    2    1    2    0    0 -0.16686367122E+02 -0.20680103784E+02  0.19237781452E+02  0.97516175469E+02  0.91832514409E+02 0.  0.
         11    1    3    3    0    0  0.32469689260E+02 -0.12535548133E+02 -0.48758597625E+02  0.59906773657E+02  0.00000000000E+00 0. -1.
        -12    1    3    3    0    0 -0.45498666278E+02  0.19527227880E+01 -0.96039220216E+02  0.10628957418E+03  0.00000000000E+00 0.  1.
        -13    1    4    4    0    0 -0.44056511459E+02  0.17249808828E+02  0.18311470035E+02  0.50733046837E+02  0.00000000000E+00 0.  1.
         13    1    4    4    0    0  0.27370144337E+02 -0.37929912612E+02  0.92631141673E+00  0.46783128632E+02  0.00000000000E+00 0. -1.
         21    1    1    2  502  501  0.29715344140E+02  0.31262929129E+02  0.96485009952E+02  0.10568694130E+03  0.00000000000E+00 0.  1.
<scales pt_clust_5="13000.00000" pt_clust_6="13000.00000" pt_clust_7="13000.00000" pt_clust_8="13000.00000" pt_clust_9="43.13203"></scales>
<clustering>
<clus scale="   43.132">  1  9  2 -1</clus>
<clus scale="   79.831">  5  6 -1 -1</clus>
<clus scale="   80.480">  2  5  1 -1</clus>
<clus scale="   91.833">  7  8 -1 -1</clus>
<clus scale="   43.132">  1  5  2 -1</clus>
</clustering>
</event>
<event>
 9    1  0.2674825E-005  0.9683498E+02  0.7546771E-02  0.1294448E+00
         -2   -1    0    0    0  501 -0.00000000000E+00  0.00000000000E+00  0.24209799574E+02  0.24209799574E+02  0.00000000000E+00 0.  1.
          1   -1    0    0  502    0  0.00000000000E+00 -0.00000000000E+00 -0.70295513212E+03  0.70295513212E+03  0.00000000000E+00 0. -1.
         23    2    1    2    0    0 -0.52365121496E+02  0.23511507496E+01 -0.20482489898E+03  0.23016140151E+03  0.90958219232E+02 0.  0.
        -24    2    1    2    0    0 -0.21870442962E+01 -0.36059138301E+02 -0.27254745145E+03  0.28566672519E+03  0.77577831695E+02 0.  0.
         11    1    4    4    0    0 -0.86017901395E+00 -0.60341767066E+02 -0.21187957541E+03  0.22030620336E+03  0.00000000000E+00 0. -1.
        -12    1    4    4    0    0 -0.13268652822E+01  0.24282628765E+02 -0.60667876035E+02  0.65360521830E+02  0.00000000000E+00 0.  1.
        -13    1    3    3    0    0 -0.69196994216E+02 -0.16910587790E+02 -0.10340813396E+03  0.12556844411E+03  0.00000000000E+00 0.  1.
         13    1    3    3    0    0  0.16831872720E+02  0.19261738539E+02 -0.10141676502E+03  0.10459295740E+03  0.00000000000E+00 0. -1.
         21    1    1    2  502  501  0.54552165792E+02  0.33707987551E+02 -0.20137298212E+03  0.21133680500E+03  0.00000000000E+00 0. -1.
<scales pt_clust_5="13000.00000" pt_clust_6="13000.00000" pt_clust_7="13000.00000" pt_clust_8="13000.00000" pt_clust_9="64.12618"></scales>
<clustering>
<clus scale="   64.126">  2  9  1 -1</clus>
<clus scale="   77.578">  5  6 -1 -1</clus>
<clus scale="   84.392">  2  5  1 -1</clus>
<clus scale="   90.958">  7  8 -1 -1</clus>
<clus scale="   64.126">  2  5  1 -1</clus>
</clustering>
</event>
<event>
 9    1  0.2674825E-005  0.9053602E+02  0.7546771E-02  0.1307464E+00
         -2   -1    0    0    0  501 -0.00000000000E+00  0.00000000000E+00  0.13218824899E+03  0.13218824899E+03  0.00000000000E+00 0.  1.
          1   -1    0    0  502    0  0.00000000000E+00 -0.00000000000E+00 -0.29791600178E+03  0.29791600178E+03  0.00000000000E+00 0. -1.
         23    2    1    2    0    0 -0.32631455544E+01  0.58764061532E+01  0.93039399068E+02  0.12972771856E+03  0.90154150857E+02 0.  0.
        -24    2    1    2    0    0 -0.37808547492E+02 -0.36552613370E+02 -0.20230836189E+03  0.22411705002E+03  0.80834392514E+02 0.  0.
         13    1    4    4    0    0 -0.30656786257E+02  0.11758857012E+02 -0.14569602436E+03  0.14935006119E+03  0.00000000000E+00 0. -1.
        -14    1    4    4    0    0 -0.71517612360E+01 -0.48311470382E+02 -0.56612337528E+02  0.74766988836E+02  0.00000000000E+00 0.  1.
        -11    1    3    3    0    0 -0.55919594170E+01 -0.40276559736E+02  0.25861737324E+02  0.48190255568E+02  0.00000000000E+00 0. -1.
         11    1    3    3    0    0  0.23288138626E+01  0.46152965890E+02  0.67177661744E+02  0.81537462996E+02  0.00000000000E+00 0.  1.
         21    1    1    2  502  501  0.41071693047E+02  0.30676207216E+02 -0.56458789962E+02  0.76259482184E+02  0.00000000000E+00 0.  1.
<scales pt_clust_5="13000.00000" pt_clust_6="13000.00000" pt_clust_7="13000.00000" pt_clust_8="13000.00000" pt_clust_9="51.26318"></scales>
<clustering>
<clus scale="   51.263">  2  9  1 -1</clus>
<clus scale="   80.834">  5  6 -1 -1</clus>
<clus scale="   81.260">  2  5  1 -1</clus>
<clus scale="   90.154">  7  8 -1 -1</clus>
<clus scale="   51.263">  2  5  1 -1</clus>
</clustering>
</event>
<event>
 9    1  0.2674825E-005  0.1796477E+03  0.7546771E-02  0.1202891E+00
         -2   -1    0    0    0  501 -0.00000000000E+00  0.00000000000E+00  0.34196570512E+03  0.34196570512E+03  0.00000000000E+00 0.  1.
          1   -1    0    0  502    0  0.00000000000E+00 -0.00000000000E+00 -0.29476877276E+03  0.29476877276E+03  0.00000000000E+00 0. -1.
        -24    2    1    2    0    0  0.55524992885E+01 -0.16181326159E+02  0.23506056121E+03  0.24923818959E+03  0.81077383688E+02 0.  0.
         23    2    1    2    0    0  0.10180885660E+03 -0.10611507156E+03 -0.12073070519E+03  0.21145737478E+03  0.92265196461E+02 0.  0.
         13    1    3    3    0    0  0.66549922918E+01  0.21150208560E+02  0.16834244049E+02  0.27839037649E+02  0.00000000000E+00 0. -1.
        -14    1    3    3    0    0 -0.11024930033E+01 -0.37331534719E+02  0.21822631717E+03  0.22139915194E+03  0.00000000000E+00 0.  1.
        -13    1    4    4    0    0  0.32271928715E+02  0.13513818739E+02 -0.19947434862E+02  0.40274071528E+02  0.00000000000E+00 0. -1.
         13    1    4    4    0    0  0.69536927886E+02 -0.11962889030E+03 -0.10078327032E+03  0.17118330325E+03  0.00000000000E+00 0.  1.
         21    1    1    2  502  501 -0.10736135589E+03  0.12229639772E+03 -0.67132923661E+02  0.17603891352E+03  0.00000000000E+00 0.  1.
<scales pt_clust_5="13000.00000" pt_clust_6="13000.00000" pt_clust_7="13000.00000" pt_clust_8="13000.00000" pt_clust_9="154.14420"></scales>
<clustering>
<clus scale="   81.077">  5  6 -1 -1</clus>
<clus scale="   82.863">  1  5  2 -1</clus>
<clus scale="   92.265">  7  8 -1 -1</clus>
<clus scale="  154.144">  1  9  2 -1</clus>
<clus scale="  179.648">  2  5  1 -1</clus>
</clustering>
</event>
<event>
 9    1  0.2674825E-005  0.1531019E+03  0.7546771E-02  0.1200886E+00
         -2   -1    0    0    0  501 -0.00000000000E+00  0.00000000000E+00  0.33569368674E+03  0.33569368674E+03  0.00000000000E+00 0.  1.
          1   -1    0    0  502    0  0.00000000000E+00 -0.00000000000E+00 -0.15815175527E+03  0.15815175527E+03  0.00000000000E+00 0. -1.
         23    2    1    2    0    0  0.26263287719E+02  0.11982834397E+03  0.25812957527E+03  0.30323891407E+03  0.10136256251E+03 0.  0.
        -24    2    1    2    0    0 -0.17171493840E+02 -0.88115629474E+02 -0.20279006913E+02  0.12186433813E+03  0.79877746759E+02 0.  0.
         11    1    4    4    0    0 -0.21218270716E+02  0.66681249763E+01 -0.15040931133E+02  0.26849739518E+02  0.00000000000E+00 0. -1.
        -12    1    4    4    0    0  0.40467768757E+01 -0.94783754451E+02 -0.52380757805E+01  0.95014598608E+02  0.00000000000E+00 0.  1.
        -13    1    3    3    0    0  0.28537310876E+02  0.89452420932E+01  0.13172480919E+03  0.13507709216E+03  0.00000000000E+00 0.  1.
         13    1    3    3    0    0 -0.22740231567E+01  0.11088310188E+03  0.12640476608E+03  0.16816182192E+03  0.00000000000E+00 0. -1.
         21    1    1    2  502  501 -0.90917938794E+01 -0.31712714498E+02 -0.60308636887E+02  0.68742189811E+02  0.00000000000E+00 0. -1.
<scales pt_clust_5="13000.00000" pt_clust_6="13000.00000" pt_clust_7="13000.00000" pt_clust_8="13000.00000" pt_clust_9="32.99026"></scales>
<clustering>
<clus scale="   32.990">  2  9  1 -1</clus>
<clus scale="   79.878">  5  6 -1 -1</clus>
<clus scale="  101.363">  7  8 -1 -1</clus>
<clus scale="  139.808">  2  5  1 -1</clus>
<clus scale="   32.990">  2  5  1 -1</clus>
</clustering>
</event>
<event>
 9    1  0.2674825E-005  0.1060847E+03  0.7546771E-02  0.1282502E+00
          1   -1    0    0  502    0  0.00000000000E+00  0.00000000000E+00  0.43769174914E+03  0.43769174914E+03  0.00000000000E+00 0. -1.
         -2   -1    0    0    0  501 -0.00000000000E+00 -0.00000000000E+00 -0.38100486178E+02  0.38100486178E+02  0.00000000000E+00 0.  1.
        -24    2    1    2    0    0  0.16360584443E+02 -0.21646787679E+02  0.28775957451E+02  0.71441827667E+02  0.59494763408E+02 0.  0.
         23    2    1    2    0    0 -0.25269116072E+02  0.61566690818E+02  0.31843549681E+03  0.33789286510E+03  0.91331467806E+02 0.  0.
         11    1    3    3    0    0  0.38409998082E+02 -0.16360466935E+02  0.12669425139E+02  0.43629200822E+02  0.00000000000E+00 0. -1.
        -12    1    3    3    0    0 -0.22049413640E+02 -0.52863207441E+01  0.16106532313E+02  0.27812626845E+02  0.00000000000E+00 0.  1.
        -11    1    4    4    0    0 -0.55004610465E+02  0.51493581378E+02  0.26881093169E+03  0.27917093883E+03  0.00000000000E+00 0.  1.
         11    1    4    4    0    0  0.29735494393E+02  0.10073109441E+02  0.49624565119E+02  0.58721926262E+02  0.00000000000E+00 0. -1.
         21    1    1    2  502  501  0.89085316291E+01 -0.39919903139E+02  0.52379808700E+02  0.66457542551E+02  0.00000000000E+00 0. -1.
<scales pt_clust_5="13000.00000" pt_clust_6="13000.00000" pt_clust_7="13000.00000" pt_clust_8="13000.00000" pt_clust_9="40.90184"></scales>
<clustering>
<clus scale="   40.902">  2  9  1 -1</clus>
<clus scale="   59.495">  5  6 -1 -1</clus>
<clus scale="   80.325">  2  5  1 -1</clus>
<clus scale="   91.331">  7  8 -1 -1</clus>
<clus scale="  106.085">  1  5  2 -1</clus>
</clustering>
</event>
<event>
 9    1  0.2674825E-005  0.1911926E+03  0.7546771E-02  0.1158597E+00
         -2   -1    0    0    0  501 -0.00000000000E+00  0.00000000000E+00  0.14140669318E+04  0.14140669318E+04  0.00000000000E+00 0.  1.
          1   -1    0    0  502    0  0.00000000000E+00 -0.00000000000E+00 -0.11507721397E+03  0.11507721397E+03  0.00000000000E+00 0. -1.
         23    2    1    2    0    0 -0.11670762816E+03 -0.12541582661E+03  0.88874029343E+03  0.90975423761E+03  0.91889409905E+02 0.  0.
        -24    2    1    2    0    0  0.13856241096E+03  0.89654310513E+02  0.49331949369E+03  0.52634607990E+03  0.80241110686E+02 0.  0.
         11    1    4    4    0    0  0.12518720556E+03  0.56634695902E+02  0.30269052959E+03  0.33241672930E+03  0.00000000000E+00 0. -1.
        -12    1    4    4    0    0  0.13375205399E+02  0.33019614611E+02  0.19062896410E+03  0.19392935060E+03  0.00000000000E+00 0.  1.
        -13    1    3    3    0    0 -0.42531843123E+02 -0.11057967489E+03  0.56608050216E+03  0.57834588017E+03  0.00000000000E+00 0.  1.
         13    1    3    3    0    0 -0.74175785037E+02 -0.14836151723E+02  0.32265979126E+03  0.33140835744E+03  0.00000000000E+00 0. -1.
         21    1    1    2  502  501 -0.21854782801E+02  0.35761516098E+02 -0.83070069288E+02  0.93043828255E+02  0.00000000000E+00 0. -1.
<scales pt_clust_5="13000.00000" pt_clust_6="13000.00000" pt_clust_7="13000.00000" pt_clust_8="13000.00000" pt_clust_9="41.91083"></scales>
<clustering>
<clus scale="   41.911">  2  9  1 -1</clus>
<clus scale="   80.241">  5  6 -1 -1</clus>
<clus scale="   91.889">  7  8 -1 -1</clus>
<clus scale="  185.875">  2  5  1 -1</clus>
<clus scale="   41.911">  2  5  1 -1</clus>
</clustering>
</event>
<event>
 9    1  0.2674825E-005  0.2498229E+03  0.7546771E-02  0.1158412E+00
         -2   -1    0    0    0  501 -0.00000000000E+00  0.00000000000E+00  0.51074323504E+03  0.51074323504E+03  0.00000000000E+00 0.  1.
          1   -1    0    0  502    0  0.00000000000E+00 -0.00000000000E+00 -0.79716174473E+03  0.79716174473E+03  0.00000000000E+00 0. -1.
         23    2    1    2    0    0  0.11874310441E+03 -0.19907055936E+03  0.44187558180E+03  0.50741642922E+03  0.92132461201E+02 0.  0.
        -24    2    1    2    0    0  0.14472692267E+02  0.11446571510E+01 -0.28549068026E+03  0.29750150077E+03  0.82410226219E+02 0.  0.
         11    1    4    4    0    0  0.24117213072E+02 -0.31614528160E+02 -0.22078660482E+03  0.22433867973E+03  0.00000000000E+00 0. -1.
        -12    1    4    4    0    0 -0.96445208053E+01  0.32759185311E+02 -0.64704075440E+02  0.73162821038E+02  0.00000000000E+00 0.  1.
        -13    1    3    3    0    0  0.77391611249E+02 -0.13256086845E+03  0.19352285426E+03  0.24700797650E+03  0.00000000000E+00 0. -1.
         13    1    3    3    0    0  0.41351493159E+02 -0.66509690909E+02  0.24835272754E+03  0.26040845272E+03  0.00000000000E+00 0.  1.
         21    1    1    2  502  501 -0.13321579667E+03  0.19792590220E+03 -0.44280341123E+03  0.50298704977E+03  0.00000000000E+00 0. -1.
<scales pt_clust_5="13000.00000" pt_clust_6="13000.00000" pt_clust_7="13000.00000" pt_clust_8="13000.00000" pt_clust_9="232.21349"></scales>
<clustering>
<clus scale="   82.410">  5  6 -1 -1</clus>
<clus scale="   83.679">  2  5  1 -1</clus>
<clus scale="   92.132">  7  8 -1 -1</clus>
<clus scale="  232.213">  2  9  1 -1</clus>
<clus scale="   83.679">  2  5  1 -1</clus>
</clustering>
</event>
<event>
 9    1  0.2674825E-005  0.1341060E+03  0.7546771E-02  0.1240923E+00
          3   -1    0    0  502    0  0.00000000000E+00  0.00000000000E+00  0.16933894819E+03  0.16933894819E+03  0.00000000000E+00 0. -1.
         -4   -1    0    0    0  501 -0.00000000000E+00 -0.00000000000E+00 -0.21125290985E+03  0.21125290985E+03  0.00000000000E+00 0.  1.
        -24    2    1    2    0    0 -0.10436222127E+03  0.11920229565E+02 -0.62407607788E+02  0.14711031447E+03  0.81933936880E+02 0.  0.
         23    2    1    2    0    0 -0.24603707585E+01 -0.41575888939E+01  0.71527537967E+02  0.11484013901E+03  0.89714713791E+02 0.  0.
         13    1    3    3    0    0 -0.40305071840E+02  0.17588501207E+02  0.15010924522E+02  0.46466999534E+02  0.00000000000E+00 0. -1.
        -14    1    3    3    0    0 -0.64057149434E+02 -0.56682716418E+01 -0.77418532310E+02  0.10064331494E+03  0.00000000000E+00 0.  1.
        -11    1    4    4    0    0  0.33274468898E+02  0.96319972871E+01  0.68074942319E+02  0.76381695607E+02  0.00000000000E+00 0. -1.
         11    1    4    4    0    0 -0.35734839656E+02 -0.13789586181E+02  0.34525956481E+01  0.38458443403E+02  0.00000000000E+00 0.  1.
         21    1    1    2  502  501  0.10682259203E+03 -0.77626406713E+01 -0.51033891841E+02  0.11864140456E+03  0.00000000000E+00 0. -1.
<scales pt_clust_5="13000.00000" pt_clust_6="13000.00000" pt_clust_7="13000.00000" pt_clust_8="13000.00000" pt_clust_9="106.16615"></scales>
<clustering>
<clus scale="   81.934">  5  6 -1 -1</clus>
<clus scale="   89.715">  7  8 -1 -1</clus>
<clus scale="   89.845">  1  7  2 -1</clus>
<clus scale="  106.166">  1  9  2 -1</clus>
<clus scale="   89.845">  1  5  2 -1</clus>
</clustering>
</event>
<event>
 9    1  0.2674825E-005  0.1109298E+03  0.7546771E-02  0.1264005E+00
          1   -1    0    0  502    0  0.00000000000E+00  0.00000000000E+00  0.34674262209E+03  0.34674262209E+03  0.00000000000E+00 0. -1.
         -2   -1    0    0    0  501 -0.00000000000E+00 -0.00000000000E+00 -0.48151891901E+02  0.48151891901E+02  0.00000000000E+00 0.  1.
        -24    2    1    2    0    0  0.67013163011E+02  0.86331574216E+01  0.54194435302E+02  0.11735928073E+03  0.79188815697E+02 0.  0.
         23    2    1    2    0    0 -0.45309370078E+02 -0.20408289309E+02  0.17646360578E+03  0.20525412502E+03  0.92306090732E+02 0.  0.
         13    1    3    3    0    0  0.56470332900E+02 -0.29973432562E+02  0.36322319810E+02  0.73529695183E+02  0.00000000000E+00 0. -1.
        -14    1    3    3    0    0  0.10542830111E+02  0.38606589983E+02  0.17872115492E+02  0.43829585545E+02  0.00000000000E+00 0.  1.
        -11    1    4    4    0    0  0.16761779014E+02  0.13783000421E+02  0.94240848190E+02  0.96707113512E+02  0.00000000000E+00 0. -1.
         11    1    4    4    0    0 -0.62071149092E+02 -0.34191289729E+02  0.82222757588E+02  0.10854701151E+03  0.00000000000E+00 0.  1.
         21    1    1    2  502  501 -0.21703792933E+02  0.11775131887E+02  0.67932689113E+02  0.72281108243E+02  0.00000000000E+00 0.  1.
<scales pt_clust_5="13000.00000" pt_clust_6="13000.00000" pt_clust_7="13000.00000" pt_clust_8="13000.00000" pt_clust_9="24.69227"></scales>
<clustering>
<clus scale="   24.692">  1  9  2 -1</clus>
<clus scale="   79.189">  5  6 -1 -1</clus>
<clus scale="   92.306">  7  8 -1 -1</clus>
<clus scale="  100.279">  2  5  1 -1</clus>
<clus scale="   24.692">  1  5  2 -1</clus>
</clustering>
</event>
<event>
 9    1  0.2674825E-005  0.2337490E+03  0.7546771E-02  0.1124404E+00
          1   -1    0    0  502    0  0.00000000000E+00  0.00000000000E+00  0.55364709916E+03  0.55364709916E+03  0.00000000000E+00 0. -1.
         -2   -1    0    0    0  501 -0.00000000000E+00 -0.00000000000E+00 -0.21732299379E+03  0.21732299379E+03  0.00000000000E+00 0.  1.
        -24    2    1    2    0    0 -0.88947305141E+02  0.19878423154E+03 -0.90098253963E+02  0.25071742276E+03  0.85526235221E+02 0.  0.
         23    2    1    2    0    0  0.13745254224E+03 -0.15849237225E+03  0.37318719669E+03  0.43772888882E+03  0.91240686667E+02 0.  0.
         11    1    3    3    0    0  0.42987003221E+01  0.77010172922E+02 -0.10266352288E+02  0.77810304891E+02  0.00000000000E+00 0. -1.
        -12    1    3    3    0    0 -0.93246005463E+02  0.12177405861E+03 -0.79831901675E+02  0.17290711787E+03  0.00000000000E+00 0.  1.
        -11    1    4    4    0    0  0.14085216207E+03 -0.13439868474E+03  0.27740229391E+03  0.33890171243E+03  0.00000000000E+00 0. -1.
         11    1    4    4    0    0 -0.33996198335E+01 -0.24093687511E+02  0.95784902773E+02  0.98827176384E+02  0.00000000000E+00 0.  1.
         21    1    1    2  502  501 -0.48505237100E+02 -0.40291859284E+02  0.53235162648E+02  0.82523781378E+02  0.00000000000E+00 0.  1.
<scales pt_clust_5="13000.00000" pt_clust_6="13000.00000" pt_clust_7="13000.00000" pt_clust_8="13000.00000" pt_clust_9="63.05705"></scales>
<clustering>
<clus scale="   63.057">  1  9  2 -1</clus>
<clus scale="   85.526">  5  6 -1 -1</clus>
<clus scale="   91.241">  7  8 -1 -1</clus>
<clus scale="  231.578">  2  5  1 -1</clus>
<clus scale="   63.057">  1  5  2 -1</clus>
</clustering>
</event>
<event>
 9    1  0.2674825E-005  0.9099963E+02  0.7546771E-02  0.1306934E+00
          1   -1    0    0  502    0  0.00000000000E+00  0.00000000000E+00  0.27169033805E+03  0.27169033805E+03  0.00000000000E+00 0. -1.
         -2   -1    0    0    0  501 -0.00000000000E+00 -0.00000000000E+00 -0.63272235682E+02  0.63272235682E+02  0.00000000000E+00 0.  1.
         23    2    1    2    0    0 -0.13585174935E+02 -0.92155913572E+01 -0.46233659408E+01  0.91700968811E+02  0.90101099140E+02 0.  0.
        -24    2    1    2    0    0 -0.14652697340E+02  0.10873342445E+02  0.18964449224E+03  0.20655269513E+03  0.79787538566E+02 0.  0.
         13    1    4    4    0    0 -0.38711542634E+02  0.72486113936E+01  0.17211914330E+03  0.17656762271E+03  0.00000000000E+00 0. -1.
        -14    1    4    4    0    0  0.24058845294E+02  0.36247310512E+01  0.17525348944E+02  0.29985072414E+02  0.00000000000E+00 0.  1.
        -11    1    3    3    0    0 -0.18455556021E+02 -0.34815134022E+02 -0.34275502006E+02  0.52225579392E+02  0.00000000000E+00 0.  1.
         11    1    3    3    0    0  0.48703810856E+01  0.25599542665E+02  0.29652136066E+02  0.39475389420E+02  0.00000000000E+00 0. -1.
         21    1    1    2  502  501  0.28237872276E+02 -0.16577510876E+01  0.23396976066E+02  0.36708909796E+02  0.00000000000E+00 0.  1.
<scales pt_clust_5="13000.00000" pt_clust_6="13000.00000" pt_clust_7="13000.00000" pt_clust_8="13000.00000" pt_clust_9="28.28649"></scales>
<clustering>
<clus scale="   28.286">  1  9  2 -1</clus>
<clus scale="   79.788">  5  6 -1 -1</clus>
<clus scale="   80.801">  1  5  2 -1</clus>
<clus scale="   90.101">  7  8 -1 -1</clus>
<clus scale="   28.286">  1  5  2 -1</clus>
</clustering>
</event>
<event>
 9    1  0.2674825E-005  0.9790558E+02  0.7546771E-02  0.1291337E+00
          1   -1    0    0  502    0  0.00000000000E+00  0.00000000000E+00  0.43556486883E+03  0.43556486883E+03  0.00000000000E+00 0. -1.
         -2   -1    0    0    0  501 -0.00000000000E+00 -0.00000000000E+00 -0.88521187781E+02  0.88521187781E+02  0.00000000000E+00 0.  1.
        -24    2    1    2    0    0 -0.28078169191E+02 -0.49554258685E+01 -0.50066235546E+02  0.99465567757E+02  0.81079167464E+02 0.  0.
         23    2    1    2    0    0  0.47685250207E+02  0.35689214971E+02  0.33302764812E+03  0.35089437033E+03  0.93122723164E+02 0.  0.
         13    1    3    3    0    0 -0.39862597425E+02 -0.15691824540E+02  0.40681357949E+01  0.43032659222E+02  0.00000000000E+00 0. -1.
        -14    1    3    3    0    0  0.11784428234E+02  0.10736398671E+02 -0.54134371341E+02  0.56432908535E+02  0.00000000000E+00 0.  1.
        -13    1    4    4    0    0  0.37582266882E+02  0.54609792391E+02  0.31767213676E+03  0.32451539668E+03  0.00000000000E+00 0. -1.
         13    1    4    4    0    0  0.10102983325E+02 -0.18920577419E+02  0.15355511353E+02  0.26378973651E+02  0.00000000000E+00 0.  1.
         21    1    1    2  502  501 -0.19607081016E+02 -0.30733789103E+02  0.64082268476E+02  0.73726118517E+02  0.00000000000E+00 0. -1.
<scales pt_clust_5="13000.00000" pt_clust_6="13000.00000" pt_clust_7="13000.00000" pt_clust_8="13000.00000" pt_clust_9="36.45550"></scales>
<clustering>
<clus scale="   36.455">  1  9  2 -1</clus>
<clus scale="   81.079">  5  6 -1 -1</clus>
<clus scale="   86.530">  2  5  1 -1</clus>
<clus scale="   93.123">  7  8 -1 -1</clus>
<clus scale="   36.455">  1  5  2 -1</clus>
</clustering>
</event>
<event>
 9    1  0.2674825E-005  0.9796350E+02  0.7546771E-02  0.1297110E+00
          1   -1    0    0  502    0  0.00000000000E+00  0.00000000000E+00  0.24783508975E+03  0.24783508975E+03  0.00000000000E+00 0. -1.
         -2   -1    0    0    0  501 -0.00000000000E+00 -0.00000000000E+00 -0.98806972544E+02  0.98806972544E+02  0.00000000000E+00 0.  1.
         23    2    1    2    0    0  0.38880838053E+02  0.79405129768E+01 -0.56239342901E+02  0.11387005934E+03  0.90712487624E+02 0.  0.
        -24    2    1    2    0    0 -0.16365962092E+02 -0.30865109103E+02  0.12945743423E+03  0.15043357468E+03  0.68194819726E+02 0.  0.
         13    1    4    4    0    0 -0.87877563405E+01 -0.50973255332E+02  0.10951998936E+03  0.12112029347E+03  0.00000000000E+00 0. -1.
        -14    1    4    4    0    0 -0.75782057512E+01  0.20108146229E+02  0.19937444868E+02  0.29313281205E+02  0.00000000000E+00 0.  1.
        -13    1    3    3    0    0  0.64703074208E+02  0.93862299626E+01 -0.58733360197E+02  0.87887409365E+02  0.00000000000E+00 0.  1.
         13    1    3    3    0    0 -0.25822236155E+02 -0.14457169859E+01  0.24940172961E+01  0.25982649979E+02  0.00000000000E+00 0. -1.
         21    1    1    2  502  501 -0.22514875961E+02  0.22924596126E+02  0.75810025875E+02  0.82338428272E+02  0.00000000000E+00 0.  1.
<scales pt_clust_5="13000.00000" pt_clust_6="13000.00000" pt_clust_7="13000.00000" pt_clust_8="13000.00000" pt_clust_9="32.13186"></scales>
<clustering>
<clus scale="   32.132">  1  9  2 -1</clus>
<clus scale="   68.195">  5  6 -1 -1</clus>
<clus scale="   77.580">  1  5  2 -1</clus>
<clus scale="   90.712">  7  8 -1 -1</clus>
<clus scale="   32.132">  1  5  2 -1</clus>
</clustering>
</event>
<event>
 9    1  0.2674825E-005  0.1115531E+03  0.7546771E-02  0.1263335E+00
          1   -1    0    0  502    0  0.00000000000E+00  0.00000000000E+00  0.44532070142E+03  0.44532070142E+03  0.00000000000E+00 0. -1.
         -2   -1    0    0    0  501 -0.00000000000E+00 -0.00000000000E+00 -0.17093258146E+03  0.17093258146E+03  0.00000000000E+00 0.  1.
        -24    2    1    2    0    0  0.60042726604E+02  0.10211949549E+02 -0.14039101186E+03  0.17244176679E+03  0.79480272981E+02 0.  0.
         23    2    1    2    0    0 -0.45911721712E+02 -0.48176649065E+02  0.26931992327E+03  0.29281686367E+03  0.93699620458E+02 0.  0.
         13    1    3    3    0    0  0.74235603574E+02  0.20326306438E+02 -0.86416833044E+02  0.11572360435E+03  0.00000000000E+00 0. -1.
        -14    1    3    3    0    0 -0.14192876970E+02 -0.10114356889E+02 -0.53974178813E+02  0.56718162439E+02  0.00000000000E+00 0.  1.
        -11    1    4    4    0    0 -0.44679183719E+01  0.24951053932E+02  0.30623608386E+02  0.39753273796E+02  0.00000000000E+00 0.  1.
         11    1    4    4    0    0 -0.41443803340E+02 -0.73127702998E+02  0.23869631489E+03  0.25306358988E+03  0.00000000000E+00 0. -1.
         21    1    1    2  502  501 -0.14131004893E+02  0.37964699516E+02  0.14545920854E+03  0.15099465241E+03  0.00000000000E+00 0. -1.
<scales pt_clust_5="13000.00000" pt_clust_6="13000.00000" pt_clust_7="13000.00000" pt_clust_8="13000.00000" pt_clust_9="40.50930"></scales>
<clustering>
<clus scale="   40.509">  1  9  2 -1</clus>
<clus scale="   79.480">  5  6 -1 -1</clus>
<clus scale="   93.700">  7  8 -1 -1</clus>
<clus scale="   99.908">  2  5  1 -1</clus>
<clus scale="   40.509">  1  5  2 -1</clus>
</clustering>
</event>
<event>
 9    1  0.2674825E-005  0.1494061E+03  0.7546771E-02  0.1215977E+00
          1   -1    0    0  502    0  0.00000000000E+00  0.00000000000E+00  0.26390904023E+03  0.26390904023E+03  0.00000000000E+00 0. -1.
         -2   -1    0    0    0  501 -0.00000000000E+00 -0.00000000000E+00 -0.24353965769E+03  0.24353965769E+03  0.00000000000E+00 0.  1.
         23    2    1    2    0    0  0.70895757712E+01  0.59797591838E+02 -0.13328117285E+03  0.17211599592E+03  0.90741561255E+02 0.  0.
        -24    2    1    2    0    0 -0.10331947292E+03 -0.12065537792E+03  0.60043300139E+02  0.18793466447E+03  0.80508425098E+02 0.  0.
         13    1    4    4    0    0 -0.19469869652E+02 -0.81133693919E+02  0.42329769245E+02  0.93560469631E+02  0.00000000000E+00 0. -1.
        -14    1    4    4    0    0 -0.83849603270E+02 -0.39521684003E+02  0.17713530894E+02  0.94374194840E+02  0.00000000000E+00 0.  1.
        -13    1    3    3    0    0 -0.37128494794E+02  0.75825877133E+01 -0.66300278199E+02  0.76365880152E+02  0.00000000000E+00 0.  1.
         13    1    3    3    0    0  0.44218070565E+02  0.52215004125E+02 -0.66980894655E+02  0.95750115765E+02  0.00000000000E+00 0. -1.
         21    1    1    2  502  501  0.96229897151E+02  0.60857786084E+02  0.93607255251E+02  0.14739803753E+03  0.00000000000E+00 0. -1.
<scales pt_clust_5="13000.00000" pt_clust_6="13000.00000" pt_clust_7="13000.00000" pt_clust_8="13000.00000" pt_clust_9="125.85937"></scales>
<clustering>
<clus scale="   80.508">  5  6 -1 -1</clus>
<clus scale="   90.742">  7  8 -1 -1</clus>
<clus scale="  108.904">  2  7  1 -1</clus>
<clus scale="  125.859">  1  9  2 -1</clus>
<clus scale="  125.859">  1  5  2 -1</clus>
</clustering>
</event>
<event>
 9    1  0.2674825E-005  0.1005142E+03  0.7546771E-02  0.1282995E+00
         -2   -1    0    0    0  501 -0.00000000000E+00  0.00000000000E+00  0.82256243773E+02  0.82256243773E+02  0.00000000000E+00 0.  1.
          1   -1    0    0  502    0  0.00000000000E+00 -0.00000000000E+00 -0.28445132252E+03  0.28445132252E+03  0.00000000000E+00 0. -1.
        -24    2    1    2    0    0  0.42352829404E+02  0.26376885133E+02  0.14316274340E+02  0.97115672834E+02  0.82079205474E+02 0.  0.
         23    2    1    2    0    0  0.65908963981E+01 -0.45248396856E+02 -0.17768937964E+03  0.20433265754E+03  0.89930317290E+02 0.  0.
         13    1    3    3    0    0 -0.21491460013E+02  0.20628764003E+02 -0.49106396200E+01  0.30191772708E+02  0.00000000000E+00 0. -1.
        -14    1    3    3    0    0  0.63844289417E+02  0.57481211296E+01  0.19226913960E+02  0.66923900126E+02  0.00000000000E+00 0.  1.
        -13    1    4    4    0    0  0.36870171085E+02  0.40879370288E+01 -0.37907627377E+02  0.53038749593E+02  0.00000000000E+00 0.  1.
         13    1    4    4    0    0 -0.30279274687E+02 -0.49336333885E+02 -0.13978175226E+03  0.15129390795E+03  0.00000000000E+00 0. -1.
         21    1    1    2  502  501 -0.48943725802E+02  0.18871511723E+02 -0.38821973446E+02  0.65259235916E+02  0.00000000000E+00 0.  1.
<scales pt_clust_5="13000.00000" pt_clust_6="13000.00000" pt_clust_7="13000.00000" pt_clust_8="13000.00000" pt_clust_9="52.45591"></scales>
<clustering>
<clus scale="   52.456">  2  9  1 -1</clus>
<clus scale="   82.079">  5  6 -1 -1</clus>
<clus scale="   89.930">  7  8 -1 -1</clus>
<clus scale="   93.556">  1  5  2 -1</clus>
<clus scale="   52.456">  2  5  1 -1</clus>
</clustering>
</event>
<event>
 9    1  0.2674825E-005  0.2965117E+03  0.7546771E-02  0.1087449E+00
          1   -1    0    0  502    0  0.00000000000E+00  0.00000000000E+00  0.47586694244E+03  0.47586694244E+03  0.00000000000E+00 0. -1.
         -2   -1    0    0    0  501 -0.00000000000E+00 -0.00000000000E+00 -0.26624497806E+03  0.26624497806E+03  0.00000000000E+00 0.  1.
         23    2    1    2    0    0  0.78528424446E+02 -0.27718839995E+03 -0.81741562297E+02  0.31365033269E+03  0.93245512894E+02 0.  0.
        -24    2    1    2    0    0 -0.48381981238E+02  0.26050729531E+03  0.24007840124E+03  0.36667784091E+03  0.81302726012E+02 0.  0.
         11    1    4    4    0    0 -0.40341032727E+02  0.75695870163E+02  0.11462138027E+03  0.14316188214E+03  0.00000000000E+00 0. -1.
        -12    1    4    4    0    0 -0.80409485114E+01  0.18481142515E+03  0.12545702096E+03  0.22351595878E+03  0.00000000000E+00 0.  1.
        -13    1    3    3    0    0  0.12196787301E+02 -0.19391015058E+03 -0.35203713584E+02  0.19745685496E+03  0.00000000000E+00 0.  1.
         13    1    3    3    0    0  0.66331637145E+02 -0.83278249367E+02 -0.46537848713E+02  0.11619347773E+03  0.00000000000E+00 0. -1.
         21    1    1    2  502  501 -0.30146443208E+02  0.16681104636E+02  0.51285125441E+02  0.61783746904E+02  0.00000000000E+00 0. -1.
<scales pt_clust_5="13000.00000" pt_clust_6="13000.00000" pt_clust_7="13000.00000" pt_clust_8="13000.00000" pt_clust_9="34.45384"></scales>
<clustering>
<clus scale="   34.454">  1  9  2 -1</clus>
<clus scale="   81.303">  5  6 -1 -1</clus>
<clus scale="   93.246">  7  8 -1 -1</clus>
<clus scale="  292.975">  1  5  2 -1</clus>
<clus scale="   34.454">  1  5  2 -1</clus>
</clustering>
</event>
<event>
 9    1  0.2674825E-005  0.1015545E+03  0.7546771E-02  0.1282701E+00
         -2   -1    0    0    0  501 -0.00000000000E+00  0.00000000000E+00  0.24451454670E+02  0.24451454670E+02  0.00000000000E+00 0.  1.
          1   -1    0    0  502    0  0.00000000000E+00 -0.00000000000E+00 -0.50795184143E+03  0.50795184143E+03  0.00000000000E+00 0. -1.
         23    2    1    2    0    0 -0.32064665524E+02 -0.44688983511E+02 -0.21271274311E+03  0.23797630770E+03  0.91437213024E+02 0.  0.
        -24    2    1    2    0    0  0.67794913765E+01  0.38178305203E+02 -0.22241488205E+03  0.23945742383E+03  0.79799333190E+02 0.  0.
         11    1    4    4    0    0 -0.31017576811E+02  0.32354983063E+02 -0.16088031413E+03  0.16700721684E+03  0.00000000000E+00 0. -1.
        -12    1    4    4    0    0  0.37797068187E+02  0.58233221404E+01 -0.61534567920E+02  0.72450206994E+02  0.00000000000E+00 0.  1.
        -13    1    3    3    0    0  0.28202560007E+02 -0.32289593338E+02 -0.11237427342E+03  0.12027460063E+03  0.00000000000E+00 0.  1.
         13    1    3    3    0    0 -0.60267225531E+02 -0.12399390173E+02 -0.10033846969E+03  0.11770170708E+03  0.00000000000E+00 0. -1.
         21    1    1    2  502  501  0.25285174147E+02  0.65106783071E+01 -0.48372761597E+02  0.54969564562E+02  0.00000000000E+00 0.  1.
<scales pt_clust_5="13000.00000" pt_clust_6="13000.00000" pt_clust_7="13000.00000" pt_clust_8="13000.00000" pt_clust_9="26.10994"></scales>
<clustering>
<clus scale="   26.110">  1  9  2 -1</clus>
<clus scale="   79.799">  5  6 -1 -1</clus>
<clus scale="   91.217">  2  5  1 -1</clus>
<clus scale="   91.437">  7  8 -1 -1</clus>
<clus scale="   91.217">  2  5  1 -1</clus>
</clustering>
</event>
<event>
 9    1  0.2674825E-005  0.1096689E+03  0.7546771E-02  0.1265719E+00
          1   -1    0    0  502    0  0.00000000000E+00  0.00000000000E+00  0.37319781399E+03  0.37319781399E+03  0.00000000000E+00 0. -1.
         -2   -1    0    0    0  501 -0.00000000000E+00 -0.00000000000E+00 -0.13070417197E+03  0.13070417197E+03  0.00000000000E+00 0.  1.
        -24    2    1    2    0    0 -0.21247931789E+02 -0.41480677482E+02 -0.46347890513E+02  0.10432083415E+03  0.81009803557E+02 0.  0.
         23    2    1    2    0    0  0.73469486531E+01  0.10763688365E+03  0.48677830511E+02  0.15008468949E+03  0.92283294578E+02 0.  0.
         11    1    3    3    0    0  0.21947746042E+02 -0.33928581932E+01  0.94485702061E+01  0.24134840418E+02  0.00000000000E+00 0. -1.
        -12    1    3    3    0    0 -0.43195677831E+02 -0.38087819289E+02 -0.55796460719E+02  0.80185993729E+02  0.00000000000E+00 0.  1.
        -13    1    4    4    0    0  0.27683121769E+01  0.24293334849E+02 -0.27697933423E+02  0.36945976591E+02  0.00000000000E+00 0. -1.
         13    1    4    4    0    0  0.45786364762E+01  0.83343548803E+02  0.76375763934E+02  0.11313871289E+03  0.00000000000E+00 0.  1.
         21    1    1    2  502  501  0.13900983136E+02 -0.66156206169E+02  0.24016370202E+03  0.24949646233E+03  0.00000000000E+00 0. -1.
<scales pt_clust_5="13000.00000" pt_clust_6="13000.00000" pt_clust_7="13000.00000" pt_clust_8="13000.00000" pt_clust_9="67.60089"></scales>
<clustering>
<clus scale="   67.601">  1  9  2 -1</clus>
<clus scale="   81.010">  5  6 -1 -1</clus>
<clus scale="   92.283">  7  8 -1 -1</clus>
<clus scale="  100.368">  2  5  1 -1</clus>
<clus scale="   67.601">  1  5  2 -1</clus>
</clustering>
</event>
<event>
 9    1  0.2674825E-005  0.1109603E+03  0.7546771E-02  0.1263988E+00
          1   -1    0    0  502    0  0.00000000000E+00  0.00000000000E+00  0.32115450817E+03  0.32115450817E+03  0.00000000000E+00 0. -1.
         -2   -1    0    0    0  501 -0.00000000000E+00 -0.00000000000E+00 -0.56204494737E+02  0.56204494737E+02  0.00000000000E+00 0.  1.
        -24    2    1    2    0    0 -0.30978309416E+02 -0.40220810670E+02  0.72625065269E+02  0.11868847883E+03  0.78963191649E+02 0.  0.
         23    2    1    2    0    0  0.14769785804E+02  0.70463061076E+02  0.19143478593E+03  0.22434702869E+03  0.92201531806E+02 0.  0.
         13    1    3    3    0    0 -0.25751598385E+02  0.20357205839E+02  0.29616503517E+02  0.44211965909E+02  0.00000000000E+00 0. -1.
        -14    1    3    3    0    0 -0.52267110312E+01 -0.60578016509E+02  0.43008561752E+02  0.74476512917E+02  0.00000000000E+00 0.  1.
        -11    1    4    4    0    0 -0.13059573845E+02  0.69378293046E+02  0.18155235576E+03  0.19479516908E+03  0.00000000000E+00 0.  1.
         11    1    4    4    0    0  0.27829359649E+02  0.10847680302E+01  0.98824301724E+01  0.29551859608E+02  0.00000000000E+00 0. -1.
         21    1    1    2  502  501  0.16208523612E+02 -0.30242250406E+02  0.89016223395E+00  0.34323495395E+02  0.00000000000E+00 0.  1.
<scales pt_clust_5="13000.00000" pt_clust_6="13000.00000" pt_clust_7="13000.00000" pt_clust_8="13000.00000" pt_clust_9="34.31195"></scales>
<clustering>
<clus scale="   34.312">  2  9  1 -1</clus>
<clus scale="   78.963">  5  6 -1 -1</clus>
<clus scale="   92.202">  7  8 -1 -1</clus>
<clus scale="  100.231">  2  5  1 -1</clus>
<clus scale="  110.960">  1  5  2 -1</clus>
</clustering>
</event>
<event>
 9    1  0.2674825E-005  0.1375501E+03  0.7546771E-02  0.1225076E+00
         -2   -1    0    0    0  501 -0.00000000000E+00  0.00000000000E+00  0.11248112007E+04  0.11248112007E+04  0.00000000000E+00 0.  1.
          1   -1    0    0  502    0  0.00000000000E+00 -0.00000000000E+00 -0.90009855940E+02  0.90009855940E+02  0.00000000000E+00 0. -1.
        -24    2    1    2    0    0 -0.19084198038E+02 -0.10393055332E+03  0.81231740904E+03  0.82326290861E+03  0.82076044895E+02 0.  0.
         23    2    1    2    0    0  0.18019757127E+02 -0.67169037219E+02  0.18245070388E+03  0.21583432335E+03  0.91977195988E+02 0.  0.
         13    1    3    3    0    0 -0.38423342258E+02 -0.27352163627E+02  0.18182181650E+03  0.18783947146E+03  0.00000000000E+00 0. -1.
        -14    1    3    3    0    0  0.19339144219E+02 -0.76578389691E+02  0.63049559254E+03  0.63542343715E+03  0.00000000000E+00 0.  1.
        -11    1    4    4    0    0 -0.37107660192E+02 -0.19663326713E+02  0.56926522030E+02  0.70740750440E+02  0.00000000000E+00 0. -1.
         11    1    4    4    0    0  0.55127417318E+02 -0.47505710506E+02  0.12552418185E+03  0.14509357291E+03  0.00000000000E+00 0.  1.
         21    1    1    2  502  501  0.10644409116E+01  0.17109959054E+03  0.40033231875E+02  0.17572382471E+03  0.00000000000E+00 0. -1.
<scales pt_clust_5="13000.00000" pt_clust_6="13000.00000" pt_clust_7="13000.00000" pt_clust_8="13000.00000" pt_clust_9="110.37908"></scales>
<clustering>
<clus scale="   82.076">  5  6 -1 -1</clus>
<clus scale="   91.977">  7  8 -1 -1</clus>
<clus scale="  115.309">  2  7  1 -1</clus>
<clus scale="  110.379">  2  9  1 -1</clus>
<clus scale="  115.309">  2  5  1 -1</clus>
</clustering>
</event>
<event>
 9    1  0.2674825E-005  0.9951937E+02  0.7546771E-02  0.1285161E+00
          1   -1    0    0  502    0  0.00000000000E+00  0.00000000000E+00  0.17801770591E+03  0.17801770591E+03  0.00000000000E+00 0. -1.
         -2   -1    0    0    0  501 -0.00000000000E+00 -0.00000000000E+00 -0.10386346073E+03  0.10386346073E+03  0.00000000000E+00 0.  1.
         23    2    1    2    0    0  0.64587602751E+01 -0.50662705978E+02 -0.33722640542E+02  0.11021506760E+03  0.91660892857E+02 0.  0.
        -24    2    1    2    0    0 -0.11732209537E+02  0.43320187756E+01  0.83252154836E+02  0.11893357383E+03  0.84011086012E+02 0.  0.
         11    1    4    4    0    0 -0.30883658084E+02  0.36108532566E+02  0.51834965983E+02  0.70317068761E+02  0.00000000000E+00 0. -1.
        -12    1    4    4    0    0  0.19151448546E+02 -0.31776513790E+02  0.31417188853E+02  0.48616505073E+02  0.00000000000E+00 0.  1.
        -11    1    3    3    0    0 -0.90025104364E+01  0.22292169520E+02  0.72692663623E+01  0.25116294502E+02  0.00000000000E+00 0. -1.
         11    1    3    3    0    0  0.15461270711E+02 -0.72954875498E+02 -0.40991906905E+02  0.85098773097E+02  0.00000000000E+00 0.  1.
         21    1    1    2  502  501  0.52734492624E+01  0.46330687202E+02  0.24624730881E+02  0.52732525207E+02  0.00000000000E+00 0. -1.
<scales pt_clust_5="13000.00000" pt_clust_6="13000.00000" pt_clust_7="13000.00000" pt_clust_8="13000.00000" pt_clust_9="46.62984"></scales>
<clustering>
<clus scale="   46.630">  1  9  2 -1</clus>
<clus scale="   84.011">  5  6 -1 -1</clus>
<clus scale="   91.661">  7  8 -1 -1</clus>
<clus scale="   92.522">  1  5  2 -1</clus>
<clus scale="   46.630">  1  5  2 -1</clus>
</clustering>
</event>
<event>
 9    1  0.2674825E-005  0.1132289E+03  0.7546771E-02  0.1258721E+00
         -4   -1    0    0    0  501 -0.00000000000E+00  0.00000000000E+00  0.33535528645E+03  0.33535528645E+03  0.00000000000E+00 0.  1.
          3   -1    0    0  502    0  0.00000000000E+00 -0.00000000000E+00 -0.16485523663E+03  0.16485523663E+03  0.00000000000E+00 0. -1.
        -24    2    1    2    0    0  0.24766569223E+02  0.56934460961E+01  0.37480318150E+02  0.93054906209E+02  0.81293560885E+02 0.  0.
         23    2    1    2    0    0 -0.75590066318E+02  0.44574320116E+02 -0.10100330432E+03  0.16245854383E+03  0.92143273431E+02 0.  0.
         13    1    3    3    0    0 -0.93954898327E+01  0.31309847975E+02  0.38292410045E+02  0.50347695841E+02  0.00000000000E+00 0. -1.
        -14    1    3    3    0    0  0.34162059056E+02 -0.25616401879E+02 -0.81209189540E+00  0.42707210368E+02  0.00000000000E+00 0.  1.
        -13    1    4    4    0    0 -0.94149430573E+02  0.34683051708E+02 -0.61436336097E+02  0.11764970355E+03  0.00000000000E+00 0.  1.
         13    1    4    4    0    0  0.18559364254E+02  0.98912684085E+01 -0.39566968225E+02  0.44808840275E+02  0.00000000000E+00 0. -1.
         21    1    1    2  502  501  0.50823497095E+02 -0.50267766212E+02  0.23402303600E+03  0.24469707304E+03  0.00000000000E+00 0.  1.
<scales pt_clust_5="13000.00000" pt_clust_6="13000.00000" pt_clust_7="13000.00000" pt_clust_8="13000.00000" pt_clust_9="71.48340"></scales>
<clustering>
<clus scale="   71.483">  1  9  2 -1</clus>
<clus scale="   81.294">  5  6 -1 -1</clus>
<clus scale="   92.143">  7  8 -1 -1</clus>
<clus scale="  104.590">  1  5  2 -1</clus>
<clus scale="  113.229">  2  5  1 -1</clus>
</clustering>
</event>
<event>
 9    1  0.2674825E-005  0.1000664E+03  0.7546771E-02  0.1285866E+00
          1   -1    0    0  502    0  0.00000000000E+00  0.00000000000E+00  0.62459840347E+03  0.62459840347E+03  0.00000000000E+00 0. -1.
         -2   -1    0    0    0  501 -0.00000000000E+00 -0.00000000000E+00 -0.92640902928E+02  0.92640902928E+02  0.00000000000E+00 0.  1.
        -24    2    1    2    0    0 -0.97900728390E+01 -0.40846488848E+02 -0.54110497420E+02  0.10629414785E+03  0.81278648854E+02 0.  0.
         23    2    1    2    0    0 -0.40123589224E+02  0.77104276367E+01  0.25164454981E+03  0.27119758330E+03  0.92486737590E+02 0.  0.
         11    1    3    3    0    0 -0.24645663655E+02  0.18151364568E+02 -0.16590728396E+02  0.34815701076E+02  0.00000000000E+00 0. -1.
        -12    1    3    3    0    0  0.14855590816E+02 -0.58997853416E+02 -0.37519769023E+02  0.71478446778E+02  0.00000000000E+00 0.  1.
        -11    1    4    4    0    0 -0.30913825753E+02 -0.37123705536E+02  0.79101444501E+02  0.92686960559E+02  0.00000000000E+00 0.  1.
         11    1    4    4    0    0 -0.92097634703E+01  0.44834133173E+02  0.17254310531E+03  0.17851062274E+03  0.00000000000E+00 0. -1.
         21    1    1    2  502  501  0.49913662063E+02  0.33136061212E+02  0.33442344814E+03  0.33974757524E+03  0.00000000000E+00 0. -1.
<scales pt_clust_5="13000.00000" pt_clust_6="13000.00000" pt_clust_7="13000.00000" pt_clust_8="13000.00000" pt_clust_9="59.91137"></scales>
<clustering>
<clus scale="   59.911">  1  9  2 -1</clus>
<clus scale="   81.279">  5  6 -1 -1</clus>
<clus scale="   89.809">  2  5  1 -1</clus>
<clus scale="   92.487">  7  8 -1 -1</clus>
<clus scale="   59.911">  1  5  2 -1</clus>
</clustering>
</event>
<event>
 9    1  0.2674825E-005  0.1175534E+03  0.7546771E-02  0.1261864E+00
         -2   -1    0    0    0  501 -0.00000000000E+00  0.00000000000E+00  0.95524075745E+02  0.95524075745E+02  0.00000000000E+00 0.  1.
          1   -1    0    0  502    0  0.00000000000E+00 -0.00000000000E+00 -0.54832629264E+03  0.54832629264E+03  0.00000000000E+00 0. -1.
         23    2    1    2    0    0  0.63276190876E+02  0.26130258577E+02  0.33501015419E+02  0.11926693832E+03  0.91736676401E+02 0.  0.
        -24    2    1    2    0    0  0.14073528756E+02  0.30011427444E+02 -0.32889668538E+03  0.34043216329E+03  0.81377381128E+02 0.  0.
         11    1    4    4    0    0 -0.24731025825E+02  0.19615754407E+02 -0.53478285038E+02  0.62099343232E+02  0.00000000000E+00 0. -1.
        -12    1    4    4    0    0  0.38804554581E+02  0.10395673037E+02 -0.27541840035E+03  0.27833282006E+03  0.00000000000E+00 0.  1.
        -11    1    3    3    0    0  0.71145969807E+00  0.20185170316E+02  0.50308642502E+02  0.54211684958E+02  0.00000000000E+00 0.  1.
         11    1    3    3    0    0  0.62564731178E+02  0.59450882612E+01 -0.16807627083E+02  0.65055253362E+02  0.00000000000E+00 0. -1.
         21    1    1    2  502  501 -0.77349719633E+02 -0.56141686021E+02 -0.15740654693E+03  0.18415126677E+03  0.00000000000E+00 0. -1.
<scales pt_clust_5="13000.00000" pt_clust_6="13000.00000" pt_clust_7="13000.00000" pt_clust_8="13000.00000" pt_clust_9="73.50631"></scales>
<clustering>
<clus scale="   81.377">  5  6 -1 -1</clus>
<clus scale="   87.869">  2  5  1 -1</clus>
<clus scale="   73.506">  2  9  1 -1</clus>
<clus scale="   91.737">  7  8 -1 -1</clus>
<clus scale="   87.869">  2  5  1 -1</clus>
</clustering>
</event>
<event>
 9    1  0.2674825E-005  0.1277203E+03  0.7546771E-02  0.1244176E+00
          1   -1    0    0  502    0  0.00000000000E+00  0.00000000000E+00  0.45443802926E+02  0.45443802926E+02  0.00000000000E+00 0. -1.
         -2   -1    0    0    0  501 -0.00000000000E+00 -0.00000000000E+00 -0.39144176213E+03  0.39144176213E+03  0.00000000000E+00 0.  1.
         23    2    1    2    0    0 -0.29045836004E+02 -0.18545295544E+02 -0.15734307134E+03  0.19855390576E+03  0.11610005520E+03 0.  0.
        -24    2    1    2    0    0  0.47351713329E+02  0.51710268291E+02 -0.14503480554E+03  0.18055855012E+03  0.81548504590E+02 0.  0.
         13    1    4    4    0    0  0.27912917500E+02  0.36458813383E+01 -0.17753766060E+01  0.28205945760E+02  0.00000000000E+00 0. -1.
        -14    1    4    4    0    0  0.19438795828E+02  0.48064386953E+02 -0.14325942893E+03  0.15235260436E+03  0.00000000000E+00 0.  1.
        -11    1    3    3    0    0  0.88939213896E+01  0.38247346581E+02 -0.10620349044E+03  0.11323048503E+03  0.00000000000E+00 0.  1.
         11    1    3    3    0    0 -0.37939757394E+02 -0.56792642125E+02 -0.51139580895E+02  0.85323420728E+02  0.00000000000E+00 0. -1.
         21    1    1    2  502  501 -0.18305877325E+02 -0.33164972747E+02 -0.43620082327E+02  0.57773109179E+02  0.00000000000E+00 0. -1.
<scales pt_clust_5="13000.00000" pt_clust_6="13000.00000" pt_clust_7="13000.00000" pt_clust_8="13000.00000" pt_clust_9="37.88167"></scales>
<clustering>
<clus scale="   37.882">  1  9  2 -1</clus>
<clus scale="   81.549">  5  6 -1 -1</clus>
<clus scale="   97.383">  1  5  2 -1</clus>
<clus scale="  116.100">  7  8 -1 -1</clus>
<clus scale="   37.882">  1  5  2 -1</clus>
</clustering>
</event>
<event>
 9    1  0.2674825E-005  0.9834437E+02  0.7546771E-02  0.1289178E+00
         -4   -1    0    0    0  501 -0.00000000000E+00  0.00000000000E+00  0.83348796338E+03  0.83348796338E+03  0.00000000000E+00 0.  1.
          3   -1    0    0  502    0  0.00000000000E+00 -0.00000000000E+00 -0.19820649882E+02  0.19820649882E+02  0.00000000000E+00 0. -1.
        -24    2    1    2    0    0  0.32192178579E+02  0.24842457820E+01  0.51717126519E+03  0.52422784048E+03  0.79411607217E+02 0.  0.
         23    2    1    2    0    0 -0.39337894193E+02  0.18262460087E+02  0.14506176872E+03  0.17606499552E+03  0.89860884342E+02 0.  0.
         13    1    3    3    0    0  0.11429347052E+02  0.35828409321E+02  0.13817211741E+03  0.14319859957E+03  0.00000000000E+00 0. -1.
        -14    1    3    3    0    0  0.20762831528E+02 -0.33344163539E+02  0.37899914778E+03  0.38102924091E+03  0.00000000000E+00 0.  1.
        -11    1    4    4    0    0 -0.27165150414E+00  0.43806566863E+02  0.10772880292E+03  0.11629524527E+03  0.00000000000E+00 0. -1.
         11    1    4    4    0    0 -0.39066242689E+02 -0.25544106776E+02  0.37332965799E+02  0.59769750244E+02  0.00000000000E+00 0.  1.
         21    1    1    2  502  501  0.71457156144E+01 -0.20746705869E+02  0.15143427959E+03  0.15301577726E+03  0.00000000000E+00 0.  1.
<scales pt_clust_5="13000.00000" pt_clust_6="13000.00000" pt_clust_7="13000.00000" pt_clust_8="13000.00000" pt_clust_9="21.94281"></scales>
<clustering>
<clus scale="   21.943">  1  9  2 -1</clus>
<clus scale="   79.412">  5  6 -1 -1</clus>
<clus scale="   88.898">  1  5  2 -1</clus>
<clus scale="   89.861">  7  8 -1 -1</clus>
<clus scale="   98.344">  2  5  1 -1</clus>
</clustering>
</event>
<event>
 9    1  0.2674825E-005  0.1662542E+03  0.7546771E-02  0.1185266E+00
         -2   -1    0    0    0  501 -0.00000000000E+00  0.00000000000E+00  0.81458188625E+02  0.81458188625E+02  0.00000000000E+00 0.  1.
          1   -1    0    0  502    0  0.00000000000E+00 -0.00000000000E+00 -0.11695751082E+04  0.11695751082E+04  0.00000000000E+00 0. -1.
         23    2    1    2    0    0  0.11175221837E+03  0.83968863321E+02 -0.39841953377E+02  0.17248252756E+03  0.92862870648E+02 0.  0.
        -24    2    1    2    0    0 -0.44983514077E+02 -0.14234862132E+03 -0.72235647097E+03  0.74077995710E+03  0.68333206910E+02 0.  0.
         11    1    4    4    0    0 -0.32297007604E+02 -0.77437486254E+02 -0.24739123118E+03  0.26123185533E+03  0.00000000000E+00 0. -1.
        -12    1    4    4    0    0 -0.12686506474E+02 -0.64911135067E+02 -0.47496523979E+03  0.47954810177E+03  0.00000000000E+00 0.  1.
        -11    1    3    3    0    0  0.79973837410E+02  0.37817304894E+02  0.19793832390E+02  0.90651856132E+02  0.00000000000E+00 0.  1.
         11    1    3    3    0    0  0.31778380965E+02  0.46151558427E+02 -0.59635785768E+02  0.81830671426E+02  0.00000000000E+00 0. -1.
         21    1    1    2  502  501 -0.66768704298E+02  0.58379758000E+02 -0.32591849526E+03  0.33777081220E+03  0.00000000000E+00 0. -1.
<scales pt_clust_5="13000.00000" pt_clust_6="13000.00000" pt_clust_7="13000.00000" pt_clust_8="13000.00000" pt_clust_9="88.69192"></scales>
<clustering>
<clus scale="   68.333">  5  6 -1 -1</clus>
<clus scale="   88.692">  2  9  1 -1</clus>
<clus scale="   92.863">  7  8 -1 -1</clus>
<clus scale="  153.904">  2  5  1 -1</clus>
<clus scale="   88.692">  2  5  1 -1</clus>
</clustering>
</event>
<event>
 9    1  0.2674825E-005  0.9628349E+02  0.7546771E-02  0.1295269E+00
         -2   -1    0    0    0  501 -0.00000000000E+00  0.00000000000E+00  0.29297535323E+03  0.29297535323E+03  0.00000000000E+00 0.  1.
          1   -1    0    0  502    0  0.00000000000E+00 -0.00000000000E+00 -0.14584578328E+03  0.14584578328E+03  0.00000000000E+00 0. -1.
        -24    2    1    2    0    0  0.32767603805E+02  0.11390885347E+01  0.24318579372E+03  0.25797534403E+03  0.79604864671E+02 0.  0.
         23    2    1    2    0    0  0.61554345463E+01 -0.13195394002E+02 -0.21020156102E+02  0.95459793221E+02  0.91971285529E+02 0.  0.
         11    1    3    3    0    0 -0.84145839528E+01  0.32707096588E+02  0.10873633475E+03  0.11386022082E+03  0.00000000000E+00 0. -1.
        -12    1    3    3    0    0  0.41182187758E+02 -0.31568008054E+02  0.13444945897E+03  0.14411512321E+03  0.00000000000E+00 0.  1.
        -13    1    4    4    0    0  0.83009559804E+01  0.32449590459E+02  0.15554209023E+02  0.36929868798E+02  0.00000000000E+00 0.  1.
         13    1    4    4    0    0 -0.21455214341E+01 -0.45644984461E+02 -0.36574365125E+02  0.58529924423E+02  0.00000000000E+00 0. -1.
         21    1    1    2  502  501 -0.38923038351E+02  0.12056305467E+02 -0.75036067673E+02  0.85385999249E+02  0.00000000000E+00 0. -1.
<scales pt_clust_5="13000.00000" pt_clust_6="13000.00000" pt_clust_7="13000.00000" pt_clust_8="13000.00000" pt_clust_9="40.74748"></scales>
<clustering>
<clus scale="   40.747">  2  9  1 -1</clus>
<clus scale="   79.605">  5  6 -1 -1</clus>
<clus scale="   84.550">  1  5  2 -1</clus>
<clus scale="   91.971">  7  8 -1 -1</clus>
<clus scale="   40.747">  2  5  1 -1</clus>
</clustering>
</event>
<event>
 9    1  0.2674825E-005  0.9749040E+02  0.7546771E-02  0.1292706E+00
          1   -1    0    0  502    0  0.00000000000E+00  0.00000000000E+00  0.13883026078E+03  0.13883026078E+03  0.00000000000E+00 0. -1.
         -2   -1    0    0    0  501 -0.00000000000E+00 -0.00000000000E+00 -0.22775051205E+03  0.22775051205E+03  0.00000000000E+00 0.  1.
         23    2    1    2    0    0  0.33152313370E+02  0.11499530966E+02 -0.18169432999E+03  0.20652989582E+03  0.91708523166E+02 0.  0.
        -24    2    1    2    0    0 -0.22769521425E+02  0.22122939633E+02  0.91503076977E+02  0.12483882875E+03  0.78765757173E+02 0.  0.
         11    1    4    4    0    0 -0.26987603368E+02 -0.20740339600E+01  0.96109941701E+02  0.99848651700E+02  0.00000000000E+00 0. -1.
        -12    1    4    4    0    0  0.42180819424E+01  0.24196973593E+02 -0.46068647243E+01  0.24990177049E+02  0.00000000000E+00 0.  1.
        -11    1    3    3    0    0 -0.30820039482E+02  0.25335813473E+01 -0.83010632105E+02  0.88583626651E+02  0.00000000000E+00 0. -1.
         11    1    3    3    0    0  0.63972352852E+02  0.89659496191E+01 -0.98683697885E+02  0.11794626917E+03  0.00000000000E+00 0.  1.
         21    1    1    2  502  501 -0.10382791945E+02 -0.33622470600E+02  0.12710017412E+01  0.35212048268E+02  0.00000000000E+00 0.  1.
<scales pt_clust_5="13000.00000" pt_clust_6="13000.00000" pt_clust_7="13000.00000" pt_clust_8="13000.00000" pt_clust_9="35.18910"></scales>
<clustering>
<clus scale="   35.189">  1  9  2 -1</clus>
<clus scale="   78.766">  5  6 -1 -1</clus>
<clus scale="   85.428">  1  5  2 -1</clus>
<clus scale="   91.709">  7  8 -1 -1</clus>
<clus scale="   35.189">  1  5  2 -1</clus>
</clustering>
</event>
<event>
 9    1  0.2674825E-005  0.1846128E+03  0.7546771E-02  0.1164062E+00
         -2   -1    0    0    0  501 -0.00000000000E+00  0.00000000000E+00  0.16543669918E+03  0.16543669918E+03  0.00000000000E+00 0.  1.
          1   -1    0    0  502    0  0.00000000000E+00 -0.00000000000E+00 -0.28681542845E+03  0.28681542845E+03  0.00000000000E+00 0. -1.
         23    2    1    2    0    0 -0.12731642744E+03 -0.98800960202E+02  0.33349250270E+02  0.18595028863E+03  0.86569249248E+02 0.  0.
        -24    2    1    2    0    0  0.14940987951E+03  0.79603642523E+02 -0.13346365086E+03  0.23012409301E+03  0.80526393710E+02 0.  0.
         13    1    4    4    0    0  0.14651666495E+03  0.79368810412E+02 -0.95519430261E+02  0.19206900513E+03  0.00000000000E+00 0. -1.
        -14    1    4    4    0    0  0.28932145599E+01  0.23483211058E+00 -0.37944220597E+02  0.38055087877E+02  0.00000000000E+00 0.  1.
        -11    1    3    3    0    0 -0.11274180685E+03 -0.53569135739E+02  0.51570066607E+02  0.13505494840E+03  0.00000000000E+00 0.  1.
         11    1    3    3    0    0 -0.14574620583E+02 -0.45231824463E+02 -0.18220816336E+02  0.50895340232E+02  0.00000000000E+00 0. -1.
         21    1    1    2  502  501 -0.22093452074E+02  0.19197317679E+02 -0.21264328686E+02  0.36177745992E+02  0.00000000000E+00 0. -1.
<scales pt_clust_5="13000.00000" pt_clust_6="13000.00000" pt_clust_7="13000.00000" pt_clust_8="13000.00000" pt_clust_9="29.26871"></scales>
<clustering>
<clus scale="   29.269">  2  9  1 -1</clus>
<clus scale="   80.526">  5  6 -1 -1</clus>
<clus scale="   86.569">  7  8 -1 -1</clus>
<clus scale="  181.858">  2  5  1 -1</clus>
<clus scale="   29.269">  2  5  1 -1</clus>
</clustering>
</event>
<event>
 9    1  0.2674825E-005  0.9817826E+02  0.7546771E-02  0.1290117E+00
         -2   -1    0    0    0  501 -0.00000000000E+00  0.00000000000E+00  0.23360267320E+03  0.23360267320E+03  0.00000000000E+00 0.  1.
          1   -1    0    0  502    0  0.00000000000E+00 -0.00000000000E+00 -0.10998314116E+03  0.10998314116E+03  0.00000000000E+00 0. -1.
        -24    2    1    2    0    0  0.25229751642E+02 -0.22106348886E+02  0.17666102725E+03  0.19731893827E+03  0.81242930899E+02 0.  0.
         23    2    1    2    0    0 -0.32445386588E+01  0.41262638280E+02 -0.58045181801E+02  0.11668056350E+03  0.92368709088E+02 0.  0.
         11    1    3    3    0    0 -0.23680093409E+02 -0.17630410178E+02  0.27748856118E+02  0.40516381906E+02  0.00000000000E+00 0. -1.
        -12    1    3    3    0    0  0.48909845051E+02 -0.44759387076E+01  0.14891217113E+03  0.15680255636E+03  0.00000000000E+00 0.  1.
        -11    1    4    4    0    0 -0.44742864708E+02  0.35761354796E+02 -0.44977297540E+02  0.72826888806E+02  0.00000000000E+00 0. -1.
         11    1    4    4    0    0  0.41498326049E+02  0.55012834838E+01 -0.13067884261E+02  0.43853674691E+02  0.00000000000E+00 0.  1.
         21    1    1    2  502  501 -0.21985212984E+02 -0.19156289394E+02  0.50036865885E+01  0.29586312591E+02  0.00000000000E+00 0.  1.
<scales pt_clust_5="13000.00000" pt_clust_6="13000.00000" pt_clust_7="13000.00000" pt_clust_8="13000.00000" pt_clust_9="29.16013"></scales>
<clustering>
<clus scale="   29.160">  2  9  1 -1</clus>
<clus scale="   81.243">  5  6 -1 -1</clus>
<clus scale="   87.792">  1  5  2 -1</clus>
<clus scale="   92.369">  7  8 -1 -1</clus>
<clus scale="   29.160">  2  5  1 -1</clus>
</clustering>
</event>
<event>
 9    1  0.2674825E-005  0.9045664E+02  0.7546771E-02  0.1307026E+00
         -2   -1    0    0    0  501 -0.00000000000E+00  0.00000000000E+00  0.12323318830E+03  0.12323318830E+03  0.00000000000E+00 0.  1.
          1   -1    0    0  502    0  0.00000000000E+00 -0.00000000000E+00 -0.18850078010E+03  0.18850078010E+03  0.00000000000E+00 0. -1.
         23    2    1    2    0    0  0.14337622898E+02 -0.86292977581E+00  0.82289115967E+02  0.12274806455E+03  0.89940406198E+02 0.  0.
        -24    2    1    2    0    0  0.11833013623E+02  0.50257372658E+00 -0.73452712371E+02  0.11039561051E+03  0.81557446464E+02 0.  0.
         11    1    4    4    0    0  0.20342421493E+01 -0.38206829003E+02 -0.53456845536E+02  0.65738377362E+02  0.00000000000E+00 0. -1.
        -12    1    4    4    0    0  0.97987714735E+01  0.38709402729E+02 -0.19995866835E+02  0.44657233149E+02  0.00000000000E+00 0.  1.
        -13    1    3    3    0    0 -0.33794998664E+02  0.19024199715E+02  0.39361462984E+02  0.55257097985E+02  0.00000000000E+00 0. -1.
         13    1    3    3    0    0  0.48132621562E+02 -0.19887129491E+02  0.42927652983E+02  0.67490966570E+02  0.00000000000E+00 0.  1.
         21    1    1    2  502  501 -0.26170636521E+02  0.36035604922E+00 -0.74103995400E+02  0.78590293336E+02  0.00000000000E+00 0. -1.
<scales pt_clust_5="13000.00000" pt_clust_6="13000.00000" pt_clust_7="13000.00000" pt_clust_8="13000.00000" pt_clust_9="26.17312"></scales>
<clustering>
<clus scale="   26.173">  2  9  1 -1</clus>
<clus scale="   81.557">  5  6 -1 -1</clus>
<clus scale="   82.126">  2  5  1 -1</clus>
<clus scale="   89.940">  7  8 -1 -1</clus>
<clus scale="   26.173">  2  5  1 -1</clus>
</clustering>
</event>
<event>
 9    1  0.2674825E-005  0.2747888E+03  0.7546771E-02  0.1099446E+00
          1   -1    0    0  502    0  0.00000000000E+00  0.00000000000E+00  0.55845533810E+03  0.55845533810E+03  0.00000000000E+00 0. -1.
         -2   -1    0    0    0  501 -0.00000000000E+00 -0.00000000000E+00 -0.33042054773E+03  0.33042054773E+03  0.00000000000E+00 0.  1.
         23    2    1    2    0    0 -0.43426039350E+02 -0.24854262196E+03 -0.21171057005E+03  0.34414692908E+03  0.99782200337E+02 0.  0.
        -24    2    1    2    0    0  0.51714608013E+02  0.27616352635E+03  0.39472439680E+03  0.49126399724E+03  0.81192804992E+02 0.  0.
         11    1    4    4    0    0  0.49944710617E+02  0.21619044644E+03  0.35717396056E+03  0.42048308094E+03  0.00000000000E+00 0. -1.
        -12    1    4    4    0    0  0.17698973965E+01  0.59973079907E+02  0.37550436242E+02  0.70780916300E+02  0.00000000000E+00 0.  1.
        -13    1    3    3    0    0 -0.52877927144E+02 -0.20724875708E+03 -0.21287663504E+03  0.30176909092E+03  0.00000000000E+00 0.  1.
         13    1    3    3    0    0  0.94518877939E+01 -0.41293864884E+02  0.11660649929E+01  0.42377838164E+02  0.00000000000E+00 0. -1.
         21    1    1    2  502  501 -0.82885686626E+01 -0.27620904390E+02  0.45020963617E+02  0.53464959504E+02  0.00000000000E+00 0.  1.
<scales pt_clust_5="13000.00000" pt_clust_6="13000.00000" pt_clust_7="13000.00000" pt_clust_8="13000.00000" pt_clust_9="28.83773"></scales>
<clustering>
<clus scale="   28.838">  1  9  2 -1</clus>
<clus scale="   81.193">  5  6 -1 -1</clus>
<clus scale="   99.782">  7  8 -1 -1</clus>
<clus scale="  268.598">  1  5  2 -1</clus>
<clus scale="   28.838">  1  5  2 -1</clus>
</clustering>
</event>
<event>
 9    1  0.2674825E-005  0.9876555E+02  0.7546771E-02  0.1283635E+00
          1   -1    0    0  502    0  0.00000000000E+00  0.00000000000E+00  0.18603005882E+03  0.18603005882E+03  0.00000000000E+00 0. -1.
         -2   -1    0    0    0  501 -0.00000000000E+00 -0.00000000000E+00 -0.31683269693E+03  0.31683269693E+03  0.00000000000E+00 0.  1.
         23    2    1    2    0    0  0.43023490669E+02  0.37748104674E+02 -0.28396222419E+03  0.30108763489E+03  0.82117470526E+02 0.  0.
        -24    2    1    2    0    0 -0.20908782517E+02 -0.24504753440E+02  0.60832648047E+02  0.10591736084E+03  0.80499789632E+02 0.  0.
         13    1    4    4    0    0 -0.81724465896E+01 -0.46115480254E+02  0.81094314136E+01  0.47530929721E+02  0.00000000000E+00 0. -1.
        -14    1    4    4    0    0 -0.12736335928E+02  0.21610726814E+02  0.52723216634E+02  0.58386431116E+02  0.00000000000E+00 0.  1.
        -11    1    3    3    0    0 -0.23014480656E+02  0.14274276031E+02 -0.50124671056E+02  0.56972834971E+02  0.00000000000E+00 0. -1.
         11    1    3    3    0    0  0.66037971326E+02  0.23473828643E+02 -0.23383755313E+03  0.24411479992E+03  0.00000000000E+00 0.  1.
         21    1    1    2  502  501 -0.22114708152E+02 -0.13243351235E+02  0.92326938034E+02  0.95857760016E+02  0.00000000000E+00 0. -1.
<scales pt_clust_5="13000.00000" pt_clust_6="13000.00000" pt_clust_7="13000.00000" pt_clust_8="13000.00000" pt_clust_9="25.77686"></scales>
<clustering>
<clus scale="   25.777">  1  9  2 -1</clus>
<clus scale="   80.500">  5  6 -1 -1</clus>
<clus scale="   82.117">  7  8 -1 -1</clus>
<clus scale="   97.425">  1  5  2 -1</clus>
<clus scale="   25.777">  1  5  2 -1</clus>
</clustering>
</event>
<event>
 9    1  0.2674825E-005  0.1021232E+03  0.7546771E-02  0.1281167E+00
         -2   -1    0    0    0  501 -0.00000000000E+00  0.00000000000E+00  0.89604613797E+03  0.89604613797E+03  0.00000000000E+00 0.  1.
          1   -1    0    0  502    0  0.00000000000E+00 -0.00000000000E+00 -0.30070018648E+02  0.30070018648E+02  0.00000000000E+00 0. -1.
        -24    2    1    2    0    0  0.42823849864E+02  0.18835667994E+01  0.70610867910E+03  0.71205835901E+03  0.81241676472E+02 0.  0.
         23    2    1    2    0    0 -0.50820980606E+02 -0.26003080183E+02  0.94194200192E+02  0.14363990583E+03  0.92200558289E+02 0.  0.
         13    1    3    3    0    0  0.32748092802E+02 -0.30112852883E+02  0.20229584342E+03  0.20712998276E+03  0.00000000000E+00 0. -1.
        -14    1    3    3    0    0  0.10075757062E+02  0.31996419683E+02  0.50381283568E+03  0.50492837625E+03  0.00000000000E+00 0.  1.
        -11    1    4    4    0    0 -0.50369318894E+02  0.24914186491E+02  0.38161501427E+02  0.67927057683E+02  0.00000000000E+00 0.  1.
         11    1    4    4    0    0 -0.45166171168E+00 -0.50917266674E+02  0.56032698766E+02  0.75712848149E+02  0.00000000000E+00 0. -1.
         21    1    1    2  502  501  0.79971307420E+01  0.24119513383E+02  0.65673240025E+02  0.70417891770E+02  0.00000000000E+00 0.  1.
<scales pt_clust_5="13000.00000" pt_clust_6="13000.00000" pt_clust_7="13000.00000" pt_clust_8="13000.00000" pt_clust_9="25.41073"></scales>
<clustering>
<clus scale="   25.411">  2  9  1 -1</clus>
<clus scale="   81.242">  5  6 -1 -1</clus>
<clus scale="   92.201">  7  8 -1 -1</clus>
<clus scale="   92.349">  1  5  2 -1</clus>
<clus scale="   25.411">  2  5  1 -1</clus>
</clustering>
</event>
<event>
 9    1  0.2674825E-005  0.9309634E+02  0.7546771E-02  0.1300284E+00
          1   -1    0    0  502    0  0.00000000000E+00  0.00000000000E+00  0.14661992921E+03  0.14661992921E+03  0.00000000000E+00 0. -1.
         -2   -1    0    0    0  501 -0.00000000000E+00 -0.00000000000E+00 -0.19513116023E+03  0.19513116023E+03  0.00000000000E+00 0.  1.
         23    2    1    2    0    0  0.35042150314E+01  0.17549171096E+02 -0.11069221943E+03  0.14246982483E+03  0.87889877782E+02 0.  0.
        -24    2    1    2    0    0  0.96380258222E+01 -0.69434727443E+02 -0.13198631173E+02  0.10683172971E+03  0.79528244615E+02 0.  0.
         13    1    4    4    0    0 -0.20129843168E+02  0.84932406102E+01 -0.79395863938E+01  0.23246134176E+02  0.00000000000E+00 0. -1.
        -14    1    4    4    0    0  0.29767868990E+02 -0.77927968053E+02 -0.52590447794E+01  0.83585595536E+02  0.00000000000E+00 0.  1.
        -13    1    3    3    0    0 -0.22820711530E+01 -0.23255178967E+02  0.10290429076E+01  0.23389530283E+02  0.00000000000E+00 0. -1.
         13    1    3    3    0    0  0.57862861843E+01  0.40804350063E+02 -0.11172126234E+03  0.11908029455E+03  0.00000000000E+00 0.  1.
         21    1    1    2  502  501 -0.13142240854E+02  0.51885556346E+02  0.75379619587E+02  0.92449534888E+02  0.00000000000E+00 0. -1.
<scales pt_clust_5="13000.00000" pt_clust_6="13000.00000" pt_clust_7="13000.00000" pt_clust_8="13000.00000" pt_clust_9="53.52410"></scales>
<clustering>
<clus scale="   53.524">  1  9  2 -1</clus>
<clus scale="   79.528">  5  6 -1 -1</clus>
<clus scale="   85.247">  1  5  2 -1</clus>
<clus scale="   87.890">  7  8 -1 -1</clus>
<clus scale="   53.524">  1  5  2 -1</clus>
</clustering>
</event>
<event>
 9    1  0.2674825E-005  0.1084064E+03  0.7546771E-02  0.1270613E+00
         -2   -1    0    0    0  501 -0.00000000000E+00  0.00000000000E+00  0.39612472936E+03  0.39612472936E+03  0.00000000000E+00 0.  1.
          1   -1    0    0  502    0  0.00000000000E+00 -0.00000000000E+00 -0.74294644953E+02  0.74294644953E+02  0.00000000000E+00 0. -1.
        -24    2    1    2    0    0 -0.40047610469E+02 -0.99608290888E+01  0.31843770801E+03  0.33801411302E+03  0.10558379371E+03 0.  0.
         23    2    1    2    0    0  0.16417014085E+02  0.16465059109E+02 -0.22429815715E+02  0.96803355461E+02  0.91253364171E+02 0.  0.
         13    1    3    3    0    0  0.14840126543E+02 -0.36801657089E+02  0.56483612989E+02  0.69028905950E+02  0.00000000000E+00 0. -1.
        -14    1    3    3    0    0 -0.54887737013E+02  0.26840828000E+02  0.26195409502E+03  0.26898520707E+03  0.00000000000E+00 0.  1.
        -11    1    4    4    0    0 -0.37665290157E+02  0.11148244921E+02 -0.42964878850E+01  0.39514772624E+02  0.00000000000E+00 0.  1.
         11    1    4    4    0    0  0.54082304242E+02  0.53168141874E+01 -0.18133327830E+02  0.57288582836E+02  0.00000000000E+00 0. -1.
         21    1    1    2  502  501  0.23630596384E+02 -0.65042300199E+01  0.25822192109E+02  0.35601905833E+02  0.00000000000E+00 0.  1.
<scales pt_clust_5="13000.00000" pt_clust_6="13000.00000" pt_clust_7="13000.00000" pt_clust_8="13000.00000" pt_clust_9="24.50939"></scales>
<clustering>
<clus scale="   24.509">  1  9  2 -1</clus>
<clus scale="   91.253">  7  8 -1 -1</clus>
<clus scale="   94.505">  2  7  1 -1</clus>
<clus scale="  105.584">  5  6 -1 -1</clus>
<clus scale="   94.505">  2  5  1 -1</clus>
</clustering>
</event>
<event>
 9    1  0.2674825E-005  0.1687305E+03  0.7546771E-02  0.1180128E+00
         -2   -1    0    0    0  501 -0.00000000000E+00  0.00000000000E+00  0.39944239171E+03  0.39944239171E+03  0.00000000000E+00 0.  1.
          1   -1    0    0  502    0  0.00000000000E+00 -0.00000000000E+00 -0.11159846064E+03  0.11159846064E+03  0.00000000000E+00 0. -1.
         23    2    1    2    0    0 -0.59811138918E+02  0.12125864666E+03  0.23617814592E+03  0.28683646378E+03  0.90631168014E+02 0.  0.
        -24    2    1    2    0    0  0.87283943242E+02 -0.13915014522E+03  0.36060172160E+02  0.18789466734E+03  0.83802269274E+02 0.  0.
         11    1    4    4    0    0  0.28378620273E+02 -0.10345609454E+03 -0.55573379700E+01  0.10742156949E+03  0.00000000000E+00 0. -1.
        -12    1    4    4    0    0  0.58905322969E+02 -0.35694050679E+02  0.41617510130E+02  0.80473097848E+02  0.00000000000E+00 0.  1.
        -11    1    3    3    0    0 -0.27748340409E+02  0.89984618309E+02  0.21984286418E+03  0.23916121520E+03  0.00000000000E+00 0.  1.
         11    1    3    3    0    0 -0.32062798509E+02  0.31274028348E+02  0.16335281745E+02  0.47675248578E+02  0.00000000000E+00 0. -1.
         21    1    1    2  502  501 -0.27472804324E+02  0.17891498566E+02  0.15605612991E+02  0.36309721222E+02  0.00000000000E+00 0. -1.
<scales pt_clust_5="13000.00000" pt_clust_6="13000.00000" pt_clust_7="13000.00000" pt_clust_8="13000.00000" pt_clust_9="32.78507"></scales>
<clustering>
<clus scale="   32.785">  2  9  1 -1</clus>
<clus scale="   83.802">  5  6 -1 -1</clus>
<clus scale="   90.631">  7  8 -1 -1</clus>
<clus scale="  165.163">  2  5  1 -1</clus>
<clus scale="   32.785">  2  5  1 -1</clus>
</clustering>
</event>
<event>
 9    1  0.2674825E-005  0.1303144E+03  0.7546771E-02  0.1227978E+00
          1   -1    0    0  502    0  0.00000000000E+00  0.00000000000E+00  0.43765998076E+03  0.43765998076E+03  0.00000000000E+00 0. -1.
         -2   -1    0    0    0  501 -0.00000000000E+00 -0.00000000000E+00 -0.72377183278E+02  0.72377183278E+02  0.00000000000E+00 0.  1.
         23    2    1    2    0    0 -0.99434020964E+02 -0.24615234779E+01  0.89195845675E+02  0.16206552057E+03  0.91739579509E+02 0.  0.
        -24    2    1    2    0    0  0.75697258574E+02 -0.61527617378E+02  0.12120766806E+03  0.17872142465E+03  0.87945017918E+02 0.  0.
         13    1    4    4    0    0  0.55416927707E+02 -0.61100156481E+02  0.13206821491E+03  0.15571216519E+03  0.00000000000E+00 0. -1.
        -14    1    4    4    0    0  0.20280330867E+02 -0.42746089757E+00 -0.10860546853E+02  0.23009259459E+02  0.00000000000E+00 0.  1.
        -11    1    3    3    0    0 -0.43972733177E+02 -0.39359400012E+02  0.12217490465E+02  0.60266331443E+02  0.00000000000E+00 0.  1.
         11    1    3    3    0    0 -0.55461287787E+02  0.36897876534E+02  0.76978355210E+02  0.10179918913E+03  0.00000000000E+00 0. -1.
         21    1    1    2  502  501  0.23736762390E+02  0.63989140856E+02  0.15487928375E+03  0.16925021882E+03  0.00000000000E+00 0. -1.
<scales pt_clust_5="13000.00000" pt_clust_6="13000.00000" pt_clust_7="13000.00000" pt_clust_8="13000.00000" pt_clust_9="68.24986"></scales>
<clustering>
<clus scale="   68.250">  1  9  2 -1</clus>
<clus scale="   87.945">  5  6 -1 -1</clus>
<clus scale="   91.740">  7  8 -1 -1</clus>
<clus scale="  127.671">  1  5  2 -1</clus>
<clus scale="   68.250">  1  5  2 -1</clus>
</clustering>
</event>
<event>
 9    1  0.2674825E-005  0.1131832E+03  0.7546771E-02  0.1268106E+00
         -2   -1    0    0    0  501 -0.00000000000E+00  0.00000000000E+00  0.12602189607E+03  0.12602189607E+03  0.00000000000E+00 0.  1.
          1   -1    0    0  502    0  0.00000000000E+00 -0.00000000000E+00 -0.26370582758E+03  0.26370582758E+03  0.00000000000E+00 0. -1.
         23    2    1    2    0    0 -0.26548547096E+02  0.33704186771E+02  0.65308575984E+02  0.13326636754E+03  0.10795330963E+03 0.  0.
        -24    2    1    2    0    0  0.31898919236E+02  0.18885434336E+02 -0.68140124916E+02  0.11161847636E+03  0.80258376272E+02 0.  0.
         11    1    4    4    0    0  0.11017175471E+02  0.18503009672E+02 -0.83153682552E+02  0.85896882622E+02  0.00000000000E+00 0. -1.
        -12    1    4    4    0    0  0.20881743765E+02  0.38242466417E+00  0.15013557636E+02  0.25721593733E+02  0.00000000000E+00 0.  1.
        -13    1    3    3    0    0  0.21913792092E+02  0.53682633619E+02  0.54847044278E+02  0.79813768876E+02  0.00000000000E+00 0.  1.
         13    1    3    3    0    0 -0.48462339187E+02 -0.19978446848E+02  0.10461531706E+02  0.53452598661E+02  0.00000000000E+00 0. -1.
         21    1    1    2  502  501 -0.53503721405E+01 -0.52589621107E+02 -0.13485238257E+03  0.14484287976E+03  0.00000000000E+00 0. -1.
<scales pt_clust_5="13000.00000" pt_clust_6="13000.00000" pt_clust_7="13000.00000" pt_clust_8="13000.00000" pt_clust_9="52.86109"></scales>
<clustering>
<clus scale="   52.861">  2  9  1 -1</clus>
<clus scale="   80.258">  5  6 -1 -1</clus>
<clus scale="   87.166">  2  5  1 -1</clus>
<clus scale="  107.953">  7  8 -1 -1</clus>
<clus scale="   52.861">  2  5  1 -1</clus>
</clustering>
</event>
<event>
 9    1  0.2674825E-005  0.1790217E+03  0.7546771E-02  0.1202069E+00
         -2   -1    0    0    0  501 -0.00000000000E+00  0.00000000000E+00  0.25560619921E+02  0.25560619921E+02  0.00000000000E+00 0.  1.
          1   -1    0    0  502    0  0.00000000000E+00 -0.00000000000E+00 -0.19184429829E+04  0.19184429829E+04  0.00000000000E+00 0. -1.
        -24    2    1    2    0    0  0.17000862413E+02  0.25725598937E+02 -0.22071686524E+03  0.23660318154E+03  0.79462539276E+02 0.  0.
         23    2    1    2    0    0  0.78645095770E+02 -0.14399153421E+03 -0.75115086149E+03  0.77391076363E+03  0.88270268680E+02 0.  0.
         13    1    3    3    0    0 -0.96900817373E+01  0.44941810874E+02 -0.17038460404E+03  0.17647826309E+03  0.00000000000E+00 0. -1.
        -14    1    3    3    0    0  0.26690944150E+02 -0.19216211937E+02 -0.50332261198E+02  0.60124918446E+02  0.00000000000E+00 0.  1.
        -13    1    4    4    0    0  0.26482598534E+02 -0.12555249051E+03 -0.58062472347E+03  0.59463419461E+03  0.00000000000E+00 0.  1.
         13    1    4    4    0    0  0.52162497237E+02 -0.18439043697E+02 -0.17052613802E+03  0.17927656902E+03  0.00000000000E+00 0. -1.
         21    1    1    2  502  501 -0.95645958183E+02  0.11826593527E+03 -0.92101463621E+03  0.93348965762E+03  0.00000000000E+00 0. -1.
<scales pt_clust_5="13000.00000" pt_clust_6="13000.00000" pt_clust_7="13000.00000" pt_clust_8="13000.00000" pt_clust_9="155.74701"></scales>
<clustering>
<clus scale="   79.463">  5  6 -1 -1</clus>
<clus scale="   85.236">  1  5  2 -1</clus>
<clus scale="   88.270">  7  8 -1 -1</clus>
<clus scale="  155.747">  2  9  1 -1</clus>
<clus scale="  155.747">  2  5  1 -1</clus>
</clustering>
</event>
<event>
 9    1  0.2674825E-005  0.3600411E+03  0.7546771E-02  0.1067340E+00
          1   -1    0    0  502    0  0.00000000000E+00  0.00000000000E+00  0.20973558311E+04  0.20973558311E+04  0.00000000000E+00 0. -1.
         -2   -1    0    0    0  501 -0.00000000000E+00 -0.00000000000E+00 -0.15517121176E+03  0.15517121176E+03  0.00000000000E+00 0.  1.
         23    2    1    2    0    0  0.60810257736E+02  0.29092607969E+03  0.32670395071E+03  0.45402717162E+03  0.10521088282E+03 0.  0.
        -24    2    1    2    0    0  0.25926950221E+03  0.75835038125E+02  0.80595608447E+03  0.85388628748E+03  0.81147729906E+02 0.  0.
         11    1    4    4    0    0  0.25478173214E+03  0.64782678449E+02  0.70845128527E+03  0.75565451766E+03  0.00000000000E+00 0. -1.
        -12    1    4    4    0    0  0.44877700633E+01  0.11052359676E+02  0.97504799200E+02  0.98231769818E+02  0.00000000000E+00 0.  1.
        -13    1    3    3    0    0  0.78393753126E+02  0.26471889604E+03  0.25560545723E+03  0.37623905196E+03  0.00000000000E+00 0.  1.
         13    1    3    3    0    0 -0.17583495391E+02  0.26207183653E+02  0.71098493479E+02  0.77788119659E+02  0.00000000000E+00 0. -1.
         21    1    1    2  502  501 -0.32007975994E+03 -0.36676111782E+03  0.80952458417E+03  0.94461358377E+03  0.00000000000E+00 0.  1.
<scales pt_clust_5="13000.00000" pt_clust_6="13000.00000" pt_clust_7="13000.00000" pt_clust_8="13000.00000" pt_clust_9="344.32584"></scales>
<clustering>
<clus scale="   81.148">  5  6 -1 -1</clus>
<clus scale="  105.211">  7  8 -1 -1</clus>
<clus scale="  282.058">  1  5  2 -1</clus>
<clus scale="  344.326">  1  9  2 -1</clus>
<clus scale="  282.058">  1  5  2 -1</clus>
</clustering>
</event>
<event>
 9    1  0.2674825E-005  0.1017297E+03  0.7546771E-02  0.1282340E+00
         -4   -1    0    0    0  501 -0.00000000000E+00  0.00000000000E+00  0.92283357010E+02  0.92283357010E+02  0.00000000000E+00 0.  1.
          3   -1    0    0  502    0  0.00000000000E+00 -0.00000000000E+00 -0.35212600420E+03  0.35212600420E+03  0.00000000000E+00 0. -1.
        -24    2    1    2    0    0  0.11367326314E+02 -0.51218851741E+02  0.25899576054E+02  0.98710681850E+02  0.79501093014E+02 0.  0.
         23    2    1    2    0    0  0.26561896487E+02  0.37690997585E+02 -0.28776501339E+03  0.30537845540E+03  0.91220351068E+02 0.  0.
         13    1    3    3    0    0  0.34977916976E+02  0.24828234215E+01  0.12748558303E+01  0.35089091546E+02  0.00000000000E+00 0. -1.
        -14    1    3    3    0    0 -0.23610590663E+02 -0.53701675163E+02  0.24624720224E+02  0.63621590304E+02  0.00000000000E+00 0.  1.
        -13    1    4    4    0    0  0.50888810022E+02  0.52715847970E+02 -0.21788921167E+03  0.22987896853E+03  0.00000000000E+00 0. -1.
         13    1    4    4    0    0 -0.24326913535E+02 -0.15024850386E+02 -0.69875801721E+02  0.75499486868E+02  0.00000000000E+00 0.  1.
         21    1    1    2  502  501 -0.37929222801E+02  0.13527854156E+02  0.20227901396E+01  0.40320223962E+02  0.00000000000E+00 0. -1.
<scales pt_clust_5="13000.00000" pt_clust_6="13000.00000" pt_clust_7="13000.00000" pt_clust_8="13000.00000" pt_clust_9="40.26945"></scales>
<clustering>
<clus scale="   40.269">  1  9  2 -1</clus>
<clus scale="   79.501">  5  6 -1 -1</clus>
<clus scale="   91.220">  7  8 -1 -1</clus>
<clus scale="   91.368">  1  5  2 -1</clus>
<clus scale="  101.730">  2  5  1 -1</clus>
</clustering>
</event>
<event>
 9    1  0.2674825E-005  0.2515885E+03  0.7546771E-02  0.1112424E+00
          1   -1    0    0  502    0  0.00000000000E+00  0.00000000000E+00  0.57310262170E+03  0.57310262170E+03  0.00000000000E+00 0. -1.
         -2   -1    0    0    0  501 -0.00000000000E+00 -0.00000000000E+00 -0.57627471362E+03  0.57627471362E+03  0.00000000000E+00 0.  1.
        -24    2    1    2    0    0 -0.17001015722E+03  0.16103716238E+03 -0.50846076486E+03  0.56755987983E+03  0.93570543292E+02 0.  0.
         23    2    1    2    0    0  0.18906877645E+03 -0.12628197771E+03  0.39767093042E+03  0.46713209316E+03  0.91520945328E+02 0.  0.
         13    1    3    3    0    0 -0.31929892796E+02  0.91940167778E+02 -0.18040134162E+03  0.20498086878E+03  0.00000000000E+00 0. -1.
        -14    1    3    3    0    0 -0.13808026442E+03  0.69096994603E+02 -0.32805942324E+03  0.36257901106E+03  0.00000000000E+00 0.  1.
        -11    1    4    4    0    0  0.34798294647E+02 -0.46661991398E+02  0.17719361119E+03  0.18650962066E+03  0.00000000000E+00 0. -1.
         11    1    4    4    0    0  0.15427048181E+03 -0.79619986313E+02  0.22047731922E+03  0.28062247249E+03  0.00000000000E+00 0.  1.
         21    1    1    2  502  501 -0.19058619236E+02 -0.34755184670E+02  0.10761774252E+03  0.11468536233E+03  0.00000000000E+00 0.  1.
<scales pt_clust_5="13000.00000" pt_clust_6="13000.00000" pt_clust_7="13000.00000" pt_clust_8="13000.00000" pt_clust_9="39.63778"></scales>
<clustering>
<clus scale="   39.638">  1  9  2 -1</clus>
<clus scale="   91.521">  7  8 -1 -1</clus>
<clus scale="   93.571">  5  6 -1 -1</clus>
<clus scale="  250.833">  1  7  2 -1</clus>
<clus scale="   39.638">  1  5  2 -1</clus>
</clustering>
</event>
<event>
 9    1  0.2674825E-005  0.1046725E+03  0.7546771E-02  0.1278672E+00
          3   -1    0    0  502    0  0.00000000000E+00  0.00000000000E+00  0.81790364111E+02  0.81790364111E+02  0.00000000000E+00 0. -1.
         -4   -1    0    0    0  501 -0.00000000000E+00 -0.00000000000E+00 -0.22355174314E+03  0.22355174314E+03  0.00000000000E+00 0.  1.
        -24    2    1    2    0    0 -0.63524956398E+01  0.45948020569E+02 -0.15820818752E+03  0.18278350751E+03  0.78920245968E+02 0.  0.
         23    2    1    2    0    0 -0.26050095460E+01 -0.27434718355E+02  0.21051488296E+02  0.10148296608E+03  0.95373882162E+02 0.  0.
         13    1    3    3    0    0 -0.21464232142E+02  0.52820679572E+02 -0.58446797349E+02  0.81650263762E+02  0.00000000000E+00 0. -1.
        -14    1    3    3    0    0  0.15111736502E+02 -0.68726590037E+01 -0.99761390174E+02  0.10113324375E+03  0.00000000000E+00 0.  1.
        -11    1    4    4    0    0  0.30536312530E+02  0.10319596606E+02 -0.18839229199E+02  0.37334662364E+02  0.00000000000E+00 0.  1.
         11    1    4    4    0    0 -0.33141322076E+02 -0.37754314961E+02  0.39890717495E+02  0.64148303714E+02  0.00000000000E+00 0. -1.
         21    1    1    2  502  501  0.89575051858E+01 -0.18513302214E+02 -0.46046797975E+01  0.21075633657E+02  0.00000000000E+00 0. -1.
<scales pt_clust_5="13000.00000" pt_clust_6="13000.00000" pt_clust_7="13000.00000" pt_clust_8="13000.00000" pt_clust_9="20.56646"></scales>
<clustering>
<clus scale="   20.566">  1  9  2 -1</clus>
<clus scale="   78.920">  5  6 -1 -1</clus>
<clus scale="   89.936">  2  5  1 -1</clus>
<clus scale="   95.374">  7  8 -1 -1</clus>
<clus scale="   20.566">  1  5  2 -1</clus>
</clustering>
</event>
<event>
 9    1  0.2674825E-005  0.1161918E+03  0.7546771E-02  0.1252014E+00
         -2   -1    0    0    0  501 -0.00000000000E+00  0.00000000000E+00  0.36343638688E+03  0.36343638688E+03  0.00000000000E+00 0.  1.
          1   -1    0    0  502    0  0.00000000000E+00 -0.00000000000E+00 -0.52392590750E+02  0.52392590750E+02  0.00000000000E+00 0. -1.
        -24    2    1    2    0    0 -0.21399768226E+02  0.59661006127E+02  0.17376441446E+03  0.20254669982E+03  0.82545188499E+02 0.  0.
         23    2    1    2    0    0  0.39933728821E+02 -0.83979019701E+02  0.12624540839E+03  0.18077655453E+03  0.89972668522E+02 0.  0.
         11    1    3    3    0    0  0.13621397419E+02  0.65416500476E+02  0.13028907216E+03  0.14642439457E+03  0.00000000000E+00 0. -1.
        -12    1    3    3    0    0 -0.35021165645E+02 -0.57554943487E+01  0.43475342301E+02  0.56122305250E+02  0.00000000000E+00 0.  1.
        -11    1    4    4    0    0 -0.12130360472E+02 -0.70728736094E+02  0.93484665510E+02  0.11785195136E+03  0.00000000000E+00 0.  1.
         11    1    4    4    0    0  0.52064089294E+02 -0.13250283606E+02  0.32760742877E+02  0.62924603165E+02  0.00000000000E+00 0. -1.
         21    1    1    2  502  501 -0.18533960595E+02  0.24318013574E+02  0.11033973286E+02  0.32505723281E+02  0.00000000000E+00 0. -1.
<scales pt_clust_5="13000.00000" pt_clust_6="13000.00000" pt_clust_7="13000.00000" pt_clust_8="13000.00000" pt_clust_9="30.57570"></scales>
<clustering>
<clus scale="   30.576">  2  9  1 -1</clus>
<clus scale="   82.545">  5  6 -1 -1</clus>
<clus scale="   89.973">  7  8 -1 -1</clus>
<clus scale="  110.540">  1  5  2 -1</clus>
<clus scale="   30.576">  2  5  1 -1</clus>
</clustering>
</event>
<event>
 9    1  0.2674825E-005  0.1467766E+03  0.7546771E-02  0.1206735E+00
         -2   -1    0    0    0  501 -0.00000000000E+00  0.00000000000E+00  0.32233324488E+03  0.32233324488E+03  0.00000000000E+00 0.  1.
          1   -1    0    0  502    0  0.00000000000E+00 -0.00000000000E+00 -0.46451926156E+03  0.46451926156E+03  0.00000000000E+00 0. -1.
         23    2    1    2    0    0  0.27769166704E+02 -0.10861746587E+03  0.27200739001E+03  0.30822156203E+03  0.91889229882E+02 0.  0.
        -24    2    1    2    0    0 -0.22956322745E+02  0.14116241106E+03 -0.18572704712E+03  0.24780803743E+03  0.80377038605E+02 0.  0.
         13    1    4    4    0    0 -0.35953489217E+02  0.14392490456E+03 -0.18022402437E+03  0.23342607074E+03  0.00000000000E+00 0. -1.
        -14    1    4    4    0    0  0.12997166472E+02 -0.27624935011E+01 -0.55030227457E+01  0.14381966694E+02  0.00000000000E+00 0.  1.
        -11    1    3    3    0    0  0.24622494456E+02  0.22312382343E+01  0.10412985849E+03  0.10702463776E+03  0.00000000000E+00 0. -1.
         11    1    3    3    0    0  0.31466722477E+01 -0.11084870411E+03  0.16787753152E+03  0.20119692427E+03  0.00000000000E+00 0.  1.
         21    1    1    2  502  501 -0.48128439586E+01 -0.32544945188E+02 -0.22846635958E+03  0.23082290698E+03  0.00000000000E+00 0.  1.
<scales pt_clust_5="13000.00000" pt_clust_6="13000.00000" pt_clust_7="13000.00000" pt_clust_8="13000.00000" pt_clust_9="32.89889"></scales>
<clustering>
<clus scale="   32.899">  2  9  1 -1</clus>
<clus scale="   80.377">  5  6 -1 -1</clus>
<clus scale="   91.889">  7  8 -1 -1</clus>
<clus scale="  139.858">  2  5  1 -1</clus>
<clus scale="   32.899">  2  5  1 -1</clus>
</clustering>
</event>
<event>
 9    1  0.2674825E-005  0.1565115E+03  0.7546771E-02  0.1194620E+00
          3   -1    0    0  502    0  0.00000000000E+00  0.00000000000E+00  0.22568495126E+03  0.22568495126E+03  0.00000000000E+00 0. -1.
         -4   -1    0    0    0  501 -0.00000000000E+00 -0.00000000000E+00 -0.66363291940E+03  0.66363291940E+03  0.00000000000E+00 0.  1.
        -24    2    1    2    0    0 -0.12401680291E+03  0.27778612006E+02 -0.61744308823E+03  0.63554925507E+03  0.80839778106E+02 0.  0.
         23    2    1    2    0    0  0.10313416270E+03 -0.47161729846E+02  0.16880498625E+03  0.22333723572E+03  0.92322874727E+02 0.  0.
         13    1    3    3    0    0 -0.41324878200E+02  0.49905509564E+02 -0.24889655927E+03  0.25719215124E+03  0.00000000000E+00 0. -1.
        -14    1    3    3    0    0 -0.82691924711E+02 -0.22126897558E+02 -0.36854652896E+03  0.37835710383E+03  0.00000000000E+00 0.  1.
        -11    1    4    4    0    0  0.64042978110E+02 -0.71675338002E+02  0.13676242320E+03  0.16716105265E+03  0.00000000000E+00 0. -1.
         11    1    4    4    0    0  0.39091184590E+02  0.24513608156E+02  0.32042563043E+02  0.56176183066E+02  0.00000000000E+00 0.  1.
         21    1    1    2  502  501  0.20882640212E+02  0.19383117841E+02  0.10690133849E+02  0.30431379876E+02  0.00000000000E+00 0. -1.
<scales pt_clust_5="13000.00000" pt_clust_6="13000.00000" pt_clust_7="13000.00000" pt_clust_8="13000.00000" pt_clust_9="28.49193"></scales>
<clustering>
<clus scale="   28.492">  1  9  2 -1</clus>
<clus scale="   80.840">  5  6 -1 -1</clus>
<clus scale="   92.323">  7  8 -1 -1</clus>
<clus scale="  150.025">  2  5  1 -1</clus>
<clus scale="   28.492">  1  5  2 -1</clus>
</clustering>
</event>
<event>
 9    1  0.2674825E-005  0.1222896E+03  0.7546771E-02  0.1242748E+00
         -2   -1    0    0    0  501 -0.00000000000E+00  0.00000000000E+00  0.16452254358E+03  0.16452254358E+03  0.00000000000E+00 0.  1.
          1   -1    0    0  502    0  0.00000000000E+00 -0.00000000000E+00 -0.24631997014E+03  0.24631997014E+03  0.00000000000E+00 0. -1.
         23    2    1    2    0    0 -0.69571752052E+02 -0.57823950535E+02  0.10075547708E+03  0.16308841107E+03  0.90897336188E+02 0.  0.
        -24    2    1    2    0    0  0.49860772167E+02  0.32825618006E+02 -0.49941897251E+02  0.11137551792E+03  0.79666147724E+02 0.  0.
         11    1    4    4    0    0  0.69702734002E+02  0.35819156244E+02 -0.32689799147E+02  0.84912343330E+02  0.00000000000E+00 0. -1.
        -12    1    4    4    0    0 -0.19841961835E+02 -0.29935382387E+01 -0.17252098103E+02  0.26463174594E+02  0.00000000000E+00 0.  1.
        -11    1    3    3    0    0 -0.38022743021E+02 -0.63831595237E+02  0.10710371711E+03  0.13035109418E+03  0.00000000000E+00 0.  1.
         11    1    3    3    0    0 -0.31549009031E+02  0.60076447020E+01 -0.63482400253E+01  0.32737316890E+02  0.00000000000E+00 0. -1.
         21    1    1    2  502  501  0.19710979885E+02  0.24998332530E+02 -0.13261100638E+03  0.13637858472E+03  0.00000000000E+00 0. -1.
<scales pt_clust_5="13000.00000" pt_clust_6="13000.00000" pt_clust_7="13000.00000" pt_clust_8="13000.00000" pt_clust_9="31.83456"></scales>
<clustering>
<clus scale="   31.835">  2  9  1 -1</clus>
<clus scale="   79.666">  5  6 -1 -1</clus>
<clus scale="   90.897">  7  8 -1 -1</clus>
<clus scale="  114.189">  2  5  1 -1</clus>
<clus scale="   31.835">  2  5  1 -1</clus>
</clustering>
</event>
<event>
 9    1  0.2674825E-005  0.9303111E+02  0.7546771E-02  0.1303553E+00
         -2   -1    0    0    0  501 -0.00000000000E+00  0.00000000000E+00  0.10770077797E+03  0.10770077797E+03  0.00000000000E+00 0.  1.
          1   -1    0    0  502    0  0.00000000000E+00 -0.00000000000E+00 -0.19627888969E+03  0.19627888969E+03  0.00000000000E+00 0. -1.
        -24    2    1    2    0    0  0.42552556266E+01 -0.64403321199E+01  0.39431655195E+02  0.88394769574E+02  0.78734965411E+02 0.  0.
         23    2    1    2    0    0 -0.11764204492E+01  0.40211493262E+02 -0.19485440564E+02  0.10188573380E+03  0.91556934214E+02 0.  0.
         11    1    3    3    0    0 -0.13645391872E+02 -0.35201063426E+02  0.39330915197E+02  0.54518184819E+02  0.00000000000E+00 0. -1.
        -12    1    3    3    0    0  0.17900647499E+02  0.28760731306E+02  0.10073999771E+00  0.33876584755E+02  0.00000000000E+00 0.  1.
        -13    1    4    4    0    0  0.42214876877E+02  0.11053330997E+02 -0.23299670308E+02  0.49468642515E+02  0.00000000000E+00 0.  1.
         13    1    4    4    0    0 -0.43391297326E+02  0.29158162265E+02  0.38142297446E+01  0.52417091285E+02  0.00000000000E+00 0. -1.
         21    1    1    2  502  501 -0.30788351774E+01 -0.33771161142E+02 -0.10852432635E+03  0.11369916429E+03  0.00000000000E+00 0. -1.
<scales pt_clust_5="13000.00000" pt_clust_6="13000.00000" pt_clust_7="13000.00000" pt_clust_8="13000.00000" pt_clust_9="33.91122"></scales>
<clustering>
<clus scale="   33.911">  2  9  1 -1</clus>
<clus scale="   78.735">  5  6 -1 -1</clus>
<clus scale="   80.444">  1  5  2 -1</clus>
<clus scale="   91.557">  7  8 -1 -1</clus>
<clus scale="   33.911">  2  5  1 -1</clus>
</clustering>
</event>
<event>
 9    1  0.2674825E-005  0.9076586E+02  0.7546771E-02  0.1306289E+00
         -2   -1    0    0    0  501 -0.00000000000E+00  0.00000000000E+00  0.58825176537E+02  0.58825176537E+02  0.00000000000E+00 0.  1.
          1   -1    0    0  502    0  0.00000000000E+00 -0.00000000000E+00 -0.25290701240E+03  0.25290701240E+03  0.00000000000E+00 0. -1.
        -24    2    1    2    0    0  0.34190396470E+01  0.27464085635E+01 -0.18578481919E+02  0.84114029652E+02  0.81919334725E+02 0.  0.
         23    2    1    2    0    0  0.32863390198E+02  0.22696990243E+01 -0.79164715361E+02  0.12455163060E+03  0.90337714042E+02 0.  0.
         11    1    3    3    0    0  0.19127988585E+02  0.31917838074E+02  0.11928766782E+02  0.39075872499E+02  0.00000000000E+00 0. -1.
        -12    1    3    3    0    0 -0.15708948938E+02 -0.29171429510E+02 -0.30507248701E+02  0.45038157153E+02  0.00000000000E+00 0.  1.
        -13    1    4    4    0    0  0.34283550434E+02  0.33805310802E+02 -0.10935418022E+02  0.49373517559E+02  0.00000000000E+00 0.  1.
         13    1    4    4    0    0 -0.14201602364E+01 -0.31535611778E+02 -0.68229297338E+02  0.75178113042E+02  0.00000000000E+00 0. -1.
         21    1    1    2  502  501 -0.36282429845E+02 -0.50161075878E+01 -0.96338638584E+02  0.10306652868E+03  0.00000000000E+00 0.  1.
<scales pt_clust_5="13000.00000" pt_clust_6="13000.00000" pt_clust_7="13000.00000" pt_clust_8="13000.00000" pt_clust_9="36.62753"></scales>
<clustering>
<clus scale="   36.628">  2  9  1 -1</clus>
<clus scale="   81.919">  5  6 -1 -1</clus>
<clus scale="   82.391">  1  5  2 -1</clus>
<clus scale="   90.338">  7  8 -1 -1</clus>
<clus scale="   36.628">  2  5  1 -1</clus>
</clustering>
</event>
<event>
 9    1  0.2674825E-005  0.1707053E+03  0.7546771E-02  0.1178186E+00
          1   -1    0    0  502    0  0.00000000000E+00  0.00000000000E+00  0.10879020573E+04  0.10879020573E+04  0.00000000000E+00 0. -1.
         -2   -1    0    0    0  501 -0.00000000000E+00 -0.00000000000E+00 -0.54920844047E+02  0.54920844047E+02  0.00000000000E+00 0.  1.
         23    2    1    2    0    0  0.89018035429E+02  0.11453736616E+03  0.11583245456E+03  0.20531500638E+03  0.87715879062E+02 0.  0.
        -24    2    1    2    0    0 -0.10874659683E+03 -0.10991502042E+03  0.83376236631E+03  0.85169488516E+03  0.79481821218E+02 0.  0.
         11    1    4    4    0    0 -0.11030708269E+03 -0.63539155919E+02  0.62642391070E+03  0.63922749684E+03  0.00000000000E+00 0. -1.
        -12    1    4    4    0    0  0.15604858581E+01 -0.46375864503E+02  0.20733845561E+03  0.21246738832E+03  0.00000000000E+00 0.  1.
        -13    1    3    3    0    0  0.89244462599E+02  0.60344595444E+02  0.46558231838E+02  0.11736146410E+03  0.00000000000E+00 0.  1.
         13    1    3    3    0    0 -0.22642717025E+00  0.54192770718E+02  0.69274222717E+02  0.87953542285E+02  0.00000000000E+00 0. -1.
         21    1    1    2  502  501  0.19728561404E+02 -0.46223457398E+01  0.83386392411E+02  0.85813009821E+02  0.00000000000E+00 0. -1.
<scales pt_clust_5="13000.00000" pt_clust_6="13000.00000" pt_clust_7="13000.00000" pt_clust_8="13000.00000" pt_clust_9="20.26283"></scales>
<clustering>
<clus scale="   20.263">  1  9  2 -1</clus>
<clus scale="   79.482">  5  6 -1 -1</clus>
<clus scale="   87.716">  7  8 -1 -1</clus>
<clus scale="  166.624">  1  5  2 -1</clus>
<clus scale="   20.263">  1  5  2 -1</clus>
</clustering>
</event>
<event>
 9    1  0.2674825E-005  0.1147483E+03  0.7546771E-02  0.1256761E+00
         -2   -1    0    0    0  501 -0.00000000000E+00  0.00000000000E+00  0.46631395948E+02  0.46631395948E+02  0.00000000000E+00 0.  1.
          1   -1    0    0  502    0  0.00000000000E+00 -0.00000000000E+00 -0.69429535196E+03  0.69429535196E+03  0.00000000000E+00 0. -1.
        -24    2    1    2    0    0  0.43923352090E+01 -0.82916834906E+02 -0.70778937559E+02  0.13380101997E+03  0.77450376517E+02 0.  0.
         23    2    1    2    0    0 -0.45099297088E+02  0.34192790122E+02 -0.22026952555E+03  0.24490245555E+03  0.90859536389E+02 0.  0.
         11    1    3    3    0    0  0.28845117857E+02 -0.43345347084E+02 -0.37346543536E+01  0.52199689473E+02  0.00000000000E+00 0. -1.
        -12    1    3    3    0    0 -0.24452782648E+02 -0.39571487823E+02 -0.67044283205E+02  0.81601330493E+02  0.00000000000E+00 0.  1.
        -11    1    4    4    0    0 -0.57247726725E+02  0.52016762222E+02 -0.12323101703E+03  0.14549546153E+03  0.00000000000E+00 0. -1.
         11    1    4    4    0    0  0.12148429637E+02 -0.17823972099E+02 -0.97038508517E+02  0.99406994016E+02  0.00000000000E+00 0.  1.
         21    1    1    2  502  501  0.40706961879E+02  0.48724044784E+02 -0.35661549290E+03  0.36222327239E+03  0.00000000000E+00 0.  1.
<scales pt_clust_5="13000.00000" pt_clust_6="13000.00000" pt_clust_7="13000.00000" pt_clust_8="13000.00000" pt_clust_9="63.49086"></scales>
<clustering>
<clus scale="   63.491">  2  9  1 -1</clus>
<clus scale="   77.450">  5  6 -1 -1</clus>
<clus scale="   90.860">  7  8 -1 -1</clus>
<clus scale="  104.452">  1  5  2 -1</clus>
<clus scale="   63.491">  2  5  1 -1</clus>
</clustering>
</event>
<event>
 9    1  0.2674825E-005  0.1353864E+03  0.7546771E-02  0.1220525E+00
         -4   -1    0    0    0  501 -0.00000000000E+00  0.00000000000E+00  0.44493136283E+03  0.44493136283E+03  0.00000000000E+00 0.  1.
          3   -1    0    0  502    0  0.00000000000E+00 -0.00000000000E+00 -0.98746161574E+02  0.98746161574E+02  0.00000000000E+00 0. -1.
         23    2    1    2    0    0 -0.20071011820E+02 -0.36599673189E+02  0.21210039538E+03  0.23384052140E+03  0.89176398980E+02 0.  0.
        -24    2    1    2    0    0  0.20340745889E+02  0.12059774571E+03 -0.27816736341E+01  0.14925001051E+03  0.85500091902E+02 0.  0.
         13    1    4    4    0    0  0.28610911617E+02  0.11511835502E+03 -0.28232530399E+02  0.12193398090E+03  0.00000000000E+00 0. -1.
        -14    1    4    4    0    0 -0.82701657283E+01  0.54793906934E+01  0.25450856765E+02  0.27316029609E+02  0.00000000000E+00 0.  1.
        -13    1    3    3    0    0 -0.53204036938E+02 -0.33273592623E+02  0.11245868637E+03  0.12878182190E+03  0.00000000000E+00 0.  1.
         13    1    3    3    0    0  0.33133025118E+02 -0.33260805662E+01  0.99641709016E+02  0.10505869950E+03  0.00000000000E+00 0. -1.
         21    1    1    2  502  501 -0.26973406894E+00 -0.83998072525E+02  0.13686647951E+03  0.16058699249E+03  0.00000000000E+00 0.  1.
<scales pt_clust_5="13000.00000" pt_clust_6="13000.00000" pt_clust_7="13000.00000" pt_clust_8="13000.00000" pt_clust_9="83.99851"></scales>
<clustering>
<clus scale="   83.999">  1  9  2 -1</clus>
<clus scale="   85.500">  5  6 -1 -1</clus>
<clus scale="   89.176">  7  8 -1 -1</clus>
<clus scale="  132.994">  2  5  1 -1</clus>
<clus scale="  132.994">  2  5  1 -1</clus>
</clustering>
</event>
<event>
 9    1  0.2674825E-005  0.1023563E+03  0.7546771E-02  0.1280606E+00
          1   -1    0    0  502    0  0.00000000000E+00  0.00000000000E+00  0.92025789473E+02  0.92025789473E+02  0.00000000000E+00 0. -1.
         -2   -1    0    0    0  501 -0.00000000000E+00 -0.00000000000E+00 -0.42979991855E+03  0.42979991855E+03  0.00000000000E+00 0.  1.
         23    2    1    2    0    0  0.47610000100E+01  0.19686341976E+01 -0.35384839954E+03  0.36575585187E+03  0.92423539654E+02 0.  0.
        -24    2    1    2    0    0 -0.35784102123E+02 -0.55329566696E+00  0.41554179951E+02  0.11589944620E+03  0.10210349483E+03 0.  0.
         11    1    4    4    0    0 -0.55332163276E+02  0.19858836627E+01  0.64923403537E+02  0.85326668478E+02  0.00000000000E+00 0. -1.
        -12    1    4    4    0    0  0.19548061153E+02 -0.25391793297E+01 -0.23369223586E+02  0.30572777720E+02  0.00000000000E+00 0.  1.
        -11    1    3    3    0    0  0.17581521984E+02  0.40678502754E+02 -0.25507786285E+03  0.25889875747E+03  0.00000000000E+00 0.  1.
         11    1    3    3    0    0 -0.12820521974E+02 -0.38709868557E+02 -0.98770536688E+02  0.10685709441E+03  0.00000000000E+00 0. -1.
         21    1    1    2  502  501  0.31023102113E+02 -0.14153385307E+01 -0.25479909485E+02  0.40170409945E+02  0.00000000000E+00 0. -1.
<scales pt_clust_5="13000.00000" pt_clust_6="13000.00000" pt_clust_7="13000.00000" pt_clust_8="13000.00000" pt_clust_9="31.05537"></scales>
<clustering>
<clus scale="   31.055">  1  9  2 -1</clus>
<clus scale="   92.424">  7  8 -1 -1</clus>
<clus scale="   92.703">  2  7  1 -1</clus>
<clus scale="  102.103">  5  6 -1 -1</clus>
<clus scale="   31.055">  1  5  2 -1</clus>
</clustering>
</event>
<event>
 9    1  0.2674825E-005  0.1396524E+03  0.7546771E-02  0.1215773E+00
          1   -1    0    0  502    0  0.00000000000E+00  0.00000000000E+00  0.10747473188E+04  0.10747473188E+04  0.00000000000E+00 0. -1.
         -2   -1    0    0    0  501 -0.00000000000E+00 -0.00000000000E+00 -0.32244990081E+02  0.32244990081E+02  0.00000000000E+00 0.  1.
        -24    2    1    2    0    0 -0.19773671786E+02  0.94153437601E+02  0.19251799010E+03  0.22995110685E+03  0.80984363423E+02 0.  0.
         23    2    1    2    0    0  0.50028609704E+02 -0.12558378114E+03  0.53730329603E+03  0.56133142684E+03  0.90133184525E+02 0.  0.
         13    1    3    3    0    0 -0.61829984230E+01  0.86643894974E+02  0.19569029525E+03  0.21410297910E+03  0.00000000000E+00 0. -1.
        -14    1    3    3    0    0 -0.13590673363E+02  0.75095426274E+01 -0.31723051505E+01  0.15848127741E+02  0.00000000000E+00 0.  1.
        -13    1    4    4    0    0  0.29820895118E+02 -0.93272535022E+01  0.43088930355E+02  0.53225363903E+02  0.00000000000E+00 0. -1.
         13    1    4    4    0    0  0.20207714586E+02 -0.11625652764E+03  0.49421436568E+03  0.50810606293E+03  0.00000000000E+00 0.  1.
         21    1    1    2  502  501 -0.30254937918E+02  0.31430343543E+02  0.31268104259E+03  0.31570977521E+03  0.00000000000E+00 0. -1.
<scales pt_clust_5="13000.00000" pt_clust_6="13000.00000" pt_clust_7="13000.00000" pt_clust_8="13000.00000" pt_clust_9="43.62600"></scales>
<clustering>
<clus scale="   43.626">  1  9  2 -1</clus>
<clus scale="   80.984">  5  6 -1 -1</clus>
<clus scale="   90.133">  7  8 -1 -1</clus>
<clus scale="  133.930">  2  5  1 -1</clus>
<clus scale="   43.626">  1  5  2 -1</clus>
</clustering>
</event>
<event>
 9    1  0.2674825E-005  0.1596504E+03  0.7546771E-02  0.1189567E+00
         -2   -1    0    0    0  501 -0.00000000000E+00  0.00000000000E+00  0.17708679894E+03  0.17708679894E+03  0.00000000000E+00 0.  1.
          1   -1    0    0  502    0  0.00000000000E+00 -0.00000000000E+00 -0.35314862065E+03  0.35314862065E+03  0.00000000000E+00 0. -1.
         23    2    1    2    0    0  0.11650694834E+03 -0.58307340273E+02  0.10535922929E+03  0.19111958546E+03  0.91937553849E+02 0.  0.
        -24    2    1    2    0    0 -0.10568840138E+03  0.83043467354E+02 -0.25228251358E+03  0.29939214718E+03  0.89010872831E+02 0.  0.
         13    1    4    4    0    0 -0.25499504965E+02  0.60174167555E+02 -0.17049319350E+03  0.18258993462E+03  0.00000000000E+00 0. -1.
        -14    1    4    4    0    0 -0.80188896412E+02  0.22869299799E+02 -0.81789320077E+02  0.11680221256E+03  0.00000000000E+00 0.  1.
        -11    1    3    3    0    0  0.57225118258E+02  0.14202551027E+02  0.14692217007E+02  0.60764198801E+02  0.00000000000E+00 0. -1.
         11    1    3    3    0    0  0.59281830081E+02 -0.72509891299E+02  0.90667012281E+02  0.13035538665E+03  0.00000000000E+00 0.  1.
         21    1    1    2  502  501 -0.10818546962E+02 -0.24736127082E+02 -0.29138537428E+02  0.39723686949E+02  0.00000000000E+00 0.  1.
<scales pt_clust_5="13000.00000" pt_clust_6="13000.00000" pt_clust_7="13000.00000" pt_clust_8="13000.00000" pt_clust_9="26.99846"></scales>
<clustering>
<clus scale="   26.998">  2  9  1 -1</clus>
<clus scale="   89.011">  5  6 -1 -1</clus>
<clus scale="   91.938">  7  8 -1 -1</clus>
<clus scale="  157.983">  2  5  1 -1</clus>
<clus scale="   26.998">  2  5  1 -1</clus>
</clustering>
</event>
<event>
 9    1  0.2674825E-005  0.9726031E+02  0.7546771E-02  0.1292476E+00
         -2   -1    0    0    0  501 -0.00000000000E+00  0.00000000000E+00  0.15796373938E+02  0.15796373938E+02  0.00000000000E+00 0.  1.
          1   -1    0    0  502    0  0.00000000000E+00 -0.00000000000E+00 -0.77489573661E+03  0.77489573661E+03  0.00000000000E+00 0. -1.
         23    2    1    2    0    0 -0.33841593694E+01  0.24789899056E+02 -0.22436239911E+03  0.24496321595E+03  0.95092057528E+02 0.  0.
        -24    2    1    2    0    0  0.17520395113E+02 -0.77940899405E+01 -0.39742009226E+03  0.40664397869E+03  0.83957629731E+02 0.  0.
         11    1    4    4    0    0  0.17053407732E+02  0.37257495902E+02 -0.17998488059E+03  0.18459007816E+03  0.00000000000E+00 0. -1.
        -12    1    4    4    0    0  0.46698738044E+00 -0.45051585843E+02 -0.21743521167E+03  0.22205390053E+03  0.00000000000E+00 0.  1.
        -11    1    3    3    0    0 -0.17210870139E+02  0.48132299446E+02 -0.62024651287E+02  0.80374060916E+02  0.00000000000E+00 0.  1.
         11    1    3    3    0    0  0.13826710769E+02 -0.23342400391E+02 -0.16233774783E+03  0.16458915504E+03  0.00000000000E+00 0. -1.
         21    1    1    2  502  501 -0.14136235743E+02 -0.16995809115E+02 -0.13731687130E+03  0.13908491590E+03  0.00000000000E+00 0.  1.
<scales pt_clust_5="13000.00000" pt_clust_6="13000.00000" pt_clust_7="13000.00000" pt_clust_8="13000.00000" pt_clust_9="22.10635"></scales>
<clustering>
<clus scale="   22.106">  2  9  1 -1</clus>
<clus scale="   83.958">  5  6 -1 -1</clus>
<clus scale="   86.406">  2  5  1 -1</clus>
<clus scale="   95.092">  7  8 -1 -1</clus>
<clus scale="   22.106">  2  5  1 -1</clus>
</clustering>
</event>
<event>
 9    1  0.2674825E-005  0.1043640E+03  0.7546771E-02  0.1275698E+00
         -4   -1    0    0    0  501 -0.00000000000E+00  0.00000000000E+00  0.19043947497E+03  0.19043947497E+03  0.00000000000E+00 0.  1.
          3   -1    0    0  502    0  0.00000000000E+00 -0.00000000000E+00 -0.22319996299E+03  0.22319996299E+03  0.00000000000E+00 0. -1.
        -24    2    1    2    0    0 -0.95224898275E+02  0.67901743777E+02  0.76018270291E+02  0.16102477805E+03  0.80447334756E+02 0.  0.
         23    2    1    2    0    0  0.15952919273E+01 -0.46499425033E+02 -0.11819272012E+03  0.15610981490E+03  0.90752486094E+02 0.  0.
         11    1    3    3    0    0 -0.10410471977E+03  0.72190501613E+02  0.55599481382E+02  0.13834942548E+03  0.00000000000E+00 0. -1.
        -12    1    3    3    0    0  0.88798214967E+01 -0.42887578358E+01  0.20418788909E+02  0.22675352568E+02  0.00000000000E+00 0.  1.
        -11    1    4    4    0    0 -0.41952658961E+02 -0.65837960990E+01 -0.56696874553E+02  0.70837190438E+02  0.00000000000E+00 0. -1.
         11    1    4    4    0    0  0.43547950888E+02 -0.39915628934E+02 -0.61495845569E+02  0.85272624458E+02  0.00000000000E+00 0.  1.
         21    1    1    2  502  501  0.93629606348E+02 -0.21402318744E+02  0.94139618125E+01  0.96504845005E+02  0.00000000000E+00 0.  1.
<scales pt_clust_5="13000.00000" pt_clust_6="13000.00000" pt_clust_7="13000.00000" pt_clust_8="13000.00000" pt_clust_9="96.04459"></scales>
<clustering>
<clus scale="   80.447">  5  6 -1 -1</clus>
<clus scale="   90.752">  7  8 -1 -1</clus>
<clus scale="   96.045">  1  9  2 -1</clus>
<clus scale="   96.045">  1  5  2 -1</clus>
<clus scale="  104.364">  2  5  1 -1</clus>
</clustering>
</event>
<event>
 9    1  0.2674825E-005  0.9774580E+02  0.7546771E-02  0.1293445E+00
         -2   -1    0    0    0  501 -0.00000000000E+00  0.00000000000E+00  0.33307172237E+03  0.33307172237E+03  0.00000000000E+00 0.  1.
          1   -1    0    0  502    0  0.00000000000E+00 -0.00000000000E+00 -0.27531903651E+03  0.27531903651E+03  0.00000000000E+00 0. -1.
         23    2    1    2    0    0  0.22760518975E+02 -0.58405698978E+01  0.30243481304E+03  0.31784464210E+03  0.94901248128E+02 0.  0.
        -24    2    1    2    0    0 -0.76869354158E+01  0.47990259303E+02 -0.91877383978E+02  0.13131955247E+03  0.80257194134E+02 0.  0.
         11    1    4    4    0    0 -0.13347164021E+02  0.62630363159E+02 -0.36388663071E+02  0.73653540153E+02  0.00000000000E+00 0. -1.
        -12    1    4    4    0    0  0.56602286056E+01 -0.14640103856E+02 -0.55488720907E+02  0.57666012318E+02  0.00000000000E+00 0.  1.
        -11    1    3    3    0    0  0.21662336416E+02 -0.49531867972E+02  0.16683311532E+03  0.17537374698E+03  0.00000000000E+00 0.  1.
         11    1    3    3    0    0  0.10981825585E+01  0.43691298074E+02  0.13560169772E+03  0.14247089512E+03  0.00000000000E+00 0. -1.
         21    1    1    2  502  501 -0.15073583559E+02 -0.42149689405E+02 -0.15280474319E+03  0.15922656431E+03  0.00000000000E+00 0.  1.
<scales pt_clust_5="13000.00000" pt_clust_6="13000.00000" pt_clust_7="13000.00000" pt_clust_8="13000.00000" pt_clust_9="44.76393"></scales>
<clustering>
<clus scale="   44.764">  2  9  1 -1</clus>
<clus scale="   80.257">  5  6 -1 -1</clus>
<clus scale="   83.602">  2  5  1 -1</clus>
<clus scale="   94.901">  7  8 -1 -1</clus>
<clus scale="   44.764">  2  5  1 -1</clus>
</clustering>
</event>
<event>
 9    1  0.2674825E-005  0.9853092E+02  0.7546771E-02  0.1287914E+00
         -2   -1    0    0    0  501 -0.00000000000E+00  0.00000000000E+00  0.18784419309E+03  0.18784419309E+03  0.00000000000E+00 0.  1.
          1   -1    0    0  502    0  0.00000000000E+00 -0.00000000000E+00 -0.10928528951E+03  0.10928528951E+03  0.00000000000E+00 0. -1.
        -24    2    1    2    0    0 -0.28856940178E+02 -0.29084521499E+02  0.13714450843E+03  0.16471668034E+03  0.81512797775E+02 0.  0.
         23    2    1    2    0    0  0.77932355470E+01  0.34230516351E+02 -0.45224251315E+02  0.10694347396E+03  0.90328350731E+02 0.  0.
         11    1    3    3    0    0 -0.36556247261E+02 -0.53823729496E+02  0.92345710119E+02  0.11296496469E+03  0.00000000000E+00 0. -1.
        -12    1    3    3    0    0  0.76993070827E+01  0.24739207997E+02  0.44798798315E+02  0.51751715647E+02  0.00000000000E+00 0.  1.
        -11    1    4    4    0    0 -0.14777920583E+02  0.59671651141E+02 -0.37690249095E+02  0.72108583147E+02  0.00000000000E+00 0.  1.
         11    1    4    4    0    0  0.22571156130E+02 -0.25441134791E+02 -0.75340022206E+01  0.34834890813E+02  0.00000000000E+00 0. -1.
         21    1    1    2  502  501  0.21063704631E+02 -0.51459948518E+01 -0.13361353537E+02  0.25469328302E+02  0.00000000000E+00 0.  1.
<scales pt_clust_5="13000.00000" pt_clust_6="13000.00000" pt_clust_7="13000.00000" pt_clust_8="13000.00000" pt_clust_9="21.68319"></scales>
<clustering>
<clus scale="   21.683">  2  9  1 -1</clus>
<clus scale="   81.513">  5  6 -1 -1</clus>
<clus scale="   90.328">  7  8 -1 -1</clus>
<clus scale="   90.518">  1  5  2 -1</clus>
<clus scale="   21.683">  2  5  1 -1</clus>
</clustering>
</event>
<event>
 9    1  0.2674825E-005  0.1921552E+03  0.7546771E-02  0.1191719E+00
         -2   -1    0    0    0  501 -0.00000000000E+00  0.00000000000E+00  0.94075021634E+03  0.94075021634E+03  0.00000000000E+00 0.  1.
          1   -1    0    0  502    0  0.00000000000E+00 -0.00000000000E+00 -0.70832935048E+02  0.70832935048E+02  0.00000000000E+00 0. -1.
         23    2    1    2    0    0 -0.17067641601E+03  0.24538058739E+02  0.63192793942E+03  0.66139851409E+03  0.91556094934E+02 0.  0.
        -24    2    1    2    0    0  0.12346531948E+02 -0.11741426010E+02  0.13694256928E+03  0.16192270209E+03  0.84707710600E+02 0.  0.
         11    1    4    4    0    0  0.41671368992E+02  0.16426843013E+02  0.59749208563E+02  0.74674708496E+02  0.00000000000E+00 0. -1.
        -12    1    4    4    0    0 -0.29324837043E+02 -0.28168269023E+02  0.77193360714E+02  0.87247993591E+02  0.00000000000E+00 0.  1.
        -11    1    3    3    0    0 -0.11890538939E+03  0.24699844518E+02  0.55852103160E+03  0.57157179486E+03  0.00000000000E+00 0.  1.
         11    1    3    3    0    0 -0.51771026622E+02 -0.16178577891E+00  0.73406907817E+02  0.89826719229E+02  0.00000000000E+00 0. -1.
         21    1    1    2  502  501  0.15832988406E+03 -0.12796632729E+02  0.10104677260E+03  0.18826193521E+03  0.00000000000E+00 0. -1.
<scales pt_clust_5="13000.00000" pt_clust_6="13000.00000" pt_clust_7="13000.00000" pt_clust_8="13000.00000" pt_clust_9="168.94113"></scales>
<clustering>
<clus scale="   84.708">  5  6 -1 -1</clus>
<clus scale="   86.404">  2  5  1 -1</clus>
<clus scale="   91.556">  7  8 -1 -1</clus>
<clus scale="  168.941">  2  9  1 -1</clus>
<clus scale="   86.404">  2  5  1 -1</clus>
</clustering>
</event>
<event>
 9    1  0.2674825E-005  0.1120073E+03  0.7546771E-02  0.1260954E+00
         -4   -1    0    0    0  501 -0.00000000000E+00  0.00000000000E+00  0.60200868120E+02  0.60200868120E+02  0.00000000000E+00 0.  1.
          3   -1    0    0  502    0  0.00000000000E+00 -0.00000000000E+00 -0.31257307112E+03  0.31257307112E+03  0.00000000000E+00 0. -1.
        -24    2    1    2    0    0 -0.49578468748E+02  0.66432300227E+02 -0.81533604514E+02  0.14153519505E+03  0.80704446573E+02 0.  0.
         23    2    1    2    0    0  0.20245745741E+02 -0.52193713411E+02 -0.16691986603E+03  0.19839818302E+03  0.91463235295E+02 0.  0.
         11    1    3    3    0    0 -0.70682264510E+01  0.68922310076E+02 -0.67422531610E+02  0.96674931704E+02  0.00000000000E+00 0. -1.
        -12    1    3    3    0    0 -0.42510242297E+02 -0.24900098490E+01 -0.14111072904E+02  0.44860263348E+02  0.00000000000E+00 0.  1.
        -11    1    4    4    0    0 -0.21100286583E+02  0.11644303266E+02 -0.14686462974E+02  0.28222403992E+02  0.00000000000E+00 0.  1.
         11    1    4    4    0    0  0.41346032324E+02 -0.63838016677E+02 -0.15223340306E+03  0.17017577903E+03  0.00000000000E+00 0. -1.
         21    1    1    2  502  501  0.29332723006E+02 -0.14238586816E+02 -0.39187324533E+01  0.32840561163E+02  0.00000000000E+00 0.  1.
<scales pt_clust_5="13000.00000" pt_clust_6="13000.00000" pt_clust_7="13000.00000" pt_clust_8="13000.00000" pt_clust_9="32.60592"></scales>
<clustering>
<clus scale="   32.606">  1  9  2 -1</clus>
<clus scale="   80.704">  5  6 -1 -1</clus>
<clus scale="   91.463">  7  8 -1 -1</clus>
<clus scale="  103.408">  1  5  2 -1</clus>
<clus scale="  112.007">  2  5  1 -1</clus>
</clustering>
</event>
<event>
 9    1  0.2674825E-005  0.9482012E+02  0.7546771E-02  0.1299342E+00
          1   -1    0    0  502    0  0.00000000000E+00  0.00000000000E+00  0.23750474280E+03  0.23750474280E+03  0.00000000000E+00 0. -1.
         -2   -1    0    0    0  501 -0.00000000000E+00 -0.00000000000E+00 -0.10160474710E+03  0.10160474710E+03  0.00000000000E+00 0.  1.
         23    2    1    2    0    0 -0.13270483280E+02  0.77465583853E+01 -0.63099110719E+02  0.11386078267E+03  0.93523607513E+02 0.  0.
        -24    2    1    2    0    0  0.29090604916E+01 -0.25819594103E+02  0.15809725791E+03  0.17934712867E+03  0.80594885278E+02 0.  0.
         13    1    4    4    0    0 -0.87971401507E+01 -0.38356124638E+02  0.15733101166E+03  0.16217777037E+03  0.00000000000E+00 0. -1.
        -14    1    4    4    0    0  0.11706200642E+02  0.12536530535E+02  0.76624624983E+00  0.17169358306E+02  0.00000000000E+00 0.  1.
        -11    1    3    3    0    0  0.37677023505E+02  0.16425639248E+02 -0.16557404008E+02  0.44311481045E+02  0.00000000000E+00 0.  1.
         11    1    3    3    0    0 -0.50947506785E+02 -0.86790808631E+01 -0.46541706711E+02  0.69549301620E+02  0.00000000000E+00 0. -1.
         21    1    1    2  502  501  0.10361422789E+02  0.18073035718E+02  0.40901848511E+02  0.45901578555E+02  0.00000000000E+00 0. -1.
<scales pt_clust_5="13000.00000" pt_clust_6="13000.00000" pt_clust_7="13000.00000" pt_clust_8="13000.00000" pt_clust_9="20.83252"></scales>
<clustering>
<clus scale="   20.833">  1  9  2 -1</clus>
<clus scale="   80.595">  5  6 -1 -1</clus>
<clus scale="   82.096">  1  5  2 -1</clus>
<clus scale="   93.524">  7  8 -1 -1</clus>
<clus scale="   20.833">  1  5  2 -1</clus>
</clustering>
</event>
<event>
 9    1  0.4429947E-005  0.1455607E+03  0.7546771E-02  0.1215703E+00
          1   -1    0    0  502    0  0.00000000000E+00  0.00000000000E+00  0.49489817477E+03  0.49489817477E+03  0.00000000000E+00 0. -1.
         -2   -1    0    0    0  501 -0.00000000000E+00 -0.00000000000E+00 -0.23881652166E+03  0.23881652166E+03  0.00000000000E+00 0.  1.
         23    2    1    2    0    0 -0.86516414623E+02 -0.86296389109E+00 -0.20264485208E+03  0.24912125932E+03  0.11623524020E+03 0.  0.
        -24    2    1    2    0    0  0.10726708789E+03  0.77909810288E+01  0.40635802446E+03  0.42783918055E+03  0.79703154551E+02 0.  0.
         11    1    4    4    0    0  0.90148117218E+02  0.36369513168E+02  0.33947946113E+03  0.35312282432E+03  0.00000000000E+00 0. -1.
        -12    1    4    4    0    0  0.17118970675E+02 -0.28578532139E+02  0.66878563329E+02  0.74716356235E+02  0.00000000000E+00 0.  1.
        -11    1    3    3    0    0 -0.28151819850E+02 -0.50045764417E+02 -0.41601294190E+02  0.70906778063E+02  0.00000000000E+00 0. -1.
         11    1    3    3    0    0 -0.58364594774E+02  0.49182800526E+02 -0.16104355789E+03  0.17821448126E+03  0.00000000000E+00 0.  1.
         21    1    1    2  502  501 -0.20750673269E+02 -0.69280171377E+01  0.52368480739E+02  0.56754256559E+02  0.00000000000E+00 0.  1.
<scales pt_clust_5="13000.00000" pt_clust_6="13000.00000" pt_clust_7="13000.00000" pt_clust_8="13000.00000" pt_clust_9="21.87665"></scales>
<clustering>
<clus scale="   21.877">  1  9  2 -1</clus>
<clus scale="   79.703">  5  6 -1 -1</clus>
<clus scale="  116.235">  7  8 -1 -1</clus>
<clus scale="  118.448">  1  5  2 -1</clus>
<clus scale="   21.877">  1  5  2 -1</clus>
</clustering>
</event>
<event>
 9    1  0.2674825E-005  0.1166109E+03  0.7546771E-02  0.1256855E+00
          1   -1    0    0  502    0  0.00000000000E+00  0.00000000000E+00  0.13992883978E+03  0.13992883978E+03  0.00000000000E+00 0. -1.
         -2   -1    0    0    0  501 -0.00000000000E+00 -0.00000000000E+00 -0.21339259147E+03  0.21339259147E+03  0.00000000000E+00 0.  1.
         23    2    1    2    0    0 -0.73481152645E+02  0.74724577749E+02 -0.12230942472E+03  0.18615177811E+03  0.93325488508E+02 0.  0.
        -24    2    1    2    0    0  0.21290620521E+02 -0.19498654085E+02 -0.10725150651E+01  0.76254419047E+02  0.70569810134E+02 0.  0.
         11    1    4    4    0    0 -0.12115714620E+02 -0.33169882283E+02  0.12833300706E+02  0.37572932257E+02  0.00000000000E+00 0. -1.
        -12    1    4    4    0    0  0.33406335141E+02  0.13671228198E+02 -0.13905815771E+02  0.38681486789E+02  0.00000000000E+00 0.  1.
        -13    1    3    3    0    0 -0.28960597691E+02  0.23380228035E+02 -0.11123519568E+03  0.11729714421E+03  0.00000000000E+00 0.  1.
         13    1    3    3    0    0 -0.44520554954E+02  0.51344349715E+02 -0.11074229037E+02  0.68854633902E+02  0.00000000000E+00 0. -1.
         21    1    1    2  502  501  0.52190532125E+02 -0.55225923665E+02  0.49918188086E+02  0.90915234091E+02  0.00000000000E+00 0. -1.
<scales pt_clust_5="13000.00000" pt_clust_6="13000.00000" pt_clust_7="13000.00000" pt_clust_8="13000.00000" pt_clust_9="75.98522"></scales>
<clustering>
<clus scale="   70.570">  5  6 -1 -1</clus>
<clus scale="   75.985">  1  9  2 -1</clus>
<clus scale="   93.325">  7  8 -1 -1</clus>
<clus scale="   99.341">  1  5  2 -1</clus>
<clus scale="   75.985">  1  5  2 -1</clus>
</clustering>
</event>
<event>
 9    1  0.2674825E-005  0.1231727E+03  0.7546771E-02  0.1240576E+00
          1   -1    0    0  502    0  0.00000000000E+00  0.00000000000E+00  0.23380738625E+03  0.23380738625E+03  0.00000000000E+00 0. -1.
         -2   -1    0    0    0  501 -0.00000000000E+00 -0.00000000000E+00 -0.12743622818E+03  0.12743622818E+03  0.00000000000E+00 0.  1.
        -24    2    1    2    0    0 -0.54170172583E+02  0.40318784197E+02 -0.11265842326E+02  0.10707223165E+03  0.82325765294E+02 0.  0.
         23    2    1    2    0    0  0.87470470749E+02 -0.62167785468E+02  0.12056996492E+02  0.14132889992E+03  0.91173296449E+02 0.  0.
         11    1    3    3    0    0 -0.59407813196E+02  0.49118420029E+02  0.15311965638E+02  0.78589845060E+02  0.00000000000E+00 0. -1.
        -12    1    3    3    0    0  0.52376406127E+01 -0.87996358319E+01 -0.26577807963E+02  0.28482386594E+02  0.00000000000E+00 0.  1.
        -11    1    4    4    0    0  0.46827602940E+02  0.16617744184E+02 -0.82830011917E+01  0.50374417392E+02  0.00000000000E+00 0. -1.
         11    1    4    4    0    0  0.40642867809E+02 -0.78785529652E+02  0.20339997684E+02  0.90954482529E+02  0.00000000000E+00 0.  1.
         21    1    1    2  502  501 -0.33300298166E+02  0.21849001272E+02  0.10558000390E+03  0.11284248286E+03  0.00000000000E+00 0. -1.
<scales pt_clust_5="13000.00000" pt_clust_6="13000.00000" pt_clust_7="13000.00000" pt_clust_8="13000.00000" pt_clust_9="39.82824"></scales>
<clustering>
<clus scale="   39.828">  1  9  2 -1</clus>
<clus scale="   82.326">  5  6 -1 -1</clus>
<clus scale="   91.173">  7  8 -1 -1</clus>
<clus scale="  116.775">  2  5  1 -1</clus>
<clus scale="   39.828">  1  5  2 -1</clus>
</clustering>
</event>
<event>
 9    1  0.2674825E-005  0.1017978E+03  0.7546771E-02  0.1282459E+00
         -2   -1    0    0    0  501 -0.00000000000E+00  0.00000000000E+00  0.12854358154E+03  0.12854358154E+03  0.00000000000E+00 0.  1.
          1   -1    0    0  502    0  0.00000000000E+00 -0.00000000000E+00 -0.15003052309E+03  0.15003052309E+03  0.00000000000E+00 0. -1.
         23    2    1    2    0    0 -0.23633188470E+02  0.19146675364E+02  0.99752459633E+01  0.98413990221E+02  0.93062802259E+02 0.  0.
        -24    2    1    2    0    0 -0.19558701094E+02 -0.70708528920E+02 -0.11255840325E+02  0.10992863619E+03  0.81088669143E+02 0.  0.
         13    1    4    4    0    0 -0.37538048769E+02 -0.27308543241E+02  0.22983034087E+02  0.51798470008E+02  0.00000000000E+00 0. -1.
        -14    1    4    4    0    0  0.17979347675E+02 -0.43399985679E+02 -0.34238874412E+02  0.58130166185E+02  0.00000000000E+00 0.  1.
        -11    1    3    3    0    0  0.18213630424E+02  0.25954559779E+02 -0.27391319794E+02  0.41900595540E+02  0.00000000000E+00 0. -1.
         11    1    3    3    0    0 -0.41846818894E+02 -0.68078844152E+01  0.37366565757E+02  0.56513394680E+02  0.00000000000E+00 0.  1.
         21    1    1    2  502  501  0.43191889564E+02  0.51561853556E+02 -0.20206347185E+02  0.70231478219E+02  0.00000000000E+00 0. -1.
<scales pt_clust_5="13000.00000" pt_clust_6="13000.00000" pt_clust_7="13000.00000" pt_clust_8="13000.00000" pt_clust_9="67.26191"></scales>
<clustering>
<clus scale="   67.262">  2  9  1 -1</clus>
<clus scale="   81.089">  5  6 -1 -1</clus>
<clus scale="   90.981">  2  5  1 -1</clus>
<clus scale="   93.063">  7  8 -1 -1</clus>
<clus scale="   67.262">  2  5  1 -1</clus>
</clustering>
</event>
<event>
 9    1  0.2674825E-005  0.1221891E+03  0.7546771E-02  0.1242860E+00
          1   -1    0    0  502    0  0.00000000000E+00  0.00000000000E+00  0.29009128572E+03  0.29009128572E+03  0.00000000000E+00 0. -1.
         -2   -1    0    0    0  501 -0.00000000000E+00 -0.00000000000E+00 -0.26029665250E+03  0.26029665250E+03  0.00000000000E+00 0.  1.
         23    2    1    2    0    0  0.92071660170E+02 -0.16319705247E+02 -0.17885394122E+03  0.22149666140E+03  0.91260699830E+02 0.  0.
        -24    2    1    2    0    0 -0.45887355362E+02  0.42999141455E+02 -0.11279472012E+02  0.10258809978E+03  0.80265286270E+02 0.  0.
         13    1    4    4    0    0 -0.13368771458E+00 -0.21378463563E+02 -0.99888938411E+01  0.23597342581E+02  0.00000000000E+00 0. -1.
        -14    1    4    4    0    0 -0.45753667647E+02  0.64377605019E+02 -0.12905781712E+01  0.78990757201E+02  0.00000000000E+00 0.  1.
        -11    1    3    3    0    0 -0.11951262289E+02  0.16644371702E+02 -0.39540047959E+02  0.44534067547E+02  0.00000000000E+00 0. -1.
         11    1    3    3    0    0  0.10402292246E+03 -0.32964076950E+02 -0.13931389326E+03  0.17696259385E+03  0.00000000000E+00 0.  1.
         21    1    1    2  502  501 -0.46184304809E+02 -0.26679436208E+02  0.21992804644E+03  0.22630317704E+03  0.00000000000E+00 0. -1.
<scales pt_clust_5="13000.00000" pt_clust_6="13000.00000" pt_clust_7="13000.00000" pt_clust_8="13000.00000" pt_clust_9="53.33650"></scales>
<clustering>
<clus scale="   53.337">  1  9  2 -1</clus>
<clus scale="   80.265">  5  6 -1 -1</clus>
<clus scale="   91.261">  7  8 -1 -1</clus>
<clus scale="  114.211">  1  5  2 -1</clus>
<clus scale="   53.337">  1  5  2 -1</clus>
</clustering>
</event>
<event>
 9    1  0.2674825E-005  0.1261053E+03  0.7546771E-02  0.1236915E+00
         -2   -1    0    0    0  501 -0.00000000000E+00  0.00000000000E+00  0.30950040557E+03  0.30950040557E+03  0.00000000000E+00 0.  1.
          1   -1    0    0  502    0  0.00000000000E+00 -0.00000000000E+00 -0.15930319760E+03  0.15930319760E+03  0.00000000000E+00 0. -1.
        -24    2    1    2    0    0  0.69242131785E+02  0.50056980058E+02  0.25127633585E+03  0.27719670599E+03  0.79987766488E+02 0.  0.
         23    2    1    2    0    0 -0.58447542818E+02 -0.68295452808E+02 -0.53726810333E+02  0.13972812486E+03  0.92504024735E+02 0.  0.
         11    1    3    3    0    0  0.39829768228E+02  0.37780217554E+02  0.52767907403E+02  0.76145960675E+02  0.00000000000E+00 0. -1.
        -12    1    3    3    0    0  0.29412363558E+02  0.12276762504E+02  0.19850842845E+03  0.20105074532E+03  0.00000000000E+00 0.  1.
        -13    1    4    4    0    0 -0.44263552326E+02 -0.26824149580E+02 -0.74907300262E+02  0.91048891799E+02  0.00000000000E+00 0. -1.
         13    1    4    4    0    0 -0.14183990492E+02 -0.41471303228E+02  0.21180489929E+02  0.48679233060E+02  0.00000000000E+00 0.  1.
         21    1    1    2  502  501 -0.10794588967E+02  0.18238472751E+02 -0.47352317548E+02  0.51878772310E+02  0.00000000000E+00 0. -1.
<scales pt_clust_5="13000.00000" pt_clust_6="13000.00000" pt_clust_7="13000.00000" pt_clust_8="13000.00000" pt_clust_9="21.19351"></scales>
<clustering>
<clus scale="   21.194">  2  9  1 -1</clus>
<clus scale="   79.988">  5  6 -1 -1</clus>
<clus scale="   92.504">  7  8 -1 -1</clus>
<clus scale="  117.233">  1  5  2 -1</clus>
<clus scale="   21.194">  2  5  1 -1</clus>
</clustering>
</event>
<event>
 9    1  0.2674825E-005  0.1539932E+03  0.7546771E-02  0.1197459E+00
         -2   -1    0    0    0  501 -0.00000000000E+00  0.00000000000E+00  0.33468999680E+03  0.33468999680E+03  0.00000000000E+00 0.  1.
          1   -1    0    0  502    0  0.00000000000E+00 -0.00000000000E+00 -0.11554623075E+03  0.11554623075E+03  0.00000000000E+00 0. -1.
         23    2    1    2    0    0  0.63654389837E+02 -0.11991357396E+03  0.22793907446E+03  0.28099074447E+03  0.92565815751E+02 0.  0.
        -24    2    1    2    0    0 -0.47638382155E+02  0.76888877619E+02 -0.13926120167E+02  0.12305065407E+03  0.82256985652E+02 0.  0.
         13    1    4    4    0    0 -0.98851754959E+01  0.58229400455E+02 -0.41969014729E+02  0.72455351557E+02  0.00000000000E+00 0. -1.
        -14    1    4    4    0    0 -0.37753206659E+02  0.18659477163E+02  0.28042894561E+02  0.50595302514E+02  0.00000000000E+00 0.  1.
        -11    1    3    3    0    0  0.98040680479E+01 -0.66696825886E+02  0.17788678560E+03  0.19023221290E+03  0.00000000000E+00 0.  1.
         11    1    3    3    0    0  0.53850321789E+02 -0.53216748072E+02  0.50052288860E+02  0.90758531567E+02  0.00000000000E+00 0. -1.
         21    1    1    2  502  501 -0.16016007682E+02  0.43024696339E+02  0.51308117524E+01  0.46194829000E+02  0.00000000000E+00 0. -1.
<scales pt_clust_5="13000.00000" pt_clust_6="13000.00000" pt_clust_7="13000.00000" pt_clust_8="13000.00000" pt_clust_9="45.90901"></scales>
<clustering>
<clus scale="   45.909">  2  9  1 -1</clus>
<clus scale="   82.257">  5  6 -1 -1</clus>
<clus scale="   92.566">  7  8 -1 -1</clus>
<clus scale="  148.026">  2  5  1 -1</clus>
<clus scale="   45.909">  2  5  1 -1</clus>
</clustering>
</event>
<event>
 9    1  0.2674825E-005  0.9468480E+02  0.7546771E-02  0.1292845E+00
         -2   -1    0    0    0  501 -0.00000000000E+00  0.00000000000E+00  0.20650734073E+03  0.20650734073E+03  0.00000000000E+00 0.  1.
          1   -1    0    0  502    0  0.00000000000E+00 -0.00000000000E+00 -0.20075364856E+03  0.20075364856E+03  0.00000000000E+00 0. -1.
         23    2    1    2    0    0 -0.66152797572E+01 -0.14303487065E+02  0.13182706018E+03  0.16091135373E+03  0.90916105814E+02 0.  0.
        -24    2    1    2    0    0  0.19960366904E+02  0.68123355887E+02 -0.60485295106E+01  0.11413529637E+03  0.89168791082E+02 0.  0.
         11    1    4    4    0    0  0.20133571932E+02  0.50155172364E+02 -0.45587654006E+02  0.70704570089E+02  0.00000000000E+00 0. -1.
        -12    1    4    4    0    0 -0.17320502851E+00  0.17968183523E+02  0.39539124495E+02  0.43430726277E+02  0.00000000000E+00 0.  1.
        -13    1    3    3    0    0 -0.34642810833E+02 -0.40862255865E+02  0.80066139297E+02  0.96335014189E+02  0.00000000000E+00 0.  1.
         13    1    3    3    0    0  0.28027531076E+02  0.26558768800E+02  0.51760920881E+02  0.64576339544E+02  0.00000000000E+00 0. -1.
         21    1    1    2  502  501 -0.13345087147E+02 -0.53819868822E+02 -0.12002483849E+03  0.13221433919E+03  0.00000000000E+00 0. -1.
<scales pt_clust_5="13000.00000" pt_clust_6="13000.00000" pt_clust_7="13000.00000" pt_clust_8="13000.00000" pt_clust_9="55.44970"></scales>
<clustering>
<clus scale="   55.450">  2  9  1 -1</clus>
<clus scale="   89.169">  5  6 -1 -1</clus>
<clus scale="   90.916">  7  8 -1 -1</clus>
<clus scale="   93.008">  2  5  1 -1</clus>
<clus scale="   55.450">  2  5  1 -1</clus>
</clustering>
</event>
<event>
 9    1  0.2674825E-005  0.1303802E+03  0.7546771E-02  0.1228412E+00
          1   -1    0    0  502    0  0.00000000000E+00  0.00000000000E+00  0.31124733676E+03  0.31124733676E+03  0.00000000000E+00 0. -1.
         -2   -1    0    0    0  501 -0.00000000000E+00 -0.00000000000E+00 -0.72179351007E+02  0.72179351007E+02  0.00000000000E+00 0.  1.
        -24    2    1    2    0    0  0.80782826105E+02  0.57535663142E+02  0.58143031034E+02  0.14284083556E+03  0.84774257409E+02 0.  0.
         23    2    1    2    0    0 -0.87039022904E+02 -0.30039170783E+02  0.15879319067E+03  0.20473878719E+03  0.90689306356E+02 0.  0.
         13    1    3    3    0    0  0.68528118606E+02  0.51215996296E+01  0.56540004114E+02  0.88989358283E+02  0.00000000000E+00 0. -1.
        -14    1    3    3    0    0  0.12254707500E+02  0.52414063512E+02  0.16030269203E+01  0.53851477278E+02  0.00000000000E+00 0.  1.
        -11    1    4    4    0    0 -0.60253316777E+02 -0.28142888960E+02  0.29612842556E+02  0.72797011105E+02  0.00000000000E+00 0.  1.
         11    1    4    4    0    0 -0.26785706127E+02 -0.18962818235E+01  0.12918034811E+03  0.13194177608E+03  0.00000000000E+00 0. -1.
         21    1    1    2  502  501  0.62561967983E+01 -0.27496492359E+02  0.22131764052E+02  0.35847065019E+02  0.00000000000E+00 0. -1.
<scales pt_clust_5="13000.00000" pt_clust_6="13000.00000" pt_clust_7="13000.00000" pt_clust_8="13000.00000" pt_clust_9="28.19924"></scales>
<clustering>
<clus scale="   28.199">  2  9  1 -1</clus>
<clus scale="   84.774">  5  6 -1 -1</clus>
<clus scale="   90.689">  7  8 -1 -1</clus>
<clus scale="  126.337">  2  5  1 -1</clus>
<clus scale="  130.380">  1  5  2 -1</clus>
</clustering>
</event>
<event>
 9    1  0.2674825E-005  0.3625183E+03  0.7546771E-02  0.1057763E+00
         -2   -1    0    0    0  501 -0.00000000000E+00  0.00000000000E+00  0.11102107578E+03  0.11102107578E+03  0.00000000000E+00 0.  1.
          1   -1    0    0  502    0  0.00000000000E+00 -0.00000000000E+00 -0.24504156261E+04  0.24504156261E+04  0.00000000000E+00 0. -1.
         23    2    1    2    0    0  0.16822463244E+03 -0.24455456851E+03 -0.27017390909E+03  0.41159707830E+03  0.91168798266E+02 0.  0.
        -24    2    1    2    0    0 -0.28421499989E+03  0.23255584341E+03 -0.19380851584E+04  0.19743567196E+04  0.83964208681E+02 0.  0.
         13    1    4    4    0    0 -0.50852192706E+02  0.89231659371E+02 -0.50461553343E+03  0.51496123263E+03  0.00000000000E+00 0. -1.
        -14    1    4    4    0    0 -0.23336280718E+03  0.14332418404E+03 -0.14334696250E+04  0.14593954869E+04  0.00000000000E+00 0.  1.
        -13    1    3    3    0    0  0.86666187618E+02 -0.16291505806E+03 -0.11220807656E+03  0.21596989759E+03  0.00000000000E+00 0.  1.
         13    1    3    3    0    0  0.81558444820E+02 -0.81639510448E+02 -0.15796583253E+03  0.19562718071E+03  0.00000000000E+00 0. -1.
         21    1    1    2  502  501  0.11599036745E+03  0.11998725100E+02 -0.13113548278E+03  0.17548290398E+03  0.00000000000E+00 0. -1.
<scales pt_clust_5="13000.00000" pt_clust_6="13000.00000" pt_clust_7="13000.00000" pt_clust_8="13000.00000" pt_clust_9="116.60933"></scales>
<clustering>
<clus scale="   83.964">  5  6 -1 -1</clus>
<clus scale="   91.169">  7  8 -1 -1</clus>
<clus scale="  116.609">  1  9  2 -1</clus>
<clus scale="  360.774">  2  5  1 -1</clus>
<clus scale="  360.774">  2  5  1 -1</clus>
</clustering>
</event>
<event>
 9    1  0.2674825E-005  0.1143014E+03  0.7546771E-02  0.1256981E+00
         -2   -1    0    0    0  501 -0.00000000000E+00  0.00000000000E+00  0.13246517656E+03  0.13246517656E+03  0.00000000000E+00 0.  1.
          1   -1    0    0  502    0  0.00000000000E+00 -0.00000000000E+00 -0.16719450826E+03  0.16719450826E+03  0.00000000000E+00 0. -1.
        -24    2    1    2    0    0  0.54487233471E+02  0.31983855101E+02  0.62081008655E+02  0.12006436243E+03  0.81052907977E+02 0.  0.
         23    2    1    2    0    0 -0.77470720493E+02 -0.26873540951E+02 -0.64024875326E+02  0.13923144369E+03  0.92532753734E+02 0.  0.
         13    1    3    3    0    0  0.28113357588E+02 -0.15035443968E+01 -0.15060921516E+02  0.31928872162E+02  0.00000000000E+00 0. -1.
        -14    1    3    3    0    0  0.26373875884E+02  0.33487399498E+02  0.77141930171E+02  0.88135490268E+02  0.00000000000E+00 0.  1.
        -11    1    4    4    0    0 -0.29873842574E+02 -0.27508131904E+02  0.17980270557E+02  0.44412092051E+02  0.00000000000E+00 0.  1.
         11    1    4    4    0    0 -0.47596877919E+02  0.63459095248E+00 -0.82005145884E+02  0.94819351636E+02  0.00000000000E+00 0. -1.
         21    1    1    2  502  501  0.22983487022E+02 -0.51103141499E+01 -0.32785465037E+02  0.40363878704E+02  0.00000000000E+00 0. -1.
<scales pt_clust_5="13000.00000" pt_clust_6="13000.00000" pt_clust_7="13000.00000" pt_clust_8="13000.00000" pt_clust_9="23.54477"></scales>
<clustering>
<clus scale="   23.545">  2  9  1 -1</clus>
<clus scale="   81.053">  5  6 -1 -1</clus>
<clus scale="   92.533">  7  8 -1 -1</clus>
<clus scale="  105.224">  1  5  2 -1</clus>
<clus scale="   23.545">  2  5  1 -1</clus>
</clustering>
</event>
<event>
 9    1  0.2674825E-005  0.1190452E+03  0.7546771E-02  0.1246713E+00
         -2   -1    0    0    0  501 -0.00000000000E+00  0.00000000000E+00  0.21053655038E+03  0.21053655038E+03  0.00000000000E+00 0.  1.
          1   -1    0    0  502    0  0.00000000000E+00 -0.00000000000E+00 -0.20321368335E+03  0.20321368335E+03  0.00000000000E+00 0. -1.
        -24    2    1    2    0    0 -0.58641458100E+02  0.48873328756E+02  0.16194591621E+03  0.20250262710E+03  0.94622467370E+02 0.  0.
         23    2    1    2    0    0  0.22043355147E+02 -0.37641218329E+02 -0.13761701240E+03  0.16935743200E+03  0.88547878843E+02 0.  0.
         13    1    3    3    0    0 -0.33582430632E+02 -0.59670357894E+01  0.51265892933E+01  0.34491550865E+02  0.00000000000E+00 0. -1.
        -14    1    3    3    0    0 -0.25059027468E+02  0.54840364545E+02  0.15681932692E+03  0.16801107623E+03  0.00000000000E+00 0.  1.
        -11    1    4    4    0    0  0.54506801757E+00 -0.52756033528E+02 -0.13245454687E+03  0.14257525437E+03  0.00000000000E+00 0.  1.
         11    1    4    4    0    0  0.21498287129E+02  0.15114815199E+02 -0.51624655280E+01  0.26782177624E+02  0.00000000000E+00 0. -1.
         21    1    1    2  502  501  0.36598102954E+02 -0.11232110427E+02 -0.17006036783E+02  0.41890174642E+02  0.00000000000E+00 0. -1.
<scales pt_clust_5="13000.00000" pt_clust_6="13000.00000" pt_clust_7="13000.00000" pt_clust_8="13000.00000" pt_clust_9="38.28291"></scales>
<clustering>
<clus scale="   38.283">  2  9  1 -1</clus>
<clus scale="   88.548">  7  8 -1 -1</clus>
<clus scale="   94.622">  5  6 -1 -1</clus>
<clus scale="  114.276">  2  7  1 -1</clus>
<clus scale="   38.283">  2  5  1 -1</clus>
</clustering>
</event>
<event>
 9    1  0.2674825E-005  0.1332972E+03  0.7546771E-02  0.1225275E+00
         -2   -1    0    0    0  501 -0.00000000000E+00  0.00000000000E+00  0.25447928179E+03  0.25447928179E+03  0.00000000000E+00 0.  1.
          1   -1    0    0  502    0  0.00000000000E+00 -0.00000000000E+00 -0.10419521806E+03  0.10419521806E+03  0.00000000000E+00 0. -1.
         23    2    1    2    0    0 -0.32808302062E+02  0.57407047398E+02  0.12991595262E+03  0.17267892740E+03  0.92562970170E+02 0.  0.
        -24    2    1    2    0    0  0.50259885426E+02 -0.96642930199E+02 -0.44371109287E+01  0.13640412863E+03  0.81978572274E+02 0.  0.
         11    1    4    4    0    0  0.61851978661E+01 -0.67545431945E+02 -0.34007642317E+02  0.75875963158E+02  0.00000000000E+00 0. -1.
        -12    1    4    4    0    0  0.44074687560E+02 -0.29097498254E+02  0.29570531389E+02  0.60528165467E+02  0.00000000000E+00 0.  1.
        -13    1    3    3    0    0 -0.28420656793E+02  0.34783531216E+02  0.14036403476E+03  0.14737601579E+03  0.00000000000E+00 0.  1.
         13    1    3    3    0    0 -0.43876452689E+01  0.22623516182E+02 -0.10448082138E+02  0.25302911608E+02  0.00000000000E+00 0. -1.
         21    1    1    2  502  501 -0.17451583365E+02  0.39235882800E+02  0.24805222034E+02  0.49591443831E+02  0.00000000000E+00 0.  1.
<scales pt_clust_5="13000.00000" pt_clust_6="13000.00000" pt_clust_7="13000.00000" pt_clust_8="13000.00000" pt_clust_9="42.94196"></scales>
<clustering>
<clus scale="   42.942">  1  9  2 -1</clus>
<clus scale="   81.979">  5  6 -1 -1</clus>
<clus scale="   92.563">  7  8 -1 -1</clus>
<clus scale="  126.177">  2  5  1 -1</clus>
<clus scale="  126.177">  2  5  1 -1</clus>
</clustering>
</event>
<event>
 9    1  0.2674825E-005  0.1250031E+03  0.7546771E-02  0.1252496E+00
         -2   -1    0    0    0  501 -0.00000000000E+00  0.00000000000E+00  0.31942088178E+03  0.31942088178E+03  0.00000000000E+00 0.  1.
          1   -1    0    0  502    0  0.00000000000E+00 -0.00000000000E+00 -0.15186595404E+03  0.15186595404E+03  0.00000000000E+00 0. -1.
        -24    2    1    2    0    0 -0.97980530012E+01 -0.33610598639E+02  0.22622340297E+03  0.24270982527E+03  0.80655793631E+02 0.  0.
         23    2    1    2    0    0  0.78949587520E+02 -0.20713217457E+02 -0.69311889017E-02  0.12286897646E+03  0.91840680428E+02 0.  0.
         13    1    3    3    0    0 -0.44044153556E+02 -0.23906421377E+02  0.10460583247E+03  0.11599045061E+03  0.00000000000E+00 0. -1.
        -14    1    3    3    0    0  0.34246100555E+02 -0.97041772612E+01  0.12161757050E+03  0.12671937466E+03  0.00000000000E+00 0.  1.
        -13    1    4    4    0    0  0.66519356402E+02  0.25163696093E+02  0.15657888278E+02  0.72823113381E+02  0.00000000000E+00 0.  1.
         13    1    4    4    0    0  0.12430231118E+02 -0.45876913550E+02 -0.15664819467E+02  0.50045863080E+02  0.00000000000E+00 0. -1.
         21    1    1    2  502  501 -0.69151534519E+02  0.54323816095E+02 -0.58661544050E+02  0.10570803409E+03  0.00000000000E+00 0. -1.
<scales pt_clust_5="13000.00000" pt_clust_6="13000.00000" pt_clust_7="13000.00000" pt_clust_8="13000.00000" pt_clust_9="84.80017"></scales>
<clustering>
<clus scale="   80.656">  5  6 -1 -1</clus>
<clus scale="   87.926">  1  5  2 -1</clus>
<clus scale="   84.800">  2  9  1 -1</clus>
<clus scale="   91.841">  7  8 -1 -1</clus>
<clus scale="   84.800">  2  5  1 -1</clus>
</clustering>
</event>
<event>
 9    1  0.2674825E-005  0.2047855E+03  0.7546771E-02  0.1146451E+00
          1   -1    0    0  502    0  0.00000000000E+00  0.00000000000E+00  0.52262853144E+03  0.52262853144E+03  0.00000000000E+00 0. -1.
         -2   -1    0    0    0  501 -0.00000000000E+00 -0.00000000000E+00 -0.20585656101E+03  0.20585656101E+03  0.00000000000E+00 0.  1.
         23    2    1    2    0    0 -0.41668199823E+02  0.17538919922E+03 -0.11017775551E+03  0.22949496202E+03  0.89616905250E+02 0.  0.
        -24    2    1    2    0    0  0.46460728861E+02 -0.20261612066E+03  0.33233041457E+03  0.40041484108E+03  0.81710763248E+02 0.  0.
         13    1    4    4    0    0  0.32767794576E+02 -0.69344225433E+02  0.19026653847E+03  0.20514313448E+03  0.00000000000E+00 0. -1.
        -14    1    4    4    0    0  0.13692934285E+02 -0.13327189522E+03  0.14206387610E+03  0.19527170660E+03  0.00000000000E+00 0.  1.
        -11    1    3    3    0    0  0.69895066362E+01  0.76565266188E+02 -0.88494483109E+02  0.11722784110E+03  0.00000000000E+00 0.  1.
         11    1    3    3    0    0 -0.48657706459E+02  0.98823933028E+02 -0.21683272398E+02  0.11226712092E+03  0.00000000000E+00 0. -1.
         21    1    1    2  502  501 -0.47925290386E+01  0.27226921439E+02  0.94619311369E+02  0.98575289346E+02  0.00000000000E+00 0.  1.
<scales pt_clust_5="13000.00000" pt_clust_6="13000.00000" pt_clust_7="13000.00000" pt_clust_8="13000.00000" pt_clust_9="27.64550"></scales>
<clustering>
<clus scale="   27.645">  1  9  2 -1</clus>
<clus scale="   81.711">  5  6 -1 -1</clus>
<clus scale="   89.617">  7  8 -1 -1</clus>
<clus scale="  201.451">  1  5  2 -1</clus>
<clus scale="   27.645">  1  5  2 -1</clus>
</clustering>
</event>
<event>
 9    1  0.2674825E-005  0.1971033E+03  0.7546771E-02  0.1153306E+00
          1   -1    0    0  502    0  0.00000000000E+00  0.00000000000E+00  0.54596655558E+03  0.54596655558E+03  0.00000000000E+00 0. -1.
         -2   -1    0    0    0  501 -0.00000000000E+00 -0.00000000000E+00 -0.32251594120E+03  0.32251594120E+03  0.00000000000E+00 0.  1.
         23    2    1    2    0    0 -0.95121957736E+02 -0.14834891168E+03 -0.26546840871E+03  0.33152949152E+03  0.91557311483E+02 0.  0.
        -24    2    1    2    0    0  0.62589340939E+02  0.14570949096E+03  0.33074309037E+03  0.37544460488E+03  0.80118525606E+02 0.  0.
         13    1    4    4    0    0  0.74960212741E+02  0.14689804955E+03  0.31288281991E+03  0.35368591922E+03  0.00000000000E+00 0. -1.
        -14    1    4    4    0    0 -0.12370871802E+02 -0.11885585892E+01  0.17860270463E+02  0.21758685661E+02  0.00000000000E+00 0.  1.
        -11    1    3    3    0    0 -0.37789604003E+02 -0.62025761324E+02 -0.38911440743E+02  0.82397508817E+02  0.00000000000E+00 0. -1.
         11    1    3    3    0    0 -0.57332353733E+02 -0.86323150353E+02 -0.22655696797E+03  0.24913198271E+03  0.00000000000E+00 0.  1.
         21    1    1    2  502  501  0.32532616797E+02  0.26394207120E+01  0.15817593272E+03  0.16150840037E+03  0.00000000000E+00 0. -1.
<scales pt_clust_5="13000.00000" pt_clust_6="13000.00000" pt_clust_7="13000.00000" pt_clust_8="13000.00000" pt_clust_9="32.63951"></scales>
<clustering>
<clus scale="   32.640">  1  9  2 -1</clus>
<clus scale="   80.119">  5  6 -1 -1</clus>
<clus scale="   91.557">  7  8 -1 -1</clus>
<clus scale="  192.057">  1  5  2 -1</clus>
<clus scale="   32.640">  1  5  2 -1</clus>
</clustering>
</event>
<event>
 9    1  0.2674825E-005  0.1177929E+03  0.7546771E-02  0.1249766E+00
          1   -1    0    0  502    0  0.00000000000E+00  0.00000000000E+00  0.36046936169E+02  0.36046936169E+02  0.00000000000E+00 0. -1.
         -2   -1    0    0    0  501 -0.00000000000E+00 -0.00000000000E+00 -0.82151774995E+03  0.82151774995E+03  0.00000000000E+00 0.  1.
        -24    2    1    2    0    0  0.65400156324E+02  0.32970175105E+02 -0.60429430487E+03  0.61405623142E+03  0.80803685299E+02 0.  0.
         23    2    1    2    0    0 -0.86870681606E+02 -0.21312863313E+02 -0.17842082258E+03  0.21892247940E+03  0.89957259804E+02 0.  0.
         13    1    3    3    0    0  0.49728124366E+02  0.19503117150E+02 -0.14886304687E+03  0.15815645625E+03  0.00000000000E+00 0. -1.
        -14    1    3    3    0    0  0.15672031958E+02  0.13467057956E+02 -0.45543125800E+03  0.45589977517E+03  0.00000000000E+00 0.  1.
        -13    1    4    4    0    0  0.84019457172E+01  0.19652815958E+02 -0.46017884780E+02  0.50739250946E+02  0.00000000000E+00 0.  1.
         13    1    4    4    0    0 -0.95272627323E+02 -0.40965679272E+02 -0.13240293780E+03  0.16818322845E+03  0.00000000000E+00 0. -1.
         21    1    1    2  502  501  0.21470525282E+02 -0.11657311792E+02 -0.27556863326E+01  0.24585975296E+02  0.00000000000E+00 0.  1.
<scales pt_clust_5="13000.00000" pt_clust_6="13000.00000" pt_clust_7="13000.00000" pt_clust_8="13000.00000" pt_clust_9="24.43105"></scales>
<clustering>
<clus scale="   24.431">  1  9  2 -1</clus>
<clus scale="   80.804">  5  6 -1 -1</clus>
<clus scale="   89.957">  7  8 -1 -1</clus>
<clus scale="  110.960">  2  5  1 -1</clus>
<clus scale="   24.431">  1  5  2 -1</clus>
</clustering>
</event>
<event>
 9    1  0.2674825E-005  0.1486973E+03  0.7546771E-02  0.1204217E+00
         -2   -1    0    0    0  501 -0.00000000000E+00  0.00000000000E+00  0.76247391262E+03  0.76247391262E+03  0.00000000000E+00 0.  1.
          1   -1    0    0  502    0  0.00000000000E+00 -0.00000000000E+00 -0.92206995331E+02  0.92206995331E+02  0.00000000000E+00 0. -1.
         23    2    1    2    0    0  0.96367812633E+02  0.73591695409E+02  0.66869272757E+03  0.68557592616E+03  0.90343199428E+02 0.  0.
        -24    2    1    2    0    0 -0.83602823473E+02 -0.54565326754E+02  0.31855221476E+02  0.13113277436E+03  0.78830466190E+02 0.  0.
         13    1    4    4    0    0 -0.87459017372E+02 -0.21668272323E+02  0.82916852655E+01  0.90483953217E+02  0.00000000000E+00 0. -1.
        -14    1    4    4    0    0  0.38561938995E+01 -0.32897054430E+02  0.23563536210E+02  0.40648821143E+02  0.00000000000E+00 0.  1.
        -11    1    3    3    0    0  0.75476935389E+02  0.82990448572E+02  0.63500366173E+03  0.64483628367E+03  0.00000000000E+00 0.  1.
         11    1    3    3    0    0  0.20890877244E+02 -0.93987531630E+01  0.33689065844E+02  0.40739642493E+02  0.00000000000E+00 0. -1.
         21    1    1    2  502  501 -0.12764989161E+02 -0.19026368656E+02 -0.30281031759E+02  0.37972207427E+02  0.00000000000E+00 0. -1.
<scales pt_clust_5="13000.00000" pt_clust_6="13000.00000" pt_clust_7="13000.00000" pt_clust_8="13000.00000" pt_clust_9="22.91174"></scales>
<clustering>
<clus scale="   22.912">  2  9  1 -1</clus>
<clus scale="   78.830">  5  6 -1 -1</clus>
<clus scale="   90.343">  7  8 -1 -1</clus>
<clus scale="  141.997">  2  5  1 -1</clus>
<clus scale="   22.912">  2  5  1 -1</clus>
</clustering>
</event>
<event>
 9    1  0.2674825E-005  0.1128441E+03  0.7546771E-02  0.1262155E+00
         -2   -1    0    0    0  501 -0.00000000000E+00  0.00000000000E+00  0.21662802525E+03  0.21662802525E+03  0.00000000000E+00 0.  1.
          1   -1    0    0  502    0  0.00000000000E+00 -0.00000000000E+00 -0.10755540021E+03  0.10755540021E+03  0.00000000000E+00 0. -1.
        -24    2    1    2    0    0 -0.28375286732E+02 -0.52452952246E+02  0.15086959014E+03  0.18040507292E+03  0.78916969091E+02 0.  0.
         23    2    1    2    0    0  0.46822882038E+02  0.39975141187E+02 -0.42041020807E+02  0.12150574370E+03  0.95946881802E+02 0.  0.
         11    1    3    3    0    0  0.25749583384E+02 -0.28252864904E+02  0.74379480774E+02  0.83627582650E+02  0.00000000000E+00 0. -1.
        -12    1    3    3    0    0 -0.54124870116E+02 -0.24200087342E+02  0.76490109365E+02  0.96777490271E+02  0.00000000000E+00 0.  1.
        -13    1    4    4    0    0  0.66792873610E+02  0.52851995569E+02 -0.46928608026E+02  0.97246674247E+02  0.00000000000E+00 0.  1.
         13    1    4    4    0    0 -0.19969991572E+02 -0.12876854382E+02  0.48875872198E+01  0.24259069458E+02  0.00000000000E+00 0. -1.
         21    1    1    2  502  501 -0.18447595306E+02  0.12477811059E+02  0.24405570777E+00  0.22272608841E+02  0.00000000000E+00 0. -1.
<scales pt_clust_5="13000.00000" pt_clust_6="13000.00000" pt_clust_7="13000.00000" pt_clust_8="13000.00000" pt_clust_9="22.27127"></scales>
<clustering>
<clus scale="   22.271">  2  9  1 -1</clus>
<clus scale="   78.917">  5  6 -1 -1</clus>
<clus scale="   95.947">  7  8 -1 -1</clus>
<clus scale="   98.772">  1  5  2 -1</clus>
<clus scale="   22.271">  2  5  1 -1</clus>
</clustering>
</event>
<event>
 9    1  0.2674825E-005  0.1002197E+03  0.7546771E-02  0.1282969E+00
         -2   -1    0    0    0  501 -0.00000000000E+00  0.00000000000E+00  0.11543306780E+03  0.11543306780E+03  0.00000000000E+00 0.  1.
          1   -1    0    0  502    0  0.00000000000E+00 -0.00000000000E+00 -0.12015850139E+03  0.12015850139E+03  0.00000000000E+00 0. -1.
        -24    2    1    2    0    0 -0.62778513813E+01 -0.33209791763E+02  0.32200237656E+02  0.94088263031E+02  0.81691151591E+02 0.  0.
         23    2    1    2    0    0  0.32622580422E+02  0.46090010199E+02 -0.39593032087E+02  0.11205743057E+03  0.88321785320E+02 0.  0.
         13    1    3    3    0    0  0.26174097520E+02 -0.12050471175E+02 -0.15434818268E+02  0.32688390164E+02  0.00000000000E+00 0. -1.
        -14    1    3    3    0    0 -0.32451948902E+02 -0.21159320587E+02  0.47635055924E+02  0.61399872867E+02  0.00000000000E+00 0.  1.
        -13    1    4    4    0    0 -0.13621176267E+02  0.42392505655E+02  0.83950341998E+01  0.45311561194E+02  0.00000000000E+00 0.  1.
         13    1    4    4    0    0  0.46243756689E+02  0.36975045437E+01 -0.47988066287E+02  0.66745869374E+02  0.00000000000E+00 0. -1.
         21    1    1    2  502  501 -0.26344729041E+02 -0.12880218436E+02  0.26673608423E+01  0.29445875586E+02  0.00000000000E+00 0.  1.
<scales pt_clust_5="13000.00000" pt_clust_6="13000.00000" pt_clust_7="13000.00000" pt_clust_8="13000.00000" pt_clust_9="29.32482"></scales>
<clustering>
<clus scale="   29.325">  1  9  2 -1</clus>
<clus scale="   81.691">  5  6 -1 -1</clus>
<clus scale="   88.322">  7  8 -1 -1</clus>
<clus scale="   94.428">  1  5  2 -1</clus>
<clus scale="  100.220">  2  5  1 -1</clus>
</clustering>
</event>
<event>
 9    1  0.2674825E-005  0.9376641E+02  0.7546771E-02  0.1300096E+00
          1   -1    0    0  502    0  0.00000000000E+00  0.00000000000E+00  0.13946609154E+03  0.13946609154E+03  0.00000000000E+00 0. -1.
         -2   -1    0    0    0  501 -0.00000000000E+00 -0.00000000000E+00 -0.13366233974E+03  0.13366233974E+03  0.00000000000E+00 0.  1.
        -24    2    1    2    0    0  0.32947872724E+01  0.25051531357E+02 -0.91169578133E+02  0.12429370675E+03  0.80613886604E+02 0.  0.
         23    2    1    2    0    0 -0.83362966149E+01 -0.46596460215E+01  0.83534735476E+02  0.12389797203E+03  0.91002468651E+02 0.  0.
         11    1    3    3    0    0 -0.35517526450E+02  0.24048939550E+02 -0.63451769926E+02  0.76589642154E+02  0.00000000000E+00 0. -1.
        -12    1    3    3    0    0  0.38812313723E+02  0.10025918072E+01 -0.27717808207E+02  0.47704064593E+02  0.00000000000E+00 0.  1.
        -13    1    4    4    0    0  0.27500459941E+02  0.33804065412E+01 -0.49022450867E+01  0.28137776249E+02  0.00000000000E+00 0.  1.
         13    1    4    4    0    0 -0.35836756556E+02 -0.80400525626E+01  0.88436980562E+02  0.95760195784E+02  0.00000000000E+00 0. -1.
         21    1    1    2  502  501  0.50415093425E+01 -0.20391885335E+02  0.13438594457E+02  0.24936752495E+02  0.00000000000E+00 0. -1.
<scales pt_clust_5="13000.00000" pt_clust_6="13000.00000" pt_clust_7="13000.00000" pt_clust_8="13000.00000" pt_clust_9="21.00585"></scales>
<clustering>
<clus scale="   21.006">  1  9  2 -1</clus>
<clus scale="   80.614">  5  6 -1 -1</clus>
<clus scale="   83.721">  2  5  1 -1</clus>
<clus scale="   91.002">  7  8 -1 -1</clus>
<clus scale="   21.006">  1  5  2 -1</clus>
</clustering>
</event>
<event>
 9    1  0.2674825E-005  0.1020578E+03  0.7546771E-02  0.1281143E+00
          1   -1    0    0  502    0  0.00000000000E+00  0.00000000000E+00  0.91454008969E+02  0.91454008969E+02  0.00000000000E+00 0. -1.
         -2   -1    0    0    0  501 -0.00000000000E+00 -0.00000000000E+00 -0.20903932262E+03  0.20903932262E+03  0.00000000000E+00 0.  1.
        -24    2    1    2    0    0 -0.48824777256E+02  0.10405029379E+02 -0.14656455953E+03  0.17434660086E+03  0.80146388641E+02 0.  0.
         23    2    1    2    0    0  0.25704302503E+02 -0.16181587320E+02  0.34117683967E+02  0.10176787676E+03  0.90940252070E+02 0.  0.
         13    1    3    3    0    0 -0.48276361862E+02  0.37268323755E+02 -0.12770132621E+03  0.14151736214E+03  0.00000000000E+00 0. -1.
        -14    1    3    3    0    0 -0.54841539426E+00 -0.26863294376E+02 -0.18863233318E+02  0.32829238727E+02  0.00000000000E+00 0.  1.
        -13    1    4    4    0    0  0.49641773542E+02 -0.18384437379E+02 -0.77390942324E+01  0.53499409321E+02  0.00000000000E+00 0.  1.
         13    1    4    4    0    0 -0.23937471039E+02  0.22028500589E+01  0.41856778199E+02  0.48268467444E+02  0.00000000000E+00 0. -1.
         21    1    1    2  502  501  0.23120474753E+02  0.57765579411E+01 -0.51384380899E+01  0.24378853961E+02  0.00000000000E+00 0. -1.
<scales pt_clust_5="13000.00000" pt_clust_6="13000.00000" pt_clust_7="13000.00000" pt_clust_8="13000.00000" pt_clust_9="23.83118"></scales>
<clustering>
<clus scale="   23.831">  1  9  2 -1</clus>
<clus scale="   80.146">  5  6 -1 -1</clus>
<clus scale="   90.940">  7  8 -1 -1</clus>
<clus scale="   92.569">  2  5  1 -1</clus>
<clus scale="   23.831">  1  5  2 -1</clus>
</clustering>
</event>
<event>
 9    1  0.2674825E-005  0.1448618E+03  0.7546771E-02  0.1213209E+00
          1   -1    0    0  502    0  0.00000000000E+00  0.00000000000E+00  0.32175534821E+03  0.32175534821E+03  0.00000000000E+00 0. -1.
         -2   -1    0    0    0  501 -0.00000000000E+00 -0.00000000000E+00 -0.27433966475E+03  0.27433966475E+03  0.00000000000E+00 0.  1.
        -24    2    1    2    0    0 -0.14315984517E+02  0.10326412818E+03 -0.21584965448E+03  0.25210775284E+03  0.78094930175E+02 0.  0.
         23    2    1    2    0    0 -0.34310217364E+02 -0.43288426397E+02  0.23218392723E+03  0.26075477604E+03  0.10503617610E+03 0.  0.
         11    1    3    3    0    0 -0.16867140588E+02  0.34115331755E+02 -0.15614071979E+03  0.16071179381E+03  0.00000000000E+00 0. -1.
        -12    1    3    3    0    0  0.25511560706E+01  0.69148796428E+02 -0.59708934687E+02  0.91395959025E+02  0.00000000000E+00 0.  1.
        -11    1    4    4    0    0  0.37761924286E+02 -0.16045995068E+02  0.68599076206E+02  0.79932910242E+02  0.00000000000E+00 0. -1.
         11    1    4    4    0    0 -0.72072141650E+02 -0.27242431329E+02  0.16358485102E+03  0.18082186580E+03  0.00000000000E+00 0.  1.
         21    1    1    2  502  501  0.48626201882E+02 -0.59975701786E+02  0.31081410711E+02  0.83232484079E+02  0.00000000000E+00 0. -1.
<scales pt_clust_5="13000.00000" pt_clust_6="13000.00000" pt_clust_7="13000.00000" pt_clust_8="13000.00000" pt_clust_9="77.21135"></scales>
<clustering>
<clus scale="   77.211">  1  9  2 -1</clus>
<clus scale="   78.095">  5  6 -1 -1</clus>
<clus scale="  105.036">  7  8 -1 -1</clus>
<clus scale="  126.693">  2  5  1 -1</clus>
<clus scale="   77.211">  1  5  2 -1</clus>
</clustering>
</event>
<event>
 9    1  0.2674825E-005  0.1648097E+03  0.7546771E-02  0.1184635E+00
          3   -1    0    0  502    0  0.00000000000E+00  0.00000000000E+00  0.51618434946E+03  0.51618434946E+03  0.00000000000E+00 0. -1.
         -4   -1    0    0    0  501 -0.00000000000E+00 -0.00000000000E+00 -0.15013766849E+03  0.15013766849E+03  0.00000000000E+00 0.  1.
        -24    2    1    2    0    0  0.70520538708E+02 -0.87354470003E+02 -0.86478087133E+02  0.16498796116E+03  0.84490342427E+02 0.  0.
         23    2    1    2    0    0 -0.81560437856E+02  0.11263839860E+03  0.44061290729E+03  0.47128328565E+03  0.92890728264E+02 0.  0.
         11    1    3    3    0    0  0.76084560018E+01 -0.47393886063E+02  0.35273050755E+01  0.48130145646E+02  0.00000000000E+00 0. -1.
        -12    1    3    3    0    0  0.62912082706E+02 -0.39960583940E+02 -0.90005392208E+02  0.11685781551E+03  0.00000000000E+00 0.  1.
        -13    1    4    4    0    0  0.17318454902E+02  0.32871108819E+02  0.66330579060E+02  0.76027523922E+02  0.00000000000E+00 0.  1.
         13    1    4    4    0    0 -0.98878892758E+02  0.79767289777E+02  0.37428232823E+03  0.39525576173E+03  0.00000000000E+00 0. -1.
         21    1    1    2  502  501  0.11039899148E+02 -0.25283928593E+02  0.11911860814E+02  0.30050771144E+02  0.00000000000E+00 0. -1.
<scales pt_clust_5="13000.00000" pt_clust_6="13000.00000" pt_clust_7="13000.00000" pt_clust_8="13000.00000" pt_clust_9="27.58906"></scales>
<clustering>
<clus scale="   27.589">  2  9  1 -1</clus>
<clus scale="   84.490">  5  6 -1 -1</clus>
<clus scale="   92.891">  7  8 -1 -1</clus>
<clus scale="  160.225">  2  5  1 -1</clus>
<clus scale="  164.810">  1  5  2 -1</clus>
</clustering>
</event>
<event>
 9    1  0.2674825E-005  0.9270151E+02  0.7546771E-02  0.1303416E+00
          1   -1    0    0  502    0  0.00000000000E+00  0.00000000000E+00  0.10486021534E+03  0.10486021534E+03  0.00000000000E+00 0. -1.
         -2   -1    0    0    0  501 -0.00000000000E+00 -0.00000000000E+00 -0.12814028304E+03  0.12814028304E+03  0.00000000000E+00 0.  1.
         23    2    1    2    0    0 -0.15809985978E+02  0.85410373794E+01 -0.72766218825E+02  0.11777259033E+03  0.90843576849E+02 0.  0.
        -24    2    1    2    0    0  0.24494331340E+02  0.96552553881E+01  0.36605823900E+02  0.91302487375E+02  0.79391193674E+02 0.  0.
         11    1    4    4    0    0  0.23902734710E+02 -0.76496599768E+01  0.58343009129E+02  0.63511925955E+02  0.00000000000E+00 0. -1.
        -12    1    4    4    0    0  0.59159663047E+00  0.17304915365E+02 -0.21737185228E+02  0.27790561419E+02  0.00000000000E+00 0.  1.
        -11    1    3    3    0    0  0.29130343936E+02  0.30196951165E+02 -0.40796254498E+02  0.58521510392E+02  0.00000000000E+00 0.  1.
         11    1    3    3    0    0 -0.44940329914E+02 -0.21655913786E+02 -0.31969964328E+02  0.59251079938E+02  0.00000000000E+00 0. -1.
         21    1    1    2  502  501 -0.86843453618E+01 -0.18196292767E+02  0.12880327235E+02  0.23925420676E+02  0.00000000000E+00 0. -1.
<scales pt_clust_5="13000.00000" pt_clust_6="13000.00000" pt_clust_7="13000.00000" pt_clust_8="13000.00000" pt_clust_9="20.16241"></scales>
<clustering>
<clus scale="   20.162">  1  9  2 -1</clus>
<clus scale="   79.391">  5  6 -1 -1</clus>
<clus scale="   81.511">  1  5  2 -1</clus>
<clus scale="   90.844">  7  8 -1 -1</clus>
<clus scale="   20.162">  1  5  2 -1</clus>
</clustering>
</event>
<event>
 9    1  0.2674825E-005  0.1225422E+03  0.7546771E-02  0.1241442E+00
          1   -1    0    0  502    0  0.00000000000E+00  0.00000000000E+00  0.78554999889E+02  0.78554999889E+02  0.00000000000E+00 0. -1.
         -2   -1    0    0    0  501 -0.00000000000E+00 -0.00000000000E+00 -0.52645110093E+03  0.52645110093E+03  0.00000000000E+00 0.  1.
         23    2    1    2    0    0 -0.22117355166E+02 -0.85642508282E+02 -0.43009335061E+03  0.44842115451E+03  0.90980354723E+02 0.  0.
        -24    2    1    2    0    0  0.73298944210E+01  0.59727288878E+02 -0.49010364421E+02  0.11340876349E+03  0.82694954053E+02 0.  0.
         13    1    4    4    0    0 -0.90285416234E+01  0.73453498737E+02 -0.18701455923E+02  0.76332663351E+02  0.00000000000E+00 0. -1.
        -14    1    4    4    0    0  0.16358436044E+02 -0.13726209859E+02 -0.30308908498E+02  0.37076100135E+02  0.00000000000E+00 0.  1.
        -13    1    3    3    0    0  0.26605569724E+02 -0.20968822256E+01 -0.56095562980E+02  0.62120571805E+02  0.00000000000E+00 0. -1.
         13    1    3    3    0    0 -0.48722924890E+02 -0.83545626056E+02 -0.37399778763E+03  0.38630058270E+03  0.00000000000E+00 0.  1.
         21    1    1    2  502  501  0.14787460745E+02  0.25915219404E+02  0.31207613993E+02  0.43176182823E+02  0.00000000000E+00 0. -1.
<scales pt_clust_5="13000.00000" pt_clust_6="13000.00000" pt_clust_7="13000.00000" pt_clust_8="13000.00000" pt_clust_9="29.83735"></scales>
<clustering>
<clus scale="   29.837">  1  9  2 -1</clus>
<clus scale="   82.695">  5  6 -1 -1</clus>
<clus scale="   90.980">  7  8 -1 -1</clus>
<clus scale="  116.523">  1  5  2 -1</clus>
<clus scale="   29.837">  1  5  2 -1</clus>
</clustering>
</event>
<event>
 9    1  0.2674825E-005  0.9682460E+02  0.7546771E-02  0.1293462E+00
          1   -1    0    0  502    0  0.00000000000E+00  0.00000000000E+00  0.11414710205E+03  0.11414710205E+03  0.00000000000E+00 0. -1.
         -2   -1    0    0    0  501 -0.00000000000E+00 -0.00000000000E+00 -0.16770659648E+03  0.16770659648E+03  0.00000000000E+00 0.  1.
        -24    2    1    2    0    0  0.39994703101E+02 -0.16742840279E+02 -0.10869102206E+03  0.14219756803E+03  0.80786825039E+02 0.  0.
         23    2    1    2    0    0 -0.16815590712E+02  0.21672361325E+02  0.62608222907E+02  0.11480713855E+03  0.92241173829E+02 0.  0.
         13    1    3    3    0    0 -0.36093149601E+00 -0.28961487455E+02 -0.92671353467E+02  0.97092109775E+02  0.00000000000E+00 0. -1.
        -14    1    3    3    0    0  0.40355634597E+02  0.12218647176E+02 -0.16019668597E+02  0.45105458256E+02  0.00000000000E+00 0.  1.
        -11    1    4    4    0    0  0.12801094804E+02  0.48675010688E+02  0.14881061178E+02  0.52484003996E+02  0.00000000000E+00 0.  1.
         11    1    4    4    0    0 -0.29616685516E+02 -0.27002649363E+02  0.47727161730E+02  0.62323134551E+02  0.00000000000E+00 0. -1.
         21    1    1    2  502  501 -0.23179112389E+02 -0.49295210463E+01 -0.74766952756E+01  0.24848991954E+02  0.00000000000E+00 0. -1.
<scales pt_clust_5="13000.00000" pt_clust_6="13000.00000" pt_clust_7="13000.00000" pt_clust_8="13000.00000" pt_clust_9="23.69750"></scales>
<clustering>
<clus scale="   23.697">  2  9  1 -1</clus>
<clus scale="   80.787">  5  6 -1 -1</clus>
<clus scale="   85.983">  2  5  1 -1</clus>
<clus scale="   92.241">  7  8 -1 -1</clus>
<clus scale="   96.825">  1  5  2 -1</clus>
</clustering>
</event>
<event>
 9    1  0.2674825E-005  0.4013335E+03  0.7546771E-02  0.1043474E+00
          1   -1    0    0  502    0  0.00000000000E+00  0.00000000000E+00  0.76439543627E+03  0.76439543627E+03  0.00000000000E+00 0. -1.
         -2   -1    0    0    0  501 -0.00000000000E+00 -0.00000000000E+00 -0.46112054536E+03  0.46112054536E+03  0.00000000000E+00 0.  1.
        -24    2    1    2    0    0  0.36103336579E+03 -0.17361543466E+03 -0.26035280082E+03  0.48453756896E+03  0.80657699404E+02 0.  0.
         23    2    1    2    0    0 -0.35103873203E+03  0.86586501641E+02  0.35404644135E+03  0.51382597841E+03  0.89122611064E+02 0.  0.
         13    1    3    3    0    0  0.12345217387E+03 -0.10090578238E+03 -0.87596280883E+02  0.18192175399E+03  0.00000000000E+00 0. -1.
        -14    1    3    3    0    0  0.23758119192E+03 -0.72709652283E+02 -0.17275651993E+03  0.30261581497E+03  0.00000000000E+00 0.  1.
        -13    1    4    4    0    0 -0.12770373292E+03 -0.10849134212E+02  0.10888092408E+03  0.16816956545E+03  0.00000000000E+00 0.  1.
         13    1    4    4    0    0 -0.22333499911E+03  0.97435635853E+02  0.24516551727E+03  0.34565641296E+03  0.00000000000E+00 0. -1.
         21    1    1    2  502  501 -0.99946337623E+01  0.87028933018E+02  0.20958125038E+03  0.22715243427E+03  0.00000000000E+00 0. -1.
<scales pt_clust_5="13000.00000" pt_clust_6="13000.00000" pt_clust_7="13000.00000" pt_clust_8="13000.00000" pt_clust_9="87.60096"></scales>
<clustering>
<clus scale="   80.658">  5  6 -1 -1</clus>
<clus scale="   87.601">  1  9  2 -1</clus>
<clus scale="   89.123">  7  8 -1 -1</clus>
<clus scale="  399.539">  2  5  1 -1</clus>
<clus scale="   87.601">  1  5  2 -1</clus>
</clustering>
</event>
<event>
 9    1  0.2674825E-005  0.1336891E+03  0.7546771E-02  0.1224454E+00
          1   -1    0    0  502    0  0.00000000000E+00  0.00000000000E+00  0.29653601797E+03  0.29653601797E+03  0.00000000000E+00 0. -1.
         -2   -1    0    0    0  501 -0.00000000000E+00 -0.00000000000E+00 -0.69808297062E+03  0.69808297062E+03  0.00000000000E+00 0.  1.
         23    2    1    2    0    0  0.54721582741E+02  0.86060842028E+02 -0.62636884656E+03  0.64113303048E+03  0.91174068027E+02 0.  0.
        -24    2    1    2    0    0  0.48909061791E+01 -0.80632888454E+02 -0.61822573164E+01  0.11485228614E+03  0.81407884527E+02 0.  0.
         13    1    4    4    0    0 -0.30886322470E+02 -0.39990665126E+02  0.20450250899E+02  0.54510833554E+02  0.00000000000E+00 0. -1.
        -14    1    4    4    0    0  0.35777228649E+02 -0.40642223329E+02 -0.26632508215E+02  0.60341452590E+02  0.00000000000E+00 0.  1.
        -13    1    3    3    0    0  0.57736450978E+02  0.77006935873E+01 -0.28097169345E+03  0.28694579798E+03  0.00000000000E+00 0.  1.
         13    1    3    3    0    0 -0.30148682365E+01  0.78360148441E+02 -0.34539715310E+03  0.35418723250E+03  0.00000000000E+00 0. -1.
         21    1    1    2  502  501 -0.59612488920E+02 -0.54279535735E+01  0.23100415122E+03  0.23863367197E+03  0.00000000000E+00 0. -1.
<scales pt_clust_5="13000.00000" pt_clust_6="13000.00000" pt_clust_7="13000.00000" pt_clust_8="13000.00000" pt_clust_9="59.85910"></scales>
<clustering>
<clus scale="   59.859">  1  9  2 -1</clus>
<clus scale="   81.408">  5  6 -1 -1</clus>
<clus scale="   91.174">  7  8 -1 -1</clus>
<clus scale="  127.229">  1  5  2 -1</clus>
<clus scale="   59.859">  1  5  2 -1</clus>
</clustering>
</event>
<event>
 9    1  0.2674825E-005  0.9223326E+02  0.7546771E-02  0.1302203E+00
         -4   -1    0    0    0  501 -0.00000000000E+00  0.00000000000E+00  0.31033375041E+03  0.31033375041E+03  0.00000000000E+00 0.  1.
          3   -1    0    0  502    0  0.00000000000E+00 -0.00000000000E+00 -0.20943462152E+03  0.20943462152E+03  0.00000000000E+00 0. -1.
        -24    2    1    2    0    0 -0.16528675383E+02  0.18731799766E+02  0.20400163009E+03  0.22129422988E+03  0.82038976494E+02 0.  0.
         23    2    1    2    0    0  0.17240224891E+02  0.39043034774E+01  0.75342300886E+02  0.11859794334E+03  0.89869577283E+02 0.  0.
         11    1    3    3    0    0  0.28459741547E+02  0.12586618142E+02  0.13608243016E+03  0.13959515623E+03  0.00000000000E+00 0. -1.
        -12    1    3    3    0    0 -0.44988416930E+02  0.61451816249E+01  0.67919199932E+02  0.81699073645E+02  0.00000000000E+00 0.  1.
        -13    1    4    4    0    0  0.87332197379E+01 -0.42280330477E+02  0.25611397006E+02  0.50197999251E+02  0.00000000000E+00 0. -1.
         13    1    4    4    0    0  0.85070051536E+01  0.46184633955E+02  0.49730903880E+02  0.68399944086E+02  0.00000000000E+00 0.  1.
         21    1    1    2  502  501 -0.71154950890E+00 -0.22636103244E+02 -0.17844480208E+03  0.17987619871E+03  0.00000000000E+00 0. -1.
<scales pt_clust_5="13000.00000" pt_clust_6="13000.00000" pt_clust_7="13000.00000" pt_clust_8="13000.00000" pt_clust_9="22.64728"></scales>
<clustering>
<clus scale="   22.647">  2  9  1 -1</clus>
<clus scale="   82.039">  5  6 -1 -1</clus>
<clus scale="   84.622">  1  5  2 -1</clus>
<clus scale="   89.870">  7  8 -1 -1</clus>
<clus scale="   22.647">  2  5  1 -1</clus>
</clustering>
</event>
<event>
 9    1  0.2674825E-005  0.1071241E+03  0.7546771E-02  0.1270609E+00
         -2   -1    0    0    0  501 -0.00000000000E+00  0.00000000000E+00  0.47703052481E+02  0.47703052481E+02  0.00000000000E+00 0.  1.
          1   -1    0    0  502    0  0.00000000000E+00 -0.00000000000E+00 -0.63979474635E+03  0.63979474635E+03  0.00000000000E+00 0. -1.
         23    2    1    2    0    0 -0.36592178148E+01 -0.71744020813E+02 -0.60257436020E+02  0.13135336499E+03  0.91989964132E+02 0.  0.
        -24    2    1    2    0    0  0.38497285149E+01 -0.53976293295E+01 -0.33471515497E+03  0.34446823962E+03  0.81118298349E+02 0.  0.
         11    1    4    4    0    0  0.26506204083E+02  0.28793842683E+02 -0.13366082441E+03  0.13927268294E+03  0.00000000000E+00 0. -1.
        -12    1    4    4    0    0 -0.22656475568E+02 -0.34191472012E+02 -0.20105433056E+03  0.20519555667E+03  0.00000000000E+00 0.  1.
        -13    1    3    3    0    0  0.37439643147E+02 -0.47529057441E+01 -0.24597430105E+02  0.45048313618E+02  0.00000000000E+00 0. -1.
         13    1    3    3    0    0 -0.41098860962E+02 -0.66991115069E+02 -0.35660005915E+02  0.86305051372E+02  0.00000000000E+00 0.  1.
         21    1    1    2  502  501 -0.19051070010E+00  0.77141650142E+02 -0.19711910288E+03  0.21167619422E+03  0.00000000000E+00 0. -1.
<scales pt_clust_5="13000.00000" pt_clust_6="13000.00000" pt_clust_7="13000.00000" pt_clust_8="13000.00000" pt_clust_9="77.14189"></scales>
<clustering>
<clus scale="   77.142">  2  9  1 -1</clus>
<clus scale="   81.118">  5  6 -1 -1</clus>
<clus scale="   91.990">  7  8 -1 -1</clus>
<clus scale="   97.947">  2  5  1 -1</clus>
<clus scale="   77.142">  2  5  1 -1</clus>
</clustering>
</event>
<event>
 9    1  0.2674825E-005  0.2621219E+03  0.7546771E-02  0.1150524E+00
          1   -1    0    0  502    0  0.00000000000E+00  0.00000000000E+00  0.66050239323E+03  0.66050239323E+03  0.00000000000E+00 0. -1.
         -2   -1    0    0    0  501 -0.00000000000E+00 -0.00000000000E+00 -0.14303871305E+03  0.14303871305E+03  0.00000000000E+00 0.  1.
        -24    2    1    2    0    0 -0.19950233362E+02  0.32408257541E+02  0.26536115815E+02  0.91150719698E+02  0.78460061756E+02 0.  0.
         23    2    1    2    0    0  0.19114097558E+03 -0.17979598636E+03  0.34858174818E+03  0.44538524766E+03  0.89427704937E+02 0.  0.
         13    1    3    3    0    0 -0.45141254402E+02  0.27345356104E+02  0.35869668355E+02  0.63813278065E+02  0.00000000000E+00 0. -1.
        -14    1    3    3    0    0  0.25191021040E+02  0.50629014366E+01 -0.93335525397E+01  0.27337441633E+02  0.00000000000E+00 0.  1.
        -11    1    4    4    0    0  0.64678265450E+02 -0.11724773212E+03  0.19808379022E+03  0.23909725355E+03  0.00000000000E+00 0. -1.
         11    1    4    4    0    0  0.12646271013E+03 -0.62548254239E+02  0.15049795796E+03  0.20628799411E+03  0.00000000000E+00 0.  1.
         21    1    1    2  502  501 -0.17119074222E+03  0.14738772882E+03  0.14234581618E+03  0.26700513892E+03  0.00000000000E+00 0.  1.
<scales pt_clust_5="13000.00000" pt_clust_6="13000.00000" pt_clust_7="13000.00000" pt_clust_8="13000.00000" pt_clust_9="246.39513"></scales>
<clustering>
<clus scale="   78.460">  5  6 -1 -1</clus>
<clus scale="   87.203">  2  5  1 -1</clus>
<clus scale="   89.428">  7  8 -1 -1</clus>
<clus scale="  246.395">  2  9  1 -1</clus>
<clus scale="  262.122">  1  5  2 -1</clus>
</clustering>
</event>
<event>
 9    1  0.2674825E-005  0.9693855E+02  0.7546771E-02  0.1293894E+00
         -2   -1    0    0    0  501 -0.00000000000E+00  0.00000000000E+00  0.10592682205E+04  0.10592682205E+04  0.00000000000E+00 0.  1.
          1   -1    0    0  502    0  0.00000000000E+00 -0.00000000000E+00 -0.40643644921E+02  0.40643644921E+02  0.00000000000E+00 0. -1.
        -24    2    1    2    0    0 -0.36904790364E+02 -0.10820807138E+02  0.81755810606E+03  0.82240784941E+03  0.80463411378E+02 0.  0.
         23    2    1    2    0    0 -0.24808887548E+02 -0.61329991080E+01  0.18927307343E+03  0.21242641790E+03  0.92992430413E+02 0.  0.
         11    1    3    3    0    0 -0.25679443280E+02  0.26601376872E+02  0.18581924740E+03  0.18946202723E+03  0.00000000000E+00 0. -1.
        -12    1    3    3    0    0 -0.11225347084E+02 -0.37422184010E+02  0.63173885866E+03  0.63294582218E+03  0.00000000000E+00 0.  1.
        -13    1    4    4    0    0 -0.54520649994E+02 -0.26093425684E+02  0.11211453355E+03  0.12736968545E+03  0.00000000000E+00 0.  1.
         13    1    4    4    0    0  0.29711762446E+02  0.19960426576E+02  0.77158539888E+02  0.85056732446E+02  0.00000000000E+00 0. -1.
         21    1    1    2  502  501  0.61713677912E+02  0.16953806246E+02  0.11793396111E+02  0.65077598139E+02  0.00000000000E+00 0. -1.
<scales pt_clust_5="13000.00000" pt_clust_6="13000.00000" pt_clust_7="13000.00000" pt_clust_8="13000.00000" pt_clust_9="64.00007"></scales>
<clustering>
<clus scale="   64.000">  2  9  1 -1</clus>
<clus scale="   80.463">  5  6 -1 -1</clus>
<clus scale="   84.993">  1  5  2 -1</clus>
<clus scale="   92.992">  7  8 -1 -1</clus>
<clus scale="   64.000">  2  5  1 -1</clus>
</clustering>
</event>
<event>
 9    1  0.2674825E-005  0.9261633E+02  0.7546771E-02  0.1303215E+00
         -2   -1    0    0    0  501 -0.00000000000E+00  0.00000000000E+00  0.14536230254E+03  0.14536230254E+03  0.00000000000E+00 0.  1.
          1   -1    0    0  502    0  0.00000000000E+00 -0.00000000000E+00 -0.28831076657E+03  0.28831076657E+03  0.00000000000E+00 0. -1.
        -24    2    1    2    0    0  0.94352385379E+01  0.95902673152E+01  0.11270364271E+03  0.13932112775E+03  0.80791513203E+02 0.  0.
         23    2    1    2    0    0  0.36993499015E+01 -0.41239397892E+02 -0.23172536003E+03  0.25255871119E+03  0.91514408644E+02 0.  0.
         13    1    3    3    0    0  0.41901881570E+02  0.21502760202E+02  0.59852336213E+02  0.76160610066E+02  0.00000000000E+00 0. -1.
        -14    1    3    3    0    0 -0.32466643032E+02 -0.11912492887E+02  0.52851306493E+02  0.63160517688E+02  0.00000000000E+00 0.  1.
        -13    1    4    4    0    0 -0.40485124793E+02 -0.72822571987E+01 -0.66552558739E+02  0.78238862940E+02  0.00000000000E+00 0.  1.
         13    1    4    4    0    0  0.44184474695E+02 -0.33957140693E+02 -0.16517280129E+03  0.17431984825E+03  0.00000000000E+00 0. -1.
         21    1    1    2  502  501 -0.13134588439E+02  0.31649130577E+02 -0.23926746709E+02  0.41793230167E+02  0.00000000000E+00 0.  1.
<scales pt_clust_5="13000.00000" pt_clust_6="13000.00000" pt_clust_7="13000.00000" pt_clust_8="13000.00000" pt_clust_9="34.26638"></scales>
<clustering>
<clus scale="   34.266">  2  9  1 -1</clus>
<clus scale="   80.792">  5  6 -1 -1</clus>
<clus scale="   82.038">  1  5  2 -1</clus>
<clus scale="   91.514">  7  8 -1 -1</clus>
<clus scale="   34.266">  2  5  1 -1</clus>
</clustering>
</event>
<event>
 9    1  0.2674825E-005  0.1012313E+03  0.7546771E-02  0.1285460E+00
          1   -1    0    0  502    0  0.00000000000E+00  0.00000000000E+00  0.36502470208E+03  0.36502470208E+03  0.00000000000E+00 0. -1.
         -2   -1    0    0    0  501 -0.00000000000E+00 -0.00000000000E+00 -0.79784768318E+02  0.79784768318E+02  0.00000000000E+00 0.  1.
         23    2    1    2    0    0 -0.12065379101E+02  0.28614080156E+02 -0.32917589248E+02  0.10589897988E+03  0.95742818536E+02 0.  0.
        -24    2    1    2    0    0  0.50804214153E+01 -0.48571639561E+02  0.27586228653E+03  0.29162433145E+03  0.80992189190E+02 0.  0.
         11    1    4    4    0    0  0.38441707555E+02 -0.33769232643E+02  0.21181602404E+03  0.21790859091E+03  0.00000000000E+00 0. -1.
        -12    1    4    4    0    0 -0.33361286140E+02 -0.14802406918E+02  0.64046262493E+02  0.73715740536E+02  0.00000000000E+00 0.  1.
        -13    1    3    3    0    0 -0.38003603387E+02 -0.97671726987E+01 -0.43291153877E+02  0.58427694948E+02  0.00000000000E+00 0.  1.
         13    1    3    3    0    0  0.25938224286E+02  0.38381252854E+02  0.10373564629E+02  0.47471284930E+02  0.00000000000E+00 0. -1.
         21    1    1    2  502  501  0.69849576853E+01  0.19957559405E+02  0.42295236480E+02  0.47286159076E+02  0.00000000000E+00 0. -1.
<scales pt_clust_5="13000.00000" pt_clust_6="13000.00000" pt_clust_7="13000.00000" pt_clust_8="13000.00000" pt_clust_9="21.14459"></scales>
<clustering>
<clus scale="   21.145">  1  9  2 -1</clus>
<clus scale="   80.992">  5  6 -1 -1</clus>
<clus scale="   87.412">  1  5  2 -1</clus>
<clus scale="   95.743">  7  8 -1 -1</clus>
<clus scale="   21.145">  1  5  2 -1</clus>
</clustering>
</event>
<event>
 9    1  0.2674825E-005  0.9379582E+02  0.7546771E-02  0.1307594E+00
         -2   -1    0    0    0  501 -0.00000000000E+00  0.00000000000E+00  0.46553921801E+02  0.46553921801E+02  0.00000000000E+00 0.  1.
          1   -1    0    0  502    0  0.00000000000E+00 -0.00000000000E+00 -0.40841132597E+03  0.40841132597E+03  0.00000000000E+00 0. -1.
        -24    2    1    2    0    0  0.16332324367E+02  0.74410977562E+01 -0.32070849129E+02  0.81198169306E+02  0.72405031453E+02 0.  0.
         23    2    1    2    0    0  0.51538401681E+02 -0.10204822482E+02 -0.21895781630E+03  0.24377829833E+03  0.93407645143E+02 0.  0.
         11    1    3    3    0    0  0.34802256382E+01  0.27637421226E+02 -0.45797088220E+02  0.53603286392E+02  0.00000000000E+00 0. -1.
        -12    1    3    3    0    0  0.12852098729E+02 -0.20196323470E+02  0.13726239091E+02  0.27594882914E+02  0.00000000000E+00 0.  1.
        -11    1    4    4    0    0  0.61478422308E+02  0.22800959983E+02 -0.18096854473E+03  0.19248141305E+03  0.00000000000E+00 0. -1.
         11    1    4    4    0    0 -0.99400206267E+01 -0.33005782465E+02 -0.37989271563E+02  0.51296885286E+02  0.00000000000E+00 0.  1.
         21    1    1    2  502  501 -0.67870726048E+02  0.27637247254E+01 -0.11082873874E+03  0.12998878013E+03  0.00000000000E+00 0.  1.
<scales pt_clust_5="13000.00000" pt_clust_6="13000.00000" pt_clust_7="13000.00000" pt_clust_8="13000.00000" pt_clust_9="67.92697"></scales>
<clustering>
<clus scale="   67.927">  2  9  1 -1</clus>
<clus scale="   72.405">  5  6 -1 -1</clus>
<clus scale="   72.905">  1  5  2 -1</clus>
<clus scale="   93.408">  7  8 -1 -1</clus>
<clus scale="   67.927">  2  5  1 -1</clus>
</clustering>
</event>
<event>
 9    1  0.2674825E-005  0.1444330E+03  0.7546771E-02  0.1232922E+00
          1   -1    0    0  502    0  0.00000000000E+00  0.00000000000E+00  0.19647442807E+03  0.19647442807E+03  0.00000000000E+00 0. -1.
         -2   -1    0    0    0  501 -0.00000000000E+00 -0.00000000000E+00 -0.22635871421E+03  0.22635871421E+03  0.00000000000E+00 0.  1.
        -24    2    1    2    0    0  0.72065479255E+01 -0.26735151594E+02 -0.12230744992E+03  0.14875945613E+03  0.80022252016E+02 0.  0.
         23    2    1    2    0    0  0.30120730171E+01 -0.97103770825E+02  0.39320339926E+02  0.13894260600E+03  0.91218110798E+02 0.  0.
         13    1    3    3    0    0  0.25545482312E+02  0.12315657869E+02 -0.12904541020E+02  0.31157250749E+02  0.00000000000E+00 0. -1.
        -14    1    3    3    0    0 -0.18338934386E+02 -0.39050809463E+02 -0.10940290890E+03  0.11760220538E+03  0.00000000000E+00 0.  1.
        -13    1    4    4    0    0 -0.27760313454E+02 -0.61853213380E+01  0.31800771306E+02  0.42663594067E+02  0.00000000000E+00 0. -1.
         13    1    4    4    0    0  0.30772386471E+02 -0.90918449487E+02  0.75195686197E+01  0.96279011931E+02  0.00000000000E+00 0.  1.
         21    1    1    2  502  501 -0.10218620943E+02  0.12383892242E+03  0.53102823856E+02  0.13513108015E+03  0.00000000000E+00 0.  1.
<scales pt_clust_5="13000.00000" pt_clust_6="13000.00000" pt_clust_7="13000.00000" pt_clust_8="13000.00000" pt_clust_9="111.98285"></scales>
<clustering>
<clus scale="   80.022">  5  6 -1 -1</clus>
<clus scale="   84.677">  2  5  1 -1</clus>
<clus scale="   91.218">  7  8 -1 -1</clus>
<clus scale="  111.983">  2  9  1 -1</clus>
<clus scale="  144.433">  1  5  2 -1</clus>
</clustering>
</event>
<event>
 9    1  0.2674825E-005  0.2695329E+03  0.7546771E-02  0.1102117E+00
         -2   -1    0    0    0  501 -0.00000000000E+00  0.00000000000E+00  0.12580756556E+03  0.12580756556E+03  0.00000000000E+00 0.  1.
          1   -1    0    0  502    0  0.00000000000E+00 -0.00000000000E+00 -0.10392062868E+04  0.10392062868E+04  0.00000000000E+00 0. -1.
         23    2    1    2    0    0  0.77183672406E+02 -0.24692005457E+03 -0.92739275412E+02  0.28964093809E+03  0.91457461032E+02 0.  0.
        -24    2    1    2    0    0 -0.11106388648E+03  0.20891382652E+03 -0.72925285608E+03  0.77074257964E+03  0.79083640376E+02 0.  0.
         13    1    4    4    0    0 -0.45326018772E+02  0.15133683624E+03 -0.53285956882E+03  0.55578467598E+03  0.00000000000E+00 0. -1.
        -14    1    4    4    0    0 -0.65737867709E+02  0.57576990286E+02 -0.19639328726E+03  0.21495790365E+03  0.00000000000E+00 0.  1.
        -11    1    3    3    0    0  0.14384388502E+02 -0.16990901871E+03 -0.32953022179E+02  0.17367177935E+03  0.00000000000E+00 0.  1.
         11    1    3    3    0    0  0.62799283904E+02 -0.77011035856E+02 -0.59786253233E+02  0.11596915874E+03  0.00000000000E+00 0. -1.
         21    1    1    2  502  501  0.33880214076E+02  0.38006228046E+02 -0.91406589739E+02  0.10463033463E+03  0.00000000000E+00 0. -1.
<scales pt_clust_5="13000.00000" pt_clust_6="13000.00000" pt_clust_7="13000.00000" pt_clust_8="13000.00000" pt_clust_9="50.91505"></scales>
<clustering>
<clus scale="   50.915">  2  9  1 -1</clus>
<clus scale="   79.084">  5  6 -1 -1</clus>
<clus scale="   91.457">  7  8 -1 -1</clus>
<clus scale="  265.589">  2  5  1 -1</clus>
<clus scale="   50.915">  2  5  1 -1</clus>
</clustering>
</event>
<event>
 9    1  0.2674825E-005  0.1577933E+03  0.7546771E-02  0.1192535E+00
          1   -1    0    0  502    0  0.00000000000E+00  0.00000000000E+00  0.66963319547E+03  0.66963319547E+03  0.00000000000E+00 0. -1.
         -2   -1    0    0    0  501 -0.00000000000E+00 -0.00000000000E+00 -0.49074455977E+02  0.49074455977E+02  0.00000000000E+00 0.  1.
        -24    2    1    2    0    0 -0.11728634368E+03  0.17821067129E+02  0.17632143615E+03  0.23386111720E+03  0.97611968753E+02 0.  0.
         23    2    1    2    0    0  0.13500074076E+03  0.64657274883E+01  0.34840184682E+03  0.38440708491E+03  0.90099691574E+02 0.  0.
         11    1    3    3    0    0 -0.36273777503E+02  0.10657976592E+02  0.13959561007E+03  0.14462473423E+03  0.00000000000E+00 0. -1.
        -12    1    3    3    0    0 -0.81012566180E+02  0.71630905368E+01  0.36725826083E+02  0.89236382976E+02  0.00000000000E+00 0.  1.
        -11    1    4    4    0    0  0.82633893396E+02 -0.19848087355E+02  0.28787121689E+03  0.30015353475E+03  0.00000000000E+00 0. -1.
         11    1    4    4    0    0  0.52366847366E+02  0.26313814844E+02  0.60530629936E+02  0.84253550164E+02  0.00000000000E+00 0.  1.
         21    1    1    2  502  501 -0.17714397079E+02 -0.24286794617E+02  0.95835456517E+02  0.10043944933E+03  0.00000000000E+00 0.  1.
<scales pt_clust_5="13000.00000" pt_clust_6="13000.00000" pt_clust_7="13000.00000" pt_clust_8="13000.00000" pt_clust_9="30.06074"></scales>
<clustering>
<clus scale="   30.061">  1  9  2 -1</clus>
<clus scale="   90.100">  7  8 -1 -1</clus>
<clus scale="   97.612">  5  6 -1 -1</clus>
<clus scale="  153.260">  1  7  2 -1</clus>
<clus scale="   30.061">  1  5  2 -1</clus>
</clustering>
</event>
<event>
 9    1  0.2674825E-005  0.1387664E+03  0.7546771E-02  0.1216552E+00
         -2   -1    0    0    0  501 -0.00000000000E+00  0.00000000000E+00  0.10399033605E+03  0.10399033605E+03  0.00000000000E+00 0.  1.
          1   -1    0    0  502    0  0.00000000000E+00 -0.00000000000E+00 -0.58135833057E+03  0.58135833057E+03  0.00000000000E+00 0. -1.
         23    2    1    2    0    0  0.10226933198E+03 -0.16190917707E+02  0.29062620548E+02  0.13937223667E+03  0.88649999219E+02 0.  0.
        -24    2    1    2    0    0 -0.12638738929E+03 -0.50622578927E+01 -0.28544613856E+03  0.32266606964E+03  0.81452414649E+02 0.  0.
         11    1    4    4    0    0 -0.94007606693E+02  0.20786799391E+02 -0.25084091017E+03  0.26868323982E+03  0.00000000000E+00 0. -1.
        -12    1    4    4    0    0 -0.32379782594E+02 -0.25849057284E+02 -0.34605228386E+02  0.53982829816E+02  0.00000000000E+00 0.  1.
        -11    1    3    3    0    0  0.41428981173E+02 -0.10514208654E+02  0.57767700318E+02  0.71861090060E+02  0.00000000000E+00 0.  1.
         11    1    3    3    0    0  0.60840350809E+02 -0.56767090535E+01 -0.28705079770E+02  0.67511146612E+02  0.00000000000E+00 0. -1.
         21    1    1    2  502  501  0.24118057306E+02  0.21253175600E+02 -0.22098447651E+03  0.22331036030E+03  0.00000000000E+00 0. -1.
<scales pt_clust_5="13000.00000" pt_clust_6="13000.00000" pt_clust_7="13000.00000" pt_clust_8="13000.00000" pt_clust_9="32.14620"></scales>
<clustering>
<clus scale="   32.146">  2  9  1 -1</clus>
<clus scale="   81.452">  5  6 -1 -1</clus>
<clus scale="   88.650">  7  8 -1 -1</clus>
<clus scale="  134.283">  2  5  1 -1</clus>
<clus scale="   32.146">  2  5  1 -1</clus>
</clustering>
</event>
<event>
 9    1  0.2674825E-005  0.9855805E+02  0.7546771E-02  0.1288691E+00
         -4   -1    0    0    0  501 -0.00000000000E+00  0.00000000000E+00  0.34984805380E+03  0.34984805380E+03  0.00000000000E+00 0.  1.
          3   -1    0    0  502    0  0.00000000000E+00 -0.00000000000E+00 -0.62045819339E+02  0.62045819339E+02  0.00000000000E+00 0. -1.
         23    2    1    2    0    0  0.98899502703E+00  0.39667794520E+02  0.26347529708E+03  0.28160519365E+03  0.91146809526E+02 0.  0.
        -24    2    1    2    0    0  0.33168307224E+02 -0.26157814531E+02  0.15953176619E+02  0.92614275371E+02  0.80861191515E+02 0.  0.
         11    1    4    4    0    0  0.52578775994E+02  0.66763355453E+01  0.11263729811E+02  0.54184617287E+02  0.00000000000E+00 0. -1.
        -12    1    4    4    0    0 -0.19410468770E+02 -0.32834150076E+02  0.46894468079E+01  0.38429658084E+02  0.00000000000E+00 0.  1.
        -11    1    3    3    0    0 -0.57612316402E+01 -0.25287911618E+02  0.13517545138E+03  0.13764110186E+03  0.00000000000E+00 0.  1.
         11    1    3    3    0    0  0.67502266673E+01  0.64955706139E+02  0.12829984570E+03  0.14396409179E+03  0.00000000000E+00 0. -1.
         21    1    1    2  502  501 -0.34157302251E+02 -0.13509979990E+02  0.83737607657E+01  0.37674404120E+02  0.00000000000E+00 0. -1.
<scales pt_clust_5="13000.00000" pt_clust_6="13000.00000" pt_clust_7="13000.00000" pt_clust_8="13000.00000" pt_clust_9="36.73201"></scales>
<clustering>
<clus scale="   36.732">  2  9  1 -1</clus>
<clus scale="   80.861">  5  6 -1 -1</clus>
<clus scale="   89.132">  2  5  1 -1</clus>
<clus scale="   91.147">  7  8 -1 -1</clus>
<clus scale="   36.732">  2  5  1 -1</clus>
</clustering>
</event>
<event>
 9    1  0.2674825E-005  0.2038419E+03  0.7546771E-02  0.1147579E+00
          1   -1    0    0  502    0  0.00000000000E+00  0.00000000000E+00  0.65514152177E+03  0.65514152177E+03  0.00000000000E+00 0. -1.
         -2   -1    0    0    0  501 -0.00000000000E+00 -0.00000000000E+00 -0.14348935319E+03  0.14348935319E+03  0.00000000000E+00 0.  1.
        -24    2    1    2    0    0  0.14741277409E+03  0.13505933032E+03 -0.13889103332E+01  0.21427608777E+03  0.77076352084E+02 0.  0.
         23    2    1    2    0    0 -0.11849969564E+03 -0.39200672530E+02  0.42204441249E+03  0.44905792219E+03  0.89177692162E+02 0.  0.
         13    1    3    3    0    0  0.26306988493E+02 -0.55612526628E+01 -0.94984695578E+01  0.28516768728E+02  0.00000000000E+00 0. -1.
        -14    1    3    3    0    0  0.12110578559E+03  0.14062058298E+03  0.81095592246E+01  0.18575931905E+03  0.00000000000E+00 0.  1.
        -11    1    4    4    0    0 -0.70195971782E+02 -0.51185869191E+02  0.15748704677E+03  0.17986004993E+03  0.00000000000E+00 0.  1.
         11    1    4    4    0    0 -0.48303723854E+02  0.11985196661E+02  0.26455736572E+03  0.26919787227E+03  0.00000000000E+00 0. -1.
         21    1    1    2  502  501 -0.28913078449E+02 -0.95858657787E+02  0.90996666418E+02  0.13529686499E+03  0.00000000000E+00 0. -1.
<scales pt_clust_5="13000.00000" pt_clust_6="13000.00000" pt_clust_7="13000.00000" pt_clust_8="13000.00000" pt_clust_9="100.12416"></scales>
<clustering>
<clus scale="   77.076">  5  6 -1 -1</clus>
<clus scale="   89.178">  7  8 -1 -1</clus>
<clus scale="  100.124">  1  9  2 -1</clus>
<clus scale="  198.846">  2  5  1 -1</clus>
<clus scale="  100.124">  1  5  2 -1</clus>
</clustering>
</event>
<event>
 9    1  0.2674825E-005  0.2183259E+03  0.7546771E-02  0.1138094E+00
          1   -1    0    0  502    0  0.00000000000E+00  0.00000000000E+00  0.91285378535E+03  0.91285378535E+03  0.00000000000E+00 0. -1.
         -2   -1    0    0    0  501 -0.00000000000E+00 -0.00000000000E+00 -0.82071188025E+02  0.82071188025E+02  0.00000000000E+00 0.  1.
        -24    2    1    2    0    0 -0.97853458119E+02  0.15801719843E+03  0.10844546914E+03  0.22606025450E+03  0.69268207867E+02 0.  0.
         23    2    1    2    0    0  0.10997916921E+03 -0.17975136020E+03  0.61390675949E+03  0.65761476827E+03  0.10568682479E+03 0.  0.
         11    1    3    3    0    0 -0.57352704734E+02  0.31660237277E+02  0.40008427552E+02  0.76761824105E+02  0.00000000000E+00 0. -1.
        -12    1    3    3    0    0 -0.40500753386E+02  0.12635696115E+03  0.68437041592E+02  0.14929843039E+03  0.00000000000E+00 0.  1.
        -13    1    4    4    0    0  0.37564513329E+02 -0.12526362269E+03  0.46734972744E+03  0.48530179844E+03  0.00000000000E+00 0. -1.
         13    1    4    4    0    0  0.72414655880E+02 -0.54487737511E+02  0.14655703206E+03  0.17231296983E+03  0.00000000000E+00 0.  1.
         21    1    1    2  502  501 -0.12125711089E+02  0.21734161775E+02  0.10843036869E+03  0.11124995061E+03  0.00000000000E+00 0. -1.
<scales pt_clust_5="13000.00000" pt_clust_6="13000.00000" pt_clust_7="13000.00000" pt_clust_8="13000.00000" pt_clust_9="24.88788"></scales>
<clustering>
<clus scale="   24.888">  1  9  2 -1</clus>
<clus scale="   69.268">  5  6 -1 -1</clus>
<clus scale="  105.687">  7  8 -1 -1</clus>
<clus scale="  203.211">  2  5  1 -1</clus>
<clus scale="   24.888">  1  5  2 -1</clus>
</clustering>
</event>
<event>
 9    1  0.2674825E-005  0.1287683E+03  0.7546771E-02  0.1230470E+00
         -2   -1    0    0    0  501 -0.00000000000E+00  0.00000000000E+00  0.25164537202E+03  0.25164537202E+03  0.00000000000E+00 0.  1.
          1   -1    0    0  502    0  0.00000000000E+00 -0.00000000000E+00 -0.31233211366E+03  0.31233211366E+03  0.00000000000E+00 0. -1.
        -24    2    1    2    0    0 -0.90985873199E+02  0.91130978462E+02  0.18044037055E+03  0.23635651097E+03  0.81990173800E+02 0.  0.
         23    2    1    2    0    0  0.73793610951E+02 -0.56489409686E+02 -0.25630865234E+03  0.28607471939E+03  0.86649116468E+02 0.  0.
         13    1    3    3    0    0 -0.22994012971E+02  0.26534295743E+02  0.24831346425E+01  0.35198855673E+02  0.00000000000E+00 0. -1.
        -14    1    3    3    0    0 -0.67991860228E+02  0.64596682720E+02  0.17795723590E+03  0.20115765530E+03  0.00000000000E+00 0.  1.
        -13    1    4    4    0    0  0.50386364881E+02  0.14400408486E+02 -0.10674033924E+03  0.11891029203E+03  0.00000000000E+00 0.  1.
         13    1    4    4    0    0  0.23407246070E+02 -0.70889818172E+02 -0.14956831311E+03  0.16716442736E+03  0.00000000000E+00 0. -1.
         21    1    1    2  502  501  0.17192262247E+02 -0.34641568776E+02  0.15181540157E+02  0.41546255307E+02  0.00000000000E+00 0. -1.
<scales pt_clust_5="13000.00000" pt_clust_6="13000.00000" pt_clust_7="13000.00000" pt_clust_8="13000.00000" pt_clust_9="38.67315"></scales>
<clustering>
<clus scale="   38.673">  1  9  2 -1</clus>
<clus scale="   81.990">  5  6 -1 -1</clus>
<clus scale="   86.649">  7  8 -1 -1</clus>
<clus scale="  125.681">  1  5  2 -1</clus>
<clus scale="  128.768">  2  5  1 -1</clus>
</clustering>
</event>
<event>
 9    1  0.2674825E-005  0.1160833E+03  0.7546771E-02  0.1254253E+00
          1   -1    0    0  502    0  0.00000000000E+00  0.00000000000E+00  0.18288215009E+03  0.18288215009E+03  0.00000000000E+00 0. -1.
         -2   -1    0    0    0  501 -0.00000000000E+00 -0.00000000000E+00 -0.20132528368E+03  0.20132528368E+03  0.00000000000E+00 0.  1.
        -24    2    1    2    0    0  0.59225148050E+02 -0.38493259932E+02 -0.15170074588E+03  0.18494978583E+03  0.78765206521E+02 0.  0.
         23    2    1    2    0    0 -0.72898767707E+02  0.21650603340E+02  0.85292911073E+02  0.14661493222E+03  0.91859015416E+02 0.  0.
         13    1    3    3    0    0  0.36530058039E+02  0.13361631472E+02 -0.25157277701E+02  0.46323503292E+02  0.00000000000E+00 0. -1.
        -14    1    3    3    0    0  0.22695090011E+02 -0.51854891405E+02 -0.12654346817E+03  0.13862628254E+03  0.00000000000E+00 0.  1.
        -13    1    4    4    0    0 -0.50948332619E+02  0.78200631524E+01  0.10301808768E+03  0.11519380353E+03  0.00000000000E+00 0. -1.
         13    1    4    4    0    0 -0.21950435088E+02  0.13830540188E+02 -0.17725176603E+02  0.31421128688E+02  0.00000000000E+00 0.  1.
         21    1    1    2  502  501  0.13673619657E+02  0.16842656592E+02  0.47964701211E+02  0.52642715715E+02  0.00000000000E+00 0. -1.
<scales pt_clust_5="13000.00000" pt_clust_6="13000.00000" pt_clust_7="13000.00000" pt_clust_8="13000.00000" pt_clust_9="21.69431"></scales>
<clustering>
<clus scale="   21.694">  1  9  2 -1</clus>
<clus scale="   78.765">  5  6 -1 -1</clus>
<clus scale="   91.859">  7  8 -1 -1</clus>
<clus scale="  106.025">  2  5  1 -1</clus>
<clus scale="   21.694">  1  5  2 -1</clus>
</clustering>
</event>
<event>
 9    1  0.2674825E-005  0.1308654E+03  0.7546771E-02  0.1231604E+00
         -4   -1    0    0    0  501 -0.00000000000E+00  0.00000000000E+00  0.17141812079E+03  0.17141812079E+03  0.00000000000E+00 0.  1.
          3   -1    0    0  502    0  0.00000000000E+00 -0.00000000000E+00 -0.22427444259E+03  0.22427444259E+03  0.00000000000E+00 0. -1.
        -24    2    1    2    0    0 -0.23572437148E+02 -0.95548948624E+02  0.10287392205E+03  0.16071895125E+03  0.74580668241E+02 0.  0.
         23    2    1    2    0    0 -0.19602323358E+01  0.45750460347E+02 -0.14291713994E+03  0.17756296610E+03  0.94901796128E+02 0.  0.
         11    1    3    3    0    0 -0.14348054343E+02 -0.45602714543E+02  0.20807836536E+01  0.47851895445E+02  0.00000000000E+00 0. -1.
        -12    1    3    3    0    0 -0.92243828045E+01 -0.49946234081E+02  0.10079313840E+03  0.11286705580E+03  0.00000000000E+00 0.  1.
        -11    1    4    4    0    0  0.44545810466E+02  0.31204089574E+02 -0.56965872688E+02  0.78759984048E+02  0.00000000000E+00 0. -1.
         11    1    4    4    0    0 -0.46506042801E+02  0.14546370773E+02 -0.85951267256E+02  0.98802982053E+02  0.00000000000E+00 0.  1.
         21    1    1    2  502  501  0.25532669484E+02  0.49798488277E+02 -0.12813103913E+02  0.57410646029E+02  0.00000000000E+00 0.  1.
<scales pt_clust_5="13000.00000" pt_clust_6="13000.00000" pt_clust_7="13000.00000" pt_clust_8="13000.00000" pt_clust_9="55.96255"></scales>
<clustering>
<clus scale="   55.963">  2  9  1 -1</clus>
<clus scale="   74.581">  5  6 -1 -1</clus>
<clus scale="   94.902">  7  8 -1 -1</clus>
<clus scale="  116.969">  1  5  2 -1</clus>
<clus scale="   55.963">  2  5  1 -1</clus>
</clustering>
</event>
<event>
 9    1  0.2674825E-005  0.2647486E+03  0.7546771E-02  0.1104950E+00
          1   -1    0    0  502    0  0.00000000000E+00  0.00000000000E+00  0.64973524270E+03  0.64973524270E+03  0.00000000000E+00 0. -1.
         -2   -1    0    0    0  501 -0.00000000000E+00 -0.00000000000E+00 -0.25376180313E+03  0.25376180313E+03  0.00000000000E+00 0.  1.
        -24    2    1    2    0    0  0.10407818697E+03  0.20936531728E+03  0.99271833868E+01  0.24726945423E+03  0.79859432393E+02 0.  0.
         23    2    1    2    0    0 -0.18571148687E+03 -0.19775140124E+03  0.27150420453E+02  0.28798161456E+03  0.92746385097E+02 0.  0.
         11    1    3    3    0    0  0.62235391251E+02  0.18624713984E+03  0.22992603490E+02  0.19771166086E+03  0.00000000000E+00 0. -1.
        -12    1    3    3    0    0  0.41842795718E+02  0.23118177441E+02 -0.13065420104E+02  0.49557793374E+02  0.00000000000E+00 0.  1.
        -11    1    4    4    0    0 -0.54837225007E+02 -0.92250156980E+01 -0.66572409481E+01  0.56004830310E+02  0.00000000000E+00 0. -1.
         11    1    4    4    0    0 -0.13087426187E+03 -0.18852638554E+03  0.33807661401E+02  0.23197678425E+03  0.00000000000E+00 0.  1.
         21    1    1    2  502  501  0.81633299905E+02 -0.11613916045E+02  0.35889583573E+03  0.36824597703E+03  0.00000000000E+00 0. -1.
<scales pt_clust_5="13000.00000" pt_clust_6="13000.00000" pt_clust_7="13000.00000" pt_clust_8="13000.00000" pt_clust_9="82.45531"></scales>
<clustering>
<clus scale="   79.859">  5  6 -1 -1</clus>
<clus scale="   82.455">  1  9  2 -1</clus>
<clus scale="   92.746">  7  8 -1 -1</clus>
<clus scale="  260.514">  2  5  1 -1</clus>
<clus scale="   82.455">  1  5  2 -1</clus>
</clustering>
</event>
<event>
 9    1  0.2674825E-005  0.9630582E+02  0.7546771E-02  0.1294110E+00
         -4   -1    0    0    0  501 -0.00000000000E+00  0.00000000000E+00  0.43618784013E+02  0.43618784013E+02  0.00000000000E+00 0.  1.
          3   -1    0    0  502    0  0.00000000000E+00 -0.00000000000E+00 -0.36194001498E+03  0.36194001498E+03  0.00000000000E+00 0. -1.
        -24    2    1    2    0    0  0.72028715335E+01  0.14492129239E+02 -0.25248552810E+02  0.85605234732E+02  0.80180194726E+02 0.  0.
         23    2    1    2    0    0 -0.20552006815E+02 -0.30085903472E+02 -0.27730846430E+03  0.29407160826E+03  0.90832702504E+02 0.  0.
         13    1    3    3    0    0 -0.13604737510E+02  0.19592121512E+02 -0.48463739328E+02  0.54015499051E+02  0.00000000000E+00 0. -1.
        -14    1    3    3    0    0  0.20807609043E+02 -0.50999922731E+01  0.23215186519E+02  0.31589735681E+02  0.00000000000E+00 0.  1.
        -13    1    4    4    0    0 -0.48334789736E+02 -0.32789832846E+02 -0.24259482275E+03  0.24952689847E+03  0.00000000000E+00 0. -1.
         13    1    4    4    0    0  0.27782782920E+02  0.27039293733E+01 -0.34713641550E+02  0.44544709793E+02  0.00000000000E+00 0.  1.
         21    1    1    2  502  501  0.13349135282E+02  0.15593774233E+02 -0.15764213862E+02  0.25881955998E+02  0.00000000000E+00 0.  1.
<scales pt_clust_5="13000.00000" pt_clust_6="13000.00000" pt_clust_7="13000.00000" pt_clust_8="13000.00000" pt_clust_9="20.52718"></scales>
<clustering>
<clus scale="   20.527">  1  9  2 -1</clus>
<clus scale="   80.180">  5  6 -1 -1</clus>
<clus scale="   86.331">  1  5  2 -1</clus>
<clus scale="   90.833">  7  8 -1 -1</clus>
<clus scale="   96.306">  2  5  1 -1</clus>
</clustering>
</event>
<event>
 9    1  0.2674825E-005  0.1012481E+03  0.7546771E-02  0.1283641E+00
         -4   -1    0    0    0  501 -0.00000000000E+00  0.00000000000E+00  0.45771458236E+03  0.45771458236E+03  0.00000000000E+00 0.  1.
          3   -1    0    0  502    0  0.00000000000E+00 -0.00000000000E+00 -0.83216852238E+02  0.83216852238E+02  0.00000000000E+00 0. -1.
         23    2    1    2    0    0 -0.43855188555E+02 -0.50360882783E+01  0.39884153841E+03  0.41189099160E+03  0.92903048678E+02 0.  0.
        -24    2    1    2    0    0  0.55650563516E+01  0.22914528564E+02 -0.18974834048E+02  0.86442335816E+02  0.80970288518E+02 0.  0.
         13    1    4    4    0    0 -0.27601832425E+02 -0.64176822597E+01 -0.29527214550E+02  0.40925593433E+02  0.00000000000E+00 0. -1.
        -14    1    4    4    0    0  0.33166888776E+02  0.29332210824E+02  0.10552380502E+02  0.45516742383E+02  0.00000000000E+00 0.  1.
        -11    1    3    3    0    0 -0.62081333051E+02 -0.18578726271E+02  0.36760766598E+03  0.37327557792E+03  0.00000000000E+00 0.  1.
         11    1    3    3    0    0  0.18226144496E+02  0.13542637993E+02  0.31233872428E+02  0.38615413682E+02  0.00000000000E+00 0. -1.
         21    1    1    2  502  501  0.38290132203E+02 -0.17878440286E+02 -0.53689742371E+01  0.42598107183E+02  0.00000000000E+00 0.  1.
<scales pt_clust_5="13000.00000" pt_clust_6="13000.00000" pt_clust_7="13000.00000" pt_clust_8="13000.00000" pt_clust_9="42.25841"></scales>
<clustering>
<clus scale="   42.258">  2  9  1 -1</clus>
<clus scale="   80.970">  5  6 -1 -1</clus>
<clus scale="   90.423">  2  5  1 -1</clus>
<clus scale="   92.903">  7  8 -1 -1</clus>
<clus scale="   42.258">  2  5  1 -1</clus>
</clustering>
</event>
<event>
 9    1  0.3870353E-005  0.1162331E+03  0.7546771E-02  0.1252313E+00
         -2   -1    0    0    0  501 -0.00000000000E+00  0.00000000000E+00  0.34147990353E+03  0.34147990353E+03  0.00000000000E+00 0.  1.
          1   -1    0    0  502    0  0.00000000000E+00 -0.00000000000E+00 -0.29099206347E+03  0.29099206347E+03  0.00000000000E+00 0. -1.
        -24    2    1    2    0    0 -0.24524201098E+02  0.70408665677E+02  0.31137748717E+03  0.33041071612E+03  0.81587285583E+02 0.  0.
         23    2    1    2    0    0 -0.99014276410E+01 -0.51059871524E+02 -0.22820445769E+03  0.25079897081E+03  0.90098282460E+02 0.  0.
         11    1    3    3    0    0 -0.14571935974E+02 -0.16654362866E+02  0.48444516455E+02  0.53259555904E+02  0.00000000000E+00 0. -1.
        -12    1    3    3    0    0 -0.99522651233E+01  0.87063028543E+02  0.26293297072E+03  0.27715116022E+03  0.00000000000E+00 0.  1.
        -11    1    4    4    0    0 -0.98563982461E+01  0.25512759753E+02 -0.65246892605E+02  0.70747483992E+02  0.00000000000E+00 0.  1.
         11    1    4    4    0    0 -0.45029394891E-01 -0.76572631277E+02 -0.16295756508E+03  0.18005148682E+03  0.00000000000E+00 0. -1.
         21    1    1    2  502  501  0.34425628739E+02 -0.19348794153E+02 -0.32685189436E+02  0.51262280067E+02  0.00000000000E+00 0. -1.
<scales pt_clust_5="13000.00000" pt_clust_6="13000.00000" pt_clust_7="13000.00000" pt_clust_8="13000.00000" pt_clust_9="39.49050"></scales>
<clustering>
<clus scale="   39.491">  2  9  1 -1</clus>
<clus scale="   81.587">  5  6 -1 -1</clus>
<clus scale="   90.098">  7  8 -1 -1</clus>
<clus scale="  109.768">  1  5  2 -1</clus>
<clus scale="   39.491">  2  5  1 -1</clus>
</clustering>
</event>
<event>
 9    1  0.2674825E-005  0.9267303E+02  0.7546771E-02  0.1303233E+00
          1   -1    0    0  502    0  0.00000000000E+00  0.00000000000E+00  0.53712640827E+02  0.53712640827E+02  0.00000000000E+00 0. -1.
         -2   -1    0    0    0  501 -0.00000000000E+00 -0.00000000000E+00 -0.46663841219E+03  0.46663841219E+03  0.00000000000E+00 0.  1.
        -24    2    1    2    0    0  0.47924792379E+02 -0.18583028571E+02 -0.23989918703E+03  0.25833215538E+03  0.80881196167E+02 0.  0.
         23    2    1    2    0    0  0.67048064235E+00 -0.15887037887E+02 -0.16617470404E+02  0.94646567297E+02  0.91809503110E+02 0.  0.
         13    1    3    3    0    0  0.54390268518E+02 -0.42211040254E+02 -0.19994135643E+03  0.21146304462E+03  0.00000000000E+00 0. -1.
        -14    1    3    3    0    0 -0.64654761386E+01  0.23628011683E+02 -0.39957830598E+02  0.46869110765E+02  0.00000000000E+00 0.  1.
        -13    1    4    4    0    0  0.19418065755E+02  0.31767936325E+02 -0.21849127254E+02  0.43169982833E+02  0.00000000000E+00 0.  1.
         13    1    4    4    0    0 -0.18747585113E+02 -0.47654974212E+02  0.52316568498E+01  0.51476584464E+02  0.00000000000E+00 0. -1.
         21    1    1    2  502  501 -0.48595273022E+02  0.34470066458E+02 -0.15640911393E+03  0.16737233034E+03  0.00000000000E+00 0.  1.
<scales pt_clust_5="13000.00000" pt_clust_6="13000.00000" pt_clust_7="13000.00000" pt_clust_8="13000.00000" pt_clust_9="59.57924"></scales>
<clustering>
<clus scale="   59.579">  2  9  1 -1</clus>
<clus scale="   80.881">  5  6 -1 -1</clus>
<clus scale="   81.860">  2  5  1 -1</clus>
<clus scale="   91.810">  7  8 -1 -1</clus>
<clus scale="   92.673">  1  5  2 -1</clus>
</clustering>
</event>
<event>
 9    1  0.2674825E-005  0.9589393E+02  0.7546771E-02  0.1292510E+00
         -2   -1    0    0    0  501 -0.00000000000E+00  0.00000000000E+00  0.66353020802E+03  0.66353020802E+03  0.00000000000E+00 0.  1.
          1   -1    0    0  502    0  0.00000000000E+00 -0.00000000000E+00 -0.29039087885E+02  0.29039087885E+02  0.00000000000E+00 0. -1.
        -24    2    1    2    0    0 -0.13359770589E+02  0.55346138123E+02  0.37615947263E+03  0.38939962734E+03  0.83032779344E+02 0.  0.
         23    2    1    2    0    0 -0.11902227215E+02 -0.28419090315E+02  0.88734261873E+02  0.12959977587E+03  0.89291796765E+02 0.  0.
         11    1    3    3    0    0 -0.39758765854E+02  0.35261463018E+02  0.31830313090E+03  0.32270886783E+03  0.00000000000E+00 0. -1.
        -12    1    3    3    0    0  0.26398995265E+02  0.20084675104E+02  0.57856341733E+02  0.66690759508E+02  0.00000000000E+00 0.  1.
        -13    1    4    4    0    0  0.84699503891E+01 -0.57891170250E+02  0.58212885564E+02  0.82534039634E+02  0.00000000000E+00 0. -1.
         13    1    4    4    0    0 -0.20372177604E+02  0.29472079936E+02  0.30521376309E+02  0.47065736240E+02  0.00000000000E+00 0.  1.
         21    1    1    2  502  501  0.25261997804E+02 -0.26927047808E+02  0.16959738563E+03  0.17356989269E+03  0.00000000000E+00 0.  1.
<scales pt_clust_5="13000.00000" pt_clust_6="13000.00000" pt_clust_7="13000.00000" pt_clust_8="13000.00000" pt_clust_9="36.92200"></scales>
<clustering>
<clus scale="   36.922">  1  9  2 -1</clus>
<clus scale="   83.033">  5  6 -1 -1</clus>
<clus scale="   89.292">  7  8 -1 -1</clus>
<clus scale="   90.095">  1  5  2 -1</clus>
<clus scale="   95.894">  2  5  1 -1</clus>
</clustering>
</event>
<event>
 9    1  0.2674825E-005  0.1326234E+03  0.7546771E-02  0.1226570E+00
         -2   -1    0    0    0  501 -0.00000000000E+00  0.00000000000E+00  0.38078013369E+02  0.38078013369E+02  0.00000000000E+00 0.  1.
          1   -1    0    0  502    0  0.00000000000E+00 -0.00000000000E+00 -0.68460978416E+03  0.68460978416E+03  0.00000000000E+00 0. -1.
         23    2    1    2    0    0  0.19958852150E+02  0.78092498363E+02 -0.12176427075E+03  0.17291896560E+03  0.92615532989E+02 0.  0.
        -24    2    1    2    0    0 -0.13548961628E+02 -0.98638604551E+02 -0.50322832881E+03  0.51931944650E+03  0.80875137896E+02 0.  0.
         11    1    4    4    0    0 -0.22592636781E+02 -0.10801470989E+03 -0.48151389581E+03  0.49399720307E+03  0.00000000000E+00 0. -1.
        -12    1    4    4    0    0  0.90436751535E+01  0.93761053396E+01 -0.21714433004E+02  0.25322243429E+02  0.00000000000E+00 0.  1.
        -11    1    3    3    0    0  0.53827988537E+02  0.24492992610E+02 -0.64124200971E+02  0.87231142301E+02  0.00000000000E+00 0.  1.
         11    1    3    3    0    0 -0.33869136387E+02  0.53599505753E+02 -0.57640069784E+02  0.85687823296E+02  0.00000000000E+00 0. -1.
         21    1    1    2  502  501 -0.64098905222E+01  0.20546106188E+02 -0.21539171226E+02  0.30449385431E+02  0.00000000000E+00 0.  1.
<scales pt_clust_5="13000.00000" pt_clust_6="13000.00000" pt_clust_7="13000.00000" pt_clust_8="13000.00000" pt_clust_9="21.52276"></scales>
<clustering>
<clus scale="   21.523">  1  9  2 -1</clus>
<clus scale="   80.875">  5  6 -1 -1</clus>
<clus scale="   92.616">  7  8 -1 -1</clus>
<clus scale="  124.708">  2  5  1 -1</clus>
<clus scale="  124.708">  2  5  1 -1</clus>
</clustering>
</event>
<event>
 9    1  0.2674825E-005  0.1211210E+03  0.7546771E-02  0.1244857E+00
          3   -1    0    0  502    0  0.00000000000E+00  0.00000000000E+00  0.38180588852E+02  0.38180588852E+02  0.00000000000E+00 0. -1.
         -4   -1    0    0    0  501 -0.00000000000E+00 -0.00000000000E+00 -0.75974566476E+03  0.75974566476E+03  0.00000000000E+00 0.  1.
        -24    2    1    2    0    0  0.96196911917E+02  0.11828690870E+02 -0.51689083459E+03  0.53208632229E+03  0.80907080590E+02 0.  0.
         23    2    1    2    0    0 -0.34113643461E+02  0.18813164329E+02 -0.11523613691E+03  0.15273630613E+03  0.92365232304E+02 0.  0.
         11    1    3    3    0    0  0.45998877640E+02  0.45545499705E+02 -0.30131479961E+03  0.30818971065E+03  0.00000000000E+00 0. -1.
        -12    1    3    3    0    0  0.50198034277E+02 -0.33716808834E+02 -0.21557603498E+03  0.22389661163E+03  0.00000000000E+00 0.  1.
        -13    1    4    4    0    0 -0.60257808145E+02  0.34720236944E+02 -0.83069074825E+02  0.10833729500E+03  0.00000000000E+00 0. -1.
         13    1    4    4    0    0  0.26144164684E+02 -0.15907072615E+02 -0.32167062088E+02  0.44399011133E+02  0.00000000000E+00 0.  1.
         21    1    1    2  502  501 -0.62083268456E+02 -0.30641855199E+02 -0.89438104406E+02  0.11310362519E+03  0.00000000000E+00 0. -1.
<scales pt_clust_5="13000.00000" pt_clust_6="13000.00000" pt_clust_7="13000.00000" pt_clust_8="13000.00000" pt_clust_9="69.23334"></scales>
<clustering>
<clus scale="   69.233">  1  9  2 -1</clus>
<clus scale="   80.907">  5  6 -1 -1</clus>
<clus scale="   92.365">  7  8 -1 -1</clus>
<clus scale="  112.627">  2  5  1 -1</clus>
<clus scale="   69.233">  1  5  2 -1</clus>
</clustering>
</event>
<event>
 9    1  0.2674825E-005  0.1006485E+03  0.7546771E-02  0.1284009E+00
         -2   -1    0    0    0  501 -0.00000000000E+00  0.00000000000E+00  0.31318305169E+02  0.31318305169E+02  0.00000000000E+00 0.  1.
          1   -1    0    0  502    0  0.00000000000E+00 -0.00000000000E+00 -0.63703429204E+03  0.63703429204E+03  0.00000000000E+00 0. -1.
        -24    2    1    2    0    0  0.31858921492E+02  0.29395663701E+02 -0.66305319243E+02  0.11319029993E+03  0.80848949991E+02 0.  0.
         23    2    1    2    0    0 -0.44617657508E+02 -0.73457313141E+01 -0.47735080434E+03  0.48807719093E+03  0.91163911568E+02 0.  0.
         11    1    3    3    0    0  0.12855131102E+02  0.38961524756E+02 -0.78567023125E+02  0.88634259346E+02  0.00000000000E+00 0. -1.
        -12    1    3    3    0    0  0.19003790391E+02 -0.95658610559E+01  0.12261703882E+02  0.24556040582E+02  0.00000000000E+00 0.  1.
        -13    1    4    4    0    0 -0.78976062278E+01 -0.46805620982E+02 -0.20226180281E+03  0.20775701003E+03  0.00000000000E+00 0.  1.
         13    1    4    4    0    0 -0.36720051280E+02  0.39459889668E+02 -0.27508900153E+03  0.28032018090E+03  0.00000000000E+00 0. -1.
         21    1    1    2  502  501  0.12758736016E+02 -0.22049932387E+02 -0.62059863292E+02  0.67085106356E+02  0.00000000000E+00 0.  1.
<scales pt_clust_5="13000.00000" pt_clust_6="13000.00000" pt_clust_7="13000.00000" pt_clust_8="13000.00000" pt_clust_9="25.47518"></scales>
<clustering>
<clus scale="   25.475">  2  9  1 -1</clus>
<clus scale="   80.849">  5  6 -1 -1</clus>
<clus scale="   91.164">  7  8 -1 -1</clus>
<clus scale="   91.410">  1  5  2 -1</clus>
<clus scale="   25.475">  2  5  1 -1</clus>
</clustering>
</event>
<event>
 9    1  0.2674825E-005  0.9753614E+02  0.7546771E-02  0.1291509E+00
          1   -1    0    0  502    0  0.00000000000E+00  0.00000000000E+00  0.26156256204E+03  0.26156256204E+03  0.00000000000E+00 0. -1.
         -2   -1    0    0    0  501 -0.00000000000E+00 -0.00000000000E+00 -0.84357327427E+02  0.84357327427E+02  0.00000000000E+00 0.  1.
        -24    2    1    2    0    0 -0.35822020267E+02  0.27806989128E+02 -0.27282378047E+02  0.95155408173E+02  0.79080830625E+02 0.  0.
         23    2    1    2    0    0 -0.11598415498E+01 -0.17400314300E+02  0.84968287663E+02  0.12522235278E+03  0.90315621885E+02 0.  0.
         13    1    3    3    0    0 -0.29991261156E+02 -0.20501384025E+02 -0.28972522706E+02  0.46467080440E+02  0.00000000000E+00 0. -1.
        -14    1    3    3    0    0 -0.58307591107E+01  0.48308373153E+02  0.16901446586E+01  0.48688327734E+02  0.00000000000E+00 0.  1.
        -13    1    4    4    0    0 -0.40225886484E+02  0.10576815218E+01  0.67568883653E+02  0.78643465538E+02  0.00000000000E+00 0.  1.
         13    1    4    4    0    0  0.39066044934E+02 -0.18457995822E+02  0.17399404010E+02  0.46578887240E+02  0.00000000000E+00 0. -1.
         21    1    1    2  502  501  0.36981861817E+02 -0.10406674828E+02  0.11951932499E+03  0.12554212851E+03  0.00000000000E+00 0. -1.
<scales pt_clust_5="13000.00000" pt_clust_6="13000.00000" pt_clust_7="13000.00000" pt_clust_8="13000.00000" pt_clust_9="38.41819"></scales>
<clustering>
<clus scale="   38.418">  1  9  2 -1</clus>
<clus scale="   79.081">  5  6 -1 -1</clus>
<clus scale="   87.236">  2  5  1 -1</clus>
<clus scale="   90.316">  7  8 -1 -1</clus>
<clus scale="   38.418">  1  5  2 -1</clus>
</clustering>
</event>
<event>
 9    1  0.2674825E-005  0.1141517E+03  0.7546771E-02  0.1256335E+00
         -2   -1    0    0    0  501 -0.00000000000E+00  0.00000000000E+00  0.17876050974E+03  0.17876050974E+03  0.00000000000E+00 0.  1.
          1   -1    0    0  502    0  0.00000000000E+00 -0.00000000000E+00 -0.19557469410E+03  0.19557469410E+03  0.00000000000E+00 0. -1.
         23    2    1    2    0    0  0.42828044396E+02 -0.56200296461E+02  0.13354573025E+03  0.17728732945E+03  0.92755702828E+02 0.  0.
        -24    2    1    2    0    0 -0.15434901773E+02  0.38795650504E+02 -0.12316041936E+03  0.15470264437E+03  0.83791888542E+02 0.  0.
         11    1    4    4    0    0 -0.48360479946E+02  0.32651178182E+02 -0.63173864726E+02  0.85998678139E+02  0.00000000000E+00 0. -1.
        -12    1    4    4    0    0  0.32925578173E+02  0.61444723225E+01 -0.59986554636E+02  0.68703966226E+02  0.00000000000E+00 0.  1.
        -11    1    3    3    0    0  0.62052300424E+02 -0.68791837247E+02  0.11552256516E+03  0.14808196352E+03  0.00000000000E+00 0.  1.
         11    1    3    3    0    0 -0.19224256028E+02  0.12591540786E+02  0.18023165093E+02  0.29205365931E+02  0.00000000000E+00 0. -1.
         21    1    1    2  502  501 -0.27393142623E+02  0.17404645957E+02 -0.27199495256E+02  0.42345230024E+02  0.00000000000E+00 0. -1.
<scales pt_clust_5="13000.00000" pt_clust_6="13000.00000" pt_clust_7="13000.00000" pt_clust_8="13000.00000" pt_clust_9="32.45468"></scales>
<clustering>
<clus scale="   32.455">  2  9  1 -1</clus>
<clus scale="   83.792">  5  6 -1 -1</clus>
<clus scale="   92.756">  7  8 -1 -1</clus>
<clus scale="  106.996">  2  5  1 -1</clus>
<clus scale="   32.455">  2  5  1 -1</clus>
</clustering>
</event>
<event>
 9    1  0.2674825E-005  0.1013199E+03  0.7546771E-02  0.1286281E+00
          3   -1    0    0  502    0  0.00000000000E+00  0.00000000000E+00  0.87886481818E+02  0.87886481818E+02  0.00000000000E+00 0. -1.
         -4   -1    0    0    0  501 -0.00000000000E+00 -0.00000000000E+00 -0.50112287312E+03  0.50112287312E+03  0.00000000000E+00 0.  1.
        -24    2    1    2    0    0 -0.49299788477E+02  0.11851152353E+02 -0.43577338975E+03  0.44589873016E+03  0.79726478596E+02 0.  0.
         23    2    1    2    0    0  0.28834142651E+02 -0.98177748260E+01  0.46866748066E+02  0.11125290986E+03  0.96192106711E+02 0.  0.
         13    1    3    3    0    0 -0.24589695168E+02  0.33916687486E+01 -0.28522678517E+02  0.37811370183E+02  0.00000000000E+00 0. -1.
        -14    1    3    3    0    0 -0.24710093309E+02  0.84594836047E+01 -0.40725071123E+03  0.40808735998E+03  0.00000000000E+00 0.  1.
        -13    1    4    4    0    0 -0.25900109217E+02 -0.32300018322E+02  0.23718368184E+02  0.47714440480E+02  0.00000000000E+00 0.  1.
         13    1    4    4    0    0  0.54734251868E+02  0.22482243496E+02  0.23148379882E+02  0.63538469381E+02  0.00000000000E+00 0. -1.
         21    1    1    2  502  501  0.20465645825E+02 -0.20333775274E+01 -0.24329749622E+02  0.31857714919E+02  0.00000000000E+00 0.  1.
<scales pt_clust_5="13000.00000" pt_clust_6="13000.00000" pt_clust_7="13000.00000" pt_clust_8="13000.00000" pt_clust_9="20.56641"></scales>
<clustering>
<clus scale="   20.566">  2  9  1 -1</clus>
<clus scale="   79.726">  5  6 -1 -1</clus>
<clus scale="   85.844">  2  5  1 -1</clus>
<clus scale="   96.192">  7  8 -1 -1</clus>
<clus scale="  101.320">  1  5  2 -1</clus>
</clustering>
</event>
<event>
 9    1  0.2674825E-005  0.1281351E+03  0.7546771E-02  0.1240379E+00
          1   -1    0    0  502    0  0.00000000000E+00  0.00000000000E+00  0.66428069378E+03  0.66428069378E+03  0.00000000000E+00 0. -1.
         -2   -1    0    0    0  501 -0.00000000000E+00 -0.00000000000E+00 -0.28383014335E+02  0.28383014335E+02  0.00000000000E+00 0.  1.
        -24    2    1    2    0    0 -0.65519721208E+02 -0.26006082346E+02  0.14245652153E+03  0.17816190677E+03  0.80490088275E+02 0.  0.
         23    2    1    2    0    0  0.44490777826E+02  0.32968351037E+02  0.43343869917E+03  0.45054099537E+03  0.10978042218E+03 0.  0.
         13    1    3    3    0    0 -0.38001810621E+02  0.38595353055E+01  0.13028191536E+03  0.13576601598E+03  0.00000000000E+00 0. -1.
        -14    1    3    3    0    0 -0.27517910587E+02 -0.29865617652E+02  0.12174606169E+02  0.42395890793E+02  0.00000000000E+00 0.  1.
        -13    1    4    4    0    0  0.64147364951E+02 -0.19400010293E+02  0.23469671030E+03  0.24407742758E+03  0.00000000000E+00 0.  1.
         13    1    4    4    0    0 -0.19656587126E+02  0.52368361330E+02  0.19874198887E+03  0.20646356779E+03  0.00000000000E+00 0. -1.
         21    1    1    2  502  501  0.21028943382E+02 -0.69622686904E+01  0.60002458747E+02  0.63960805974E+02  0.00000000000E+00 0.  1.
<scales pt_clust_5="13000.00000" pt_clust_6="13000.00000" pt_clust_7="13000.00000" pt_clust_8="13000.00000" pt_clust_9="22.15152"></scales>
<clustering>
<clus scale="   22.152">  1  9  2 -1</clus>
<clus scale="   80.490">  5  6 -1 -1</clus>
<clus scale="  104.142">  2  5  1 -1</clus>
<clus scale="  109.780">  7  8 -1 -1</clus>
<clus scale="   22.152">  1  5  2 -1</clus>
</clustering>
</event>
<event>
 9    1  0.2674825E-005  0.9141053E+02  0.7546771E-02  0.1304572E+00
         -2   -1    0    0    0  501 -0.00000000000E+00  0.00000000000E+00  0.86477943768E+02  0.86477943768E+02  0.00000000000E+00 0.  1.
          1   -1    0    0  502    0  0.00000000000E+00 -0.00000000000E+00 -0.24183976080E+03  0.24183976080E+03  0.00000000000E+00 0. -1.
         23    2    1    2    0    0 -0.53600918372E+01 -0.11521082717E+02  0.43708787999E+02  0.10126301414E+03  0.90455922706E+02 0.  0.
        -24    2    1    2    0    0 -0.15046376622E+02  0.21118281395E+02 -0.14868267041E+03  0.17185075821E+03  0.82181332173E+02 0.  0.
         13    1    4    4    0    0 -0.16482111925E+01  0.32520856776E+02 -0.15066713778E+03  0.15414573991E+03  0.00000000000E+00 0. -1.
        -14    1    4    4    0    0 -0.13398165430E+02 -0.11402575380E+02  0.19844673694E+01  0.17705018298E+02  0.00000000000E+00 0.  1.
        -11    1    3    3    0    0  0.13780648085E+02 -0.45759564520E+02  0.84719905854E+01  0.48534715732E+02  0.00000000000E+00 0.  1.
         11    1    3    3    0    0 -0.19140739922E+02  0.34238481803E+02  0.35236797413E+02  0.52728298407E+02  0.00000000000E+00 0. -1.
         21    1    1    2  502  501  0.20406468459E+02 -0.95971986779E+01 -0.50387934612E+02  0.55203932214E+02  0.00000000000E+00 0. -1.
<scales pt_clust_5="13000.00000" pt_clust_6="13000.00000" pt_clust_7="13000.00000" pt_clust_8="13000.00000" pt_clust_9="22.55061"></scales>
<clustering>
<clus scale="   22.551">  2  9  1 -1</clus>
<clus scale="   82.181">  5  6 -1 -1</clus>
<clus scale="   83.231">  2  5  1 -1</clus>
<clus scale="   90.456">  7  8 -1 -1</clus>
<clus scale="   22.551">  2  5  1 -1</clus>
</clustering>
</event>
<event>
 9    1  0.2674825E-005  0.9772629E+02  0.7546771E-02  0.1291556E+00
         -2   -1    0    0    0  501 -0.00000000000E+00  0.00000000000E+00  0.36811760881E+03  0.36811760881E+03  0.00000000000E+00 0.  1.
          1   -1    0    0  502    0  0.00000000000E+00 -0.00000000000E+00 -0.40470865810E+03  0.40470865810E+03  0.00000000000E+00 0. -1.
        -24    2    1    2    0    0  0.31857902701E+02  0.20167535376E+02  0.33406830258E+03  0.34547360226E+03  0.79553275345E+02 0.  0.
         23    2    1    2    0    0  0.14071295069E+02  0.36071430142E+01 -0.55526641221E+02  0.10800434094E+03  0.91491622298E+02 0.  0.
         11    1    3    3    0    0  0.21028484163E+02 -0.28631158179E+02  0.18091013595E+03  0.18436490353E+03  0.00000000000E+00 0. -1.
        -12    1    3    3    0    0  0.10829418537E+02  0.48798693555E+02  0.15315816663E+03  0.16110869873E+03  0.00000000000E+00 0.  1.
        -13    1    4    4    0    0  0.38211166867E+02 -0.31839381788E+02 -0.30757630911E+02  0.58479666254E+02  0.00000000000E+00 0.  1.
         13    1    4    4    0    0 -0.24139871797E+02  0.35446524802E+02 -0.24769010309E+02  0.49524674685E+02  0.00000000000E+00 0. -1.
         21    1    1    2  502  501 -0.45929197770E+02 -0.23774678390E+02 -0.31513271065E+03  0.31934832371E+03  0.00000000000E+00 0. -1.
<scales pt_clust_5="13000.00000" pt_clust_6="13000.00000" pt_clust_7="13000.00000" pt_clust_8="13000.00000" pt_clust_9="51.71776"></scales>
<clustering>
<clus scale="   51.718">  2  9  1 -1</clus>
<clus scale="   79.553">  5  6 -1 -1</clus>
<clus scale="   86.651">  1  5  2 -1</clus>
<clus scale="   91.492">  7  8 -1 -1</clus>
<clus scale="   51.718">  2  5  1 -1</clus>
</clustering>
</event>
<event>
 9    1  0.2674825E-005  0.1531750E+03  0.7546771E-02  0.1202701E+00
         -2   -1    0    0    0  501 -0.00000000000E+00  0.00000000000E+00  0.15155594040E+03  0.15155594040E+03  0.00000000000E+00 0.  1.
          1   -1    0    0  502    0  0.00000000000E+00 -0.00000000000E+00 -0.32798366705E+03  0.32798366705E+03  0.00000000000E+00 0. -1.
         23    2    1    2    0    0  0.41696357652E+02 -0.66478227989E+02  0.79763787113E+02  0.15650621374E+03  0.10942573814E+03 0.  0.
        -24    2    1    2    0    0 -0.31566688207E+02  0.10752047971E+03 -0.24160458213E+03  0.27831365306E+03  0.80799789677E+02 0.  0.
         13    1    4    4    0    0 -0.57848084970E+02  0.74210059859E+02 -0.14569094595E+03  0.17343409598E+03  0.00000000000E+00 0. -1.
        -14    1    4    4    0    0  0.26281396763E+02  0.33310419853E+02 -0.95913636185E+02  0.10487955708E+03  0.00000000000E+00 0.  1.
        -11    1    3    3    0    0  0.16454334012E+02 -0.81166638030E+02  0.92923973716E+02  0.12447342338E+03  0.00000000000E+00 0.  1.
         11    1    3    3    0    0  0.25242023640E+02  0.14688410041E+02 -0.13160186603E+02  0.32032790362E+02  0.00000000000E+00 0. -1.
         21    1    1    2  502  501 -0.10129669446E+02 -0.41042251723E+02 -0.14586931632E+02  0.44719740652E+02  0.00000000000E+00 0.  1.
<scales pt_clust_5="13000.00000" pt_clust_6="13000.00000" pt_clust_7="13000.00000" pt_clust_8="13000.00000" pt_clust_9="42.27383"></scales>
<clustering>
<clus scale="   42.274">  1  9  2 -1</clus>
<clus scale="   80.800">  5  6 -1 -1</clus>
<clus scale="  109.426">  7  8 -1 -1</clus>
<clus scale="  134.228">  2  5  1 -1</clus>
<clus scale="  134.228">  2  5  1 -1</clus>
</clustering>
</event>
<event>
 9    1  0.3004963E-005  0.1057487E+03  0.7546771E-02  0.1272820E+00
          1   -1    0    0  502    0  0.00000000000E+00  0.00000000000E+00  0.23026160697E+03  0.23026160697E+03  0.00000000000E+00 0. -1.
         -2   -1    0    0    0  501 -0.00000000000E+00 -0.00000000000E+00 -0.16437929639E+03  0.16437929639E+03  0.00000000000E+00 0.  1.
        -24    2    1    2    0    0  0.46703534077E+02 -0.13646676921E+02 -0.12472464459E+03  0.15729177775E+03  0.82565213580E+02 0.  0.
         23    2    1    2    0    0 -0.39905138047E+02  0.34447275610E+02  0.18722871673E+03  0.21520650631E+03  0.92088072785E+02 0.  0.
         11    1    3    3    0    0  0.34206643209E+01  0.24768162774E+02 -0.67672961499E+01  0.25902878774E+02  0.00000000000E+00 0. -1.
        -12    1    3    3    0    0  0.43282869756E+02 -0.38414839695E+02 -0.11795734844E+03  0.13138889898E+03  0.00000000000E+00 0.  1.
        -13    1    4    4    0    0 -0.22712223092E+02 -0.31002580189E+02  0.66598842075E+02  0.76892202608E+02  0.00000000000E+00 0.  1.
         13    1    4    4    0    0 -0.17192914955E+02  0.65449855798E+02  0.12062987466E+03  0.13831430370E+03  0.00000000000E+00 0. -1.
         21    1    1    2  502  501 -0.67983960298E+01 -0.20800598689E+02  0.33782384436E+01  0.22142619298E+02  0.00000000000E+00 0.  1.
<scales pt_clust_5="13000.00000" pt_clust_6="13000.00000" pt_clust_7="13000.00000" pt_clust_8="13000.00000" pt_clust_9="21.88340"></scales>
<clustering>
<clus scale="   21.883">  2  9  1 -1</clus>
<clus scale="   82.565">  5  6 -1 -1</clus>
<clus scale="   92.088">  7  8 -1 -1</clus>
<clus scale="   97.568">  2  5  1 -1</clus>
<clus scale="  105.749">  1  5  2 -1</clus>
</clustering>
</event>
<event>
 9    1  0.2674825E-005  0.1248066E+03  0.7546771E-02  0.1237837E+00
          3   -1    0    0  502    0  0.00000000000E+00  0.00000000000E+00  0.24086293635E+03  0.24086293635E+03  0.00000000000E+00 0. -1.
         -4   -1    0    0    0  501 -0.00000000000E+00 -0.00000000000E+00 -0.97012898032E+02  0.97012898032E+02  0.00000000000E+00 0.  1.
         23    2    1    2    0    0 -0.95606494570E+02  0.12189196618E+01  0.44244824695E+01  0.13218046314E+03  0.91159262958E+02 0.  0.
        -24    2    1    2    0    0  0.70589108651E+02  0.74026377477E+01  0.65241709434E+02  0.12693342662E+03  0.82571138050E+02 0.  0.
         13    1    4    4    0    0  0.82961389086E+02  0.25453766949E+02  0.48778317542E+02  0.99548031589E+02  0.00000000000E+00 0. -1.
        -14    1    4    4    0    0 -0.12372280435E+02 -0.18051129201E+02  0.16463391892E+02  0.27385395035E+02  0.00000000000E+00 0.  1.
        -11    1    3    3    0    0 -0.65585417566E+02 -0.38126154084E+02  0.23072910589E+02  0.79293189024E+02  0.00000000000E+00 0. -1.
         11    1    3    3    0    0 -0.30021077003E+02  0.39345073746E+02 -0.18648428120E+02  0.52887274120E+02  0.00000000000E+00 0.  1.
         21    1    1    2  502  501  0.25017385919E+02 -0.86215574095E+01  0.74183846413E+02  0.78761944612E+02  0.00000000000E+00 0.  1.
<scales pt_clust_5="13000.00000" pt_clust_6="13000.00000" pt_clust_7="13000.00000" pt_clust_8="13000.00000" pt_clust_9="26.46131"></scales>
<clustering>
<clus scale="   26.461">  1  9  2 -1</clus>
<clus scale="   82.571">  5  6 -1 -1</clus>
<clus scale="   91.159">  7  8 -1 -1</clus>
<clus scale="  118.679">  1  5  2 -1</clus>
<clus scale="   26.461">  1  5  2 -1</clus>
</clustering>
</event>
<event>
 9    1  0.2674825E-005  0.1246735E+03  0.7546771E-02  0.1239443E+00
          1   -1    0    0  502    0  0.00000000000E+00  0.00000000000E+00  0.37365590103E+03  0.37365590103E+03  0.00000000000E+00 0. -1.
         -2   -1    0    0    0  501 -0.00000000000E+00 -0.00000000000E+00 -0.86648651631E+02  0.86648651631E+02  0.00000000000E+00 0.  1.
        -24    2    1    2    0    0 -0.38616140323E+02  0.81537220032E+02 -0.18272724663E+02  0.12127590305E+03  0.78958391888E+02 0.  0.
         23    2    1    2    0    0  0.14731436830E+02 -0.50850283160E+02  0.24766062169E+03  0.26951493210E+03  0.92194080928E+02 0.  0.
         13    1    3    3    0    0 -0.36420765891E+02  0.55266260005E-01  0.43592981491E+01  0.36680767751E+02  0.00000000000E+00 0. -1.
        -14    1    3    3    0    0 -0.21953744316E+01  0.81481953771E+02 -0.22632022812E+02  0.84595135297E+02  0.00000000000E+00 0.  1.
        -13    1    4    4    0    0  0.32224389355E+02  0.16814613097E+02  0.89632563077E+02  0.96721966722E+02  0.00000000000E+00 0.  1.
         13    1    4    4    0    0 -0.17492952525E+02 -0.67664896257E+02  0.15802805862E+03  0.17279296538E+03  0.00000000000E+00 0. -1.
         21    1    1    2  502  501  0.23884703493E+02 -0.30686936871E+02  0.57619352372E+02  0.69513717519E+02  0.00000000000E+00 0. -1.
<scales pt_clust_5="13000.00000" pt_clust_6="13000.00000" pt_clust_7="13000.00000" pt_clust_8="13000.00000" pt_clust_9="38.88659"></scales>
<clustering>
<clus scale="   38.887">  1  9  2 -1</clus>
<clus scale="   78.958">  5  6 -1 -1</clus>
<clus scale="   92.194">  7  8 -1 -1</clus>
<clus scale="  115.231">  2  5  1 -1</clus>
<clus scale="   38.887">  1  5  2 -1</clus>
</clustering>
</event>
<event>
 9    1  0.2674825E-005  0.1480236E+03  0.7546771E-02  0.1224979E+00
         -2   -1    0    0    0  501 -0.00000000000E+00  0.00000000000E+00  0.73029893637E+03  0.73029893637E+03  0.00000000000E+00 0.  1.
          1   -1    0    0  502    0  0.00000000000E+00 -0.00000000000E+00 -0.52255863142E+02  0.52255863142E+02  0.00000000000E+00 0. -1.
         23    2    1    2    0    0 -0.16843052731E+02 -0.11572872114E+03  0.41159878135E+03  0.43737223784E+03  0.90576444498E+02 0.  0.
        -24    2    1    2    0    0 -0.44129109598E+02  0.89372250146E+01  0.14670690492E+03  0.17354611432E+03  0.81043726103E+02 0.  0.
         13    1    4    4    0    0  0.12980692512E+02  0.28232000654E+02  0.64619327173E+02  0.71702173491E+02  0.00000000000E+00 0. -1.
        -14    1    4    4    0    0 -0.57109802110E+02 -0.19294775639E+02  0.82087577745E+02  0.10184394083E+03  0.00000000000E+00 0.  1.
        -11    1    3    3    0    0 -0.72711125746E+01 -0.49596028593E+02  0.54383724720E+02  0.73960967034E+02  0.00000000000E+00 0. -1.
         11    1    3    3    0    0 -0.95719401562E+01 -0.66132692552E+02  0.35721505663E+03  0.36341127080E+03  0.00000000000E+00 0.  1.
         21    1    1    2  502  501  0.60972162329E+02  0.10679149613E+03  0.11973738696E+03  0.17163644736E+03  0.00000000000E+00 0. -1.
<scales pt_clust_5="13000.00000" pt_clust_6="13000.00000" pt_clust_7="13000.00000" pt_clust_8="13000.00000" pt_clust_9="117.07647"></scales>
<clustering>
<clus scale="   81.044">  5  6 -1 -1</clus>
<clus scale="   90.576">  7  8 -1 -1</clus>
<clus scale="   92.711">  2  5  1 -1</clus>
<clus scale="  117.076">  2  9  1 -1</clus>
<clus scale="   92.711">  2  5  1 -1</clus>
</clustering>
</event>
<event>
 9    1  0.2674825E-005  0.1258736E+03  0.7546771E-02  0.1234538E+00
          1   -1    0    0  502    0  0.00000000000E+00  0.00000000000E+00  0.67596289850E+02  0.67596289850E+02  0.00000000000E+00 0. -1.
         -2   -1    0    0    0  501 -0.00000000000E+00 -0.00000000000E+00 -0.63268388232E+03  0.63268388232E+03  0.00000000000E+00 0.  1.
        -24    2    1    2    0    0  0.44347411389E+02 -0.60199405318E+02 -0.46796823551E+03  0.48359545808E+03  0.96330869055E+02 0.  0.
         23    2    1    2    0    0 -0.50200871072E+01  0.83483871493E+02 -0.20034890376E+02  0.12706987275E+03  0.93544629206E+02 0.  0.
         11    1    3    3    0    0  0.38923280302E+02 -0.22742421305E+02 -0.66456404944E+02  0.80303756041E+02  0.00000000000E+00 0. -1.
        -12    1    3    3    0    0  0.54241310862E+01 -0.37456984013E+02 -0.40151183057E+03  0.40329170204E+03  0.00000000000E+00 0.  1.
        -13    1    4    4    0    0 -0.11862307230E+02  0.33114708599E+02 -0.55061960049E+02  0.65338485618E+02  0.00000000000E+00 0.  1.
         13    1    4    4    0    0  0.68422201232E+01  0.50369162894E+02  0.35027069673E+02  0.61731387128E+02  0.00000000000E+00 0. -1.
         21    1    1    2  502  501 -0.39327324281E+02 -0.23284466175E+02 -0.77084466583E+02  0.89614841341E+02  0.00000000000E+00 0.  1.
<scales pt_clust_5="13000.00000" pt_clust_6="13000.00000" pt_clust_7="13000.00000" pt_clust_8="13000.00000" pt_clust_9="45.70344"></scales>
<clustering>
<clus scale="   45.703">  2  9  1 -1</clus>
<clus scale="   93.545">  7  8 -1 -1</clus>
<clus scale="   96.331">  5  6 -1 -1</clus>
<clus scale="  123.754">  1  7  2 -1</clus>
<clus scale="  123.754">  1  5  2 -1</clus>
</clustering>
</event>
<event>
 9    1  0.2674825E-005  0.1370653E+03  0.7546771E-02  0.1231667E+00
         -2   -1    0    0    0  501 -0.00000000000E+00  0.00000000000E+00  0.17005778856E+03  0.17005778856E+03  0.00000000000E+00 0.  1.
          1   -1    0    0  502    0  0.00000000000E+00 -0.00000000000E+00 -0.83017964925E+03  0.83017964925E+03  0.00000000000E+00 0. -1.
        -24    2    1    2    0    0 -0.54642607871E+02 -0.44515771613E+02  0.12821738521E+03  0.16243230318E+03  0.70548470768E+02 0.  0.
         23    2    1    2    0    0  0.11362225987E+03  0.58337287249E+02 -0.30250469513E+03  0.34820852071E+03  0.11587418307E+03 0.  0.
         11    1    3    3    0    0  0.52209158875E+01 -0.23513500454E+02  0.77662592622E+02  0.81311874650E+02  0.00000000000E+00 0. -1.
        -12    1    3    3    0    0 -0.59863523759E+02 -0.21002271159E+02  0.50554792589E+02  0.81120428527E+02  0.00000000000E+00 0.  1.
        -13    1    4    4    0    0  0.71936537212E+02  0.90252485276E+02 -0.16803264539E+03  0.20385128501E+03  0.00000000000E+00 0. -1.
         13    1    4    4    0    0  0.41685722655E+02 -0.31915198027E+02 -0.13447204974E+03  0.14435723570E+03  0.00000000000E+00 0.  1.
         21    1    1    2  502  501 -0.58979651996E+02 -0.13821515636E+02 -0.48583455077E+03  0.48959661393E+03  0.00000000000E+00 0. -1.
<scales pt_clust_5="13000.00000" pt_clust_6="13000.00000" pt_clust_7="13000.00000" pt_clust_8="13000.00000" pt_clust_9="60.57750"></scales>
<clustering>
<clus scale="   60.578">  2  9  1 -1</clus>
<clus scale="   70.548">  5  6 -1 -1</clus>
<clus scale="  101.672">  1  5  2 -1</clus>
<clus scale="  115.874">  7  8 -1 -1</clus>
<clus scale="   60.578">  2  5  1 -1</clus>
</clustering>
</event>
<event>
 9    1  0.2674825E-005  0.1178173E+03  0.7546771E-02  0.1250933E+00
          1   -1    0    0  502    0  0.00000000000E+00  0.00000000000E+00  0.33883489746E+02  0.33883489746E+02  0.00000000000E+00 0. -1.
         -2   -1    0    0    0  501 -0.00000000000E+00 -0.00000000000E+00 -0.57517924705E+03  0.57517924705E+03  0.00000000000E+00 0.  1.
        -24    2    1    2    0    0 -0.27552583757E+02  0.58058879882E+02 -0.24137920113E+03  0.26183916045E+03  0.78522918964E+02 0.  0.
         23    2    1    2    0    0  0.69302934886E+02 -0.66376891576E+02 -0.23006949463E+03  0.26542569651E+03  0.91159418018E+02 0.  0.
         13    1    3    3    0    0 -0.10105195850E+02  0.68588574978E+02 -0.22575427887E+03  0.23615990775E+03  0.00000000000E+00 0. -1.
        -14    1    3    3    0    0 -0.17447387907E+02 -0.10529695096E+02 -0.15624922257E+02  0.25679252698E+02  0.00000000000E+00 0.  1.
        -11    1    4    4    0    0  0.50144592018E+02 -0.80805156626E+02 -0.21950100274E+03  0.23921672945E+03  0.00000000000E+00 0.  1.
         11    1    4    4    0    0  0.19158342868E+02  0.14428265050E+02 -0.10568491889E+02  0.26208967065E+02  0.00000000000E+00 0. -1.
         21    1    1    2  502  501 -0.41750351130E+02  0.83180116940E+01 -0.69847061551E+02  0.81797879834E+02  0.00000000000E+00 0. -1.
<scales pt_clust_5="13000.00000" pt_clust_6="13000.00000" pt_clust_7="13000.00000" pt_clust_8="13000.00000" pt_clust_9="42.57090"></scales>
<clustering>
<clus scale="   42.571">  1  9  2 -1</clus>
<clus scale="   78.523">  5  6 -1 -1</clus>
<clus scale="   91.159">  7  8 -1 -1</clus>
<clus scale="  108.336">  2  5  1 -1</clus>
<clus scale="   42.571">  1  5  2 -1</clus>
</clustering>
</event>
<event>
 9    1  0.2674825E-005  0.1137483E+03  0.7546771E-02  0.1257213E+00
          1   -1    0    0  502    0  0.00000000000E+00  0.00000000000E+00  0.40981805044E+03  0.40981805044E+03  0.00000000000E+00 0. -1.
         -2   -1    0    0    0  501 -0.00000000000E+00 -0.00000000000E+00 -0.85190346182E+02  0.85190346182E+02  0.00000000000E+00 0.  1.
        -24    2    1    2    0    0 -0.27482614504E+02 -0.82670777950E+02  0.53971500532E+01  0.12475025999E+03  0.89127697777E+02 0.  0.
         23    2    1    2    0    0  0.23736300365E+02  0.47746313278E+02  0.31587421711E+03  0.33497332261E+03  0.97915695579E+02 0.  0.
         13    1    3    3    0    0 -0.14299689999E+02 -0.55188504890E+02  0.46506395813E+02  0.73573752504E+02  0.00000000000E+00 0. -1.
        -14    1    3    3    0    0 -0.13182924505E+02 -0.27482273060E+02 -0.41109245760E+02  0.51176507481E+02  0.00000000000E+00 0.  1.
        -11    1    4    4    0    0 -0.36121114546E+02  0.33981804263E+02  0.15668816683E+03  0.16434926091E+03  0.00000000000E+00 0.  1.
         11    1    4    4    0    0  0.59857414911E+02  0.13764509014E+02  0.15918605028E+03  0.17062406170E+03  0.00000000000E+00 0. -1.
         21    1    1    2  502  501  0.37463141394E+01  0.34924464672E+02  0.33563370981E+01  0.35284814028E+02  0.00000000000E+00 0.  1.
<scales pt_clust_5="13000.00000" pt_clust_6="13000.00000" pt_clust_7="13000.00000" pt_clust_8="13000.00000" pt_clust_9="35.12482"></scales>
<clustering>
<clus scale="   35.125">  2  9  1 -1</clus>
<clus scale="   89.128">  5  6 -1 -1</clus>
<clus scale="   97.916">  7  8 -1 -1</clus>
<clus scale="  106.278">  2  5  1 -1</clus>
<clus scale="  113.748">  1  5  2 -1</clus>
</clustering>
</event>
<event>
 9    1  0.2674825E-005  0.1119759E+03  0.7546771E-02  0.1260589E+00
         -2   -1    0    0    0  501 -0.00000000000E+00  0.00000000000E+00  0.45261740509E+03  0.45261740509E+03  0.00000000000E+00 0.  1.
          1   -1    0    0  502    0  0.00000000000E+00 -0.00000000000E+00 -0.13001209588E+03  0.13001209588E+03  0.00000000000E+00 0. -1.
        -24    2    1    2    0    0  0.65074975000E+02  0.12192587176E+02  0.41206194996E+03  0.42521390907E+03  0.81415025054E+02 0.  0.
         23    2    1    2    0    0 -0.51144453636E+02  0.75257576581E+01 -0.66360211723E+02  0.12400425277E+03  0.91109740637E+02 0.  0.
         11    1    3    3    0    0  0.18302478104E+02 -0.20949397513E+02  0.39764519686E+02  0.48529114836E+02  0.00000000000E+00 0. -1.
        -12    1    3    3    0    0  0.46772496896E+02  0.33141984689E+02  0.37229743028E+03  0.37668479423E+03  0.00000000000E+00 0.  1.
        -11    1    4    4    0    0 -0.28948950213E+02 -0.17123533531E+02 -0.81031631201E+02  0.87734727299E+02  0.00000000000E+00 0. -1.
         11    1    4    4    0    0 -0.22195503423E+02  0.24649291189E+02  0.14671419479E+02  0.36269525470E+02  0.00000000000E+00 0.  1.
         21    1    1    2  502  501 -0.13930521364E+02 -0.19718344834E+02 -0.23096429027E+02  0.33411339127E+02  0.00000000000E+00 0. -1.
<scales pt_clust_5="13000.00000" pt_clust_6="13000.00000" pt_clust_7="13000.00000" pt_clust_8="13000.00000" pt_clust_9="24.14275"></scales>
<clustering>
<clus scale="   24.143">  2  9  1 -1</clus>
<clus scale="   81.415">  5  6 -1 -1</clus>
<clus scale="   91.110">  7  8 -1 -1</clus>
<clus scale="  104.240">  1  5  2 -1</clus>
<clus scale="   24.143">  2  5  1 -1</clus>
</clustering>
</event>
<event>
 9    1  0.2674825E-005  0.1311302E+03  0.7546771E-02  0.1231596E+00
          1   -1    0    0  502    0  0.00000000000E+00  0.00000000000E+00  0.54419603048E+02  0.54419603048E+02  0.00000000000E+00 0. -1.
         -2   -1    0    0    0  501 -0.00000000000E+00 -0.00000000000E+00 -0.77021938781E+03  0.77021938781E+03  0.00000000000E+00 0.  1.
         23    2    1    2    0    0 -0.80416166484E+02  0.50794770734E+01 -0.64596219406E+03  0.65878734980E+03  0.10119809872E+03 0.  0.
        -24    2    1    2    0    0  0.10032401319E+03 -0.75568486914E+01 -0.67193363353E+02  0.14561672893E+03  0.81038694959E+02 0.  0.
         13    1    4    4    0    0  0.66099792306E+02  0.30105190076E+02 -0.17983373291E+02  0.74825842644E+02  0.00000000000E+00 0. -1.
        -14    1    4    4    0    0  0.34224220887E+02 -0.37662038768E+02 -0.49209990062E+02  0.70790886287E+02  0.00000000000E+00 0.  1.
        -13    1    3    3    0    0  0.58212622595E+01  0.34360162323E+02 -0.11841433547E+03  0.12343606723E+03  0.00000000000E+00 0. -1.
         13    1    3    3    0    0 -0.86237428743E+02 -0.29280685250E+02 -0.52754785859E+03  0.53535128257E+03  0.00000000000E+00 0.  1.
         21    1    1    2  502  501 -0.19907846708E+02  0.24773716180E+01 -0.26442273557E+01  0.20234912132E+02  0.00000000000E+00 0.  1.
<scales pt_clust_5="13000.00000" pt_clust_6="13000.00000" pt_clust_7="13000.00000" pt_clust_8="13000.00000" pt_clust_9="20.06140"></scales>
<clustering>
<clus scale="   20.061">  1  9  2 -1</clus>
<clus scale="   81.039">  5  6 -1 -1</clus>
<clus scale="  101.198">  7  8 -1 -1</clus>
<clus scale="  116.281">  1  5  2 -1</clus>
<clus scale="   20.061">  1  5  2 -1</clus>
</clustering>
</event>
<event>
 9    1  0.2674825E-005  0.1140168E+03  0.7546771E-02  0.1257768E+00
          1   -1    0    0  502    0  0.00000000000E+00  0.00000000000E+00  0.15544083874E+03  0.15544083874E+03  0.00000000000E+00 0. -1.
         -2   -1    0    0    0  501 -0.00000000000E+00 -0.00000000000E+00 -0.27289859257E+03  0.27289859257E+03  0.00000000000E+00 0.  1.
        -24    2    1    2    0    0 -0.65237986086E+02 -0.12357892898E+02 -0.22216024255E+03  0.24551451745E+03  0.80706211439E+02 0.  0.
         23    2    1    2    0    0  0.67467163998E+02 -0.15202384573E+02  0.10327955385E+03  0.15513804202E+03  0.92834342383E+02 0.  0.
         11    1    3    3    0    0 -0.24919999766E+02  0.10912402024E+02 -0.11100659243E+02  0.29382163669E+02  0.00000000000E+00 0. -1.
        -12    1    3    3    0    0 -0.40317986320E+02 -0.23270294921E+02 -0.21105958330E+03  0.21613235378E+03  0.00000000000E+00 0.  1.
        -13    1    4    4    0    0  0.32750774059E+02  0.31934853558E+02  0.79965666980E+02  0.92124676221E+02  0.00000000000E+00 0.  1.
         13    1    4    4    0    0  0.34716389939E+02 -0.47137238131E+02  0.23313886867E+02  0.63013365804E+02  0.00000000000E+00 0. -1.
         21    1    1    2  502  501 -0.22291779118E+01  0.27560277471E+02  0.14229348654E+01  0.27686871836E+02  0.00000000000E+00 0.  1.
<scales pt_clust_5="13000.00000" pt_clust_6="13000.00000" pt_clust_7="13000.00000" pt_clust_8="13000.00000" pt_clust_9="27.65028"></scales>
<clustering>
<clus scale="   27.650">  1  9  2 -1</clus>
<clus scale="   80.706">  5  6 -1 -1</clus>
<clus scale="   92.834">  7  8 -1 -1</clus>
<clus scale="  104.380">  2  5  1 -1</clus>
<clus scale="   27.650">  1  5  2 -1</clus>
</clustering>
</event>
<event>
 9    1  0.2674825E-005  0.1345597E+03  0.7546771E-02  0.1223378E+00
          3   -1    0    0  502    0  0.00000000000E+00  0.00000000000E+00  0.11488736622E+03  0.11488736622E+03  0.00000000000E+00 0. -1.
         -4   -1    0    0    0  501 -0.00000000000E+00 -0.00000000000E+00 -0.20159961675E+03  0.20159961675E+03  0.00000000000E+00 0.  1.
         23    2    1    2    0    0  0.95459069665E+02 -0.49524105820E+02 -0.87534659264E+02  0.16608658311E+03  0.91418627628E+02 0.  0.
        -24    2    1    2    0    0 -0.84088712782E+02  0.25032100378E+02 -0.13106579812E+02  0.12001685055E+03  0.80837765407E+02 0.  0.
         11    1    4    4    0    0 -0.11854882004E+02 -0.26913021926E+02 -0.97467131362E+01  0.30981403994E+02  0.00000000000E+00 0. -1.
        -12    1    4    4    0    0 -0.72233830778E+02  0.51945122304E+02 -0.33598666753E+01  0.89035446560E+02  0.00000000000E+00 0.  1.
        -11    1    3    3    0    0  0.35254885054E+02 -0.11914755258E+01 -0.81308991758E+02  0.88631138291E+02  0.00000000000E+00 0.  1.
         11    1    3    3    0    0  0.60204184611E+02 -0.48332630294E+02 -0.62256675060E+01  0.77455444816E+02  0.00000000000E+00 0. -1.
         21    1    1    2  502  501 -0.11370356882E+02  0.24492005442E+02  0.13928988547E+02  0.30383549301E+02  0.00000000000E+00 0. -1.
<scales pt_clust_5="13000.00000" pt_clust_6="13000.00000" pt_clust_7="13000.00000" pt_clust_8="13000.00000" pt_clust_9="27.00265"></scales>
<clustering>
<clus scale="   27.003">  1  9  2 -1</clus>
<clus scale="   80.838">  5  6 -1 -1</clus>
<clus scale="   91.419">  7  8 -1 -1</clus>
<clus scale="  127.608">  1  5  2 -1</clus>
<clus scale="   27.003">  1  5  2 -1</clus>
</clustering>
</event>
<event>
 9    1  0.2674825E-005  0.1278073E+03  0.7546771E-02  0.1233399E+00
          1   -1    0    0  502    0  0.00000000000E+00  0.00000000000E+00  0.97038047560E+02  0.97038047560E+02  0.00000000000E+00 0. -1.
         -2   -1    0    0    0  501 -0.00000000000E+00 -0.00000000000E+00 -0.21594247527E+03  0.21594247527E+03  0.00000000000E+00 0.  1.
        -24    2    1    2    0    0  0.78101422265E+02 -0.60243725531E+02 -0.89675163330E+02  0.15549027386E+03  0.80040313094E+02 0.  0.
         23    2    1    2    0    0 -0.55142770840E+02  0.59883009742E+02 -0.45241448010E+02  0.12949703880E+03  0.89977743957E+02 0.  0.
         11    1    3    3    0    0  0.10799097243E+02 -0.39966949239E+02  0.18969353576E+00  0.41400646328E+02  0.00000000000E+00 0. -1.
        -12    1    3    3    0    0  0.67302325023E+02 -0.20276776292E+02 -0.89864856866E+02  0.11408962753E+03  0.00000000000E+00 0.  1.
        -13    1    4    4    0    0 -0.34562522950E+02  0.82160733680E+02 -0.23499742988E+02  0.92180215187E+02  0.00000000000E+00 0. -1.
         13    1    4    4    0    0 -0.20580247891E+02 -0.22277723938E+02 -0.21741705022E+02  0.37316823610E+02  0.00000000000E+00 0.  1.
         21    1    1    2  502  501 -0.22958651425E+02  0.36071578842E+00  0.16012183632E+02  0.27993210173E+02  0.00000000000E+00 0.  1.
<scales pt_clust_5="13000.00000" pt_clust_6="13000.00000" pt_clust_7="13000.00000" pt_clust_8="13000.00000" pt_clust_9="22.96148"></scales>
<clustering>
<clus scale="   22.961">  1  9  2 -1</clus>
<clus scale="   80.040">  5  6 -1 -1</clus>
<clus scale="   89.978">  7  8 -1 -1</clus>
<clus scale="  121.017">  2  5  1 -1</clus>
<clus scale="   22.961">  1  5  2 -1</clus>
</clustering>
</event>
<event>
 9    1  0.2674825E-005  0.1177422E+03  0.7546771E-02  0.1251592E+00
         -2   -1    0    0    0  501 -0.00000000000E+00  0.00000000000E+00  0.70652414997E+02  0.70652414997E+02  0.00000000000E+00 0.  1.
          1   -1    0    0  502    0  0.00000000000E+00 -0.00000000000E+00 -0.66306715434E+03  0.66306715434E+03  0.00000000000E+00 0. -1.
         23    2    1    2    0    0 -0.32830083787E+02 -0.67117883700E+02  0.30697263286E+01  0.11764688069E+03  0.90822577604E+02 0.  0.
        -24    2    1    2    0    0  0.65516373040E+02  0.52630903390E+02 -0.52345655541E+03  0.53565946858E+03  0.76563005158E+02 0.  0.
         13    1    4    4    0    0  0.59079935532E+02  0.44562218414E+02 -0.22166082969E+03  0.23368729857E+03  0.00000000000E+00 0. -1.
        -14    1    4    4    0    0  0.64364375075E+01  0.80686849763E+01 -0.30179572571E+03  0.30197217002E+03  0.00000000000E+00 0.  1.
        -13    1    3    3    0    0  0.13832945022E+02 -0.32504219243E+02 -0.33755388695E+02  0.48860013329E+02  0.00000000000E+00 0. -1.
         13    1    3    3    0    0 -0.46663028809E+02 -0.34613664458E+02  0.36825115024E+02  0.68786867361E+02  0.00000000000E+00 0.  1.
         21    1    1    2  502  501 -0.32686289253E+02  0.14486980310E+02 -0.72027910268E+02  0.80413220065E+02  0.00000000000E+00 0.  1.
<scales pt_clust_5="13000.00000" pt_clust_6="13000.00000" pt_clust_7="13000.00000" pt_clust_8="13000.00000" pt_clust_9="35.75285"></scales>
<clustering>
<clus scale="   35.753">  2  9  1 -1</clus>
<clus scale="   76.563">  5  6 -1 -1</clus>
<clus scale="   90.823">  7  8 -1 -1</clus>
<clus scale="  107.128">  2  5  1 -1</clus>
<clus scale="   35.753">  2  5  1 -1</clus>
</clustering>
</event>
<event>
 9    1  0.2674825E-005  0.1102570E+03  0.7546771E-02  0.1266602E+00
          1   -1    0    0  502    0  0.00000000000E+00  0.00000000000E+00  0.19189727019E+02  0.19189727019E+02  0.00000000000E+00 0. -1.
         -2   -1    0    0    0  501 -0.00000000000E+00 -0.00000000000E+00 -0.13565922424E+04  0.13565922424E+04  0.00000000000E+00 0.  1.
        -24    2    1    2    0    0 -0.32101101711E+02 -0.49966979051E+02 -0.99793587599E+03  0.10029225970E+04  0.80315274686E+02 0.  0.
         23    2    1    2    0    0 -0.12989950756E+02  0.41132969288E+02 -0.19856787393E+03  0.22465780407E+03  0.95818935431E+02 0.  0.
         13    1    3    3    0    0 -0.89362728528E+01 -0.31540129072E+02 -0.11744340088E+03  0.12193272376E+03  0.00000000000E+00 0. -1.
        -14    1    3    3    0    0 -0.23164828858E+02 -0.18426849979E+02 -0.88049247512E+03  0.88098987329E+03  0.00000000000E+00 0.  1.
        -13    1    4    4    0    0  0.26864638713E+02  0.19394239011E+02 -0.16498851600E+02  0.37014286756E+02  0.00000000000E+00 0. -1.
         13    1    4    4    0    0 -0.39854589468E+02  0.21738730278E+02 -0.18206902233E+03  0.18764351731E+03  0.00000000000E+00 0.  1.
         21    1    1    2  502  501  0.45091052467E+02  0.88340097630E+01 -0.14089876546E+03  0.14820156831E+03  0.00000000000E+00 0.  1.
<scales pt_clust_5="13000.00000" pt_clust_6="13000.00000" pt_clust_7="13000.00000" pt_clust_8="13000.00000" pt_clust_9="45.94826"></scales>
<clustering>
<clus scale="   45.948">  1  9  2 -1</clus>
<clus scale="   80.315">  5  6 -1 -1</clus>
<clus scale="   95.819">  7  8 -1 -1</clus>
<clus scale="   97.087">  2  5  1 -1</clus>
<clus scale="   45.948">  1  5  2 -1</clus>
</clustering>
</event>
<event>
 9    1  0.2674825E-005  0.1975325E+03  0.7546771E-02  0.1153065E+00
         -2   -1    0    0    0  501 -0.00000000000E+00  0.00000000000E+00  0.22244361040E+03  0.22244361040E+03  0.00000000000E+00 0.  1.
          1   -1    0    0  502    0  0.00000000000E+00 -0.00000000000E+00 -0.37361112440E+03  0.37361112440E+03  0.00000000000E+00 0. -1.
        -24    2    1    2    0    0 -0.14175862262E+03 -0.95384891758E+02  0.11039577208E+03  0.21785580166E+03  0.77975247114E+02 0.  0.
         23    2    1    2    0    0  0.16138256521E+03  0.10348986569E+03 -0.13869031477E+03  0.25350508084E+03  0.90968884483E+02 0.  0.
         13    1    3    3    0    0 -0.14362346504E+02 -0.49920832545E+02  0.22978304521E+02  0.56801135532E+02  0.00000000000E+00 0. -1.
        -14    1    3    3    0    0 -0.12739627612E+03 -0.45464059214E+02  0.87417467556E+02  0.16105466613E+03  0.00000000000E+00 0.  1.
        -13    1    4    4    0    0 -0.29545121394E+01  0.31196036001E+02 -0.11074204498E+02  0.33234918526E+02  0.00000000000E+00 0.  1.
         13    1    4    4    0    0  0.16433707735E+03  0.72293829693E+02 -0.12761611027E+03  0.22027016231E+03  0.00000000000E+00 0. -1.
         21    1    1    2  502  501 -0.19623942592E+02 -0.81049739362E+01 -0.12287297130E+03  0.12469385230E+03  0.00000000000E+00 0. -1.
<scales pt_clust_5="13000.00000" pt_clust_6="13000.00000" pt_clust_7="13000.00000" pt_clust_8="13000.00000" pt_clust_9="21.23181"></scales>
<clustering>
<clus scale="   21.232">  2  9  1 -1</clus>
<clus scale="   77.975">  5  6 -1 -1</clus>
<clus scale="   90.969">  7  8 -1 -1</clus>
<clus scale="  191.896">  1  5  2 -1</clus>
<clus scale="   21.232">  2  5  1 -1</clus>
</clustering>
</event>
<event>
 9    1  0.2674825E-005  0.9560687E+02  0.7546771E-02  0.1298973E+00
         -2   -1    0    0    0  501 -0.00000000000E+00  0.00000000000E+00  0.10584414770E+03  0.10584414770E+03  0.00000000000E+00 0.  1.
          1   -1    0    0  502    0  0.00000000000E+00 -0.00000000000E+00 -0.18061529655E+03  0.18061529655E+03  0.00000000000E+00 0. -1.
         23    2    1    2    0    0 -0.31368267276E+01  0.10884448502E+01  0.59178836698E+02  0.11220502590E+03  0.95272287314E+02 0.  0.
        -24    2    1    2    0    0  0.22903441500E+02 -0.18080337994E+02 -0.10162225263E+03  0.13272700802E+03  0.80236588754E+02 0.  0.
         13    1    4    4    0    0  0.35455239889E+02 -0.42923705367E+02 -0.80075876180E+02  0.97527762530E+02  0.00000000000E+00 0. -1.
        -14    1    4    4    0    0 -0.12551798388E+02  0.24843367374E+02 -0.21546376450E+02  0.35199245494E+02  0.00000000000E+00 0.  1.
        -11    1    3    3    0    0 -0.43521643211E+02 -0.14112701881E+02  0.50584933146E+02  0.68206577715E+02  0.00000000000E+00 0.  1.
         11    1    3    3    0    0  0.40384816484E+02  0.15201146731E+02  0.85939035521E+01  0.43998448184E+02  0.00000000000E+00 0. -1.
         21    1    1    2  502  501 -0.19766614773E+02  0.16991893143E+02 -0.32327732920E+02  0.41527410320E+02  0.00000000000E+00 0.  1.
<scales pt_clust_5="13000.00000" pt_clust_6="13000.00000" pt_clust_7="13000.00000" pt_clust_8="13000.00000" pt_clust_9="26.06614"></scales>
<clustering>
<clus scale="   26.066">  2  9  1 -1</clus>
<clus scale="   80.237">  5  6 -1 -1</clus>
<clus scale="   80.634">  2  5  1 -1</clus>
<clus scale="   95.272">  7  8 -1 -1</clus>
<clus scale="   26.066">  2  5  1 -1</clus>
</clustering>
</event>
<event>
 9    1  0.2674825E-005  0.1366169E+03  0.7546771E-02  0.1218306E+00
          1   -1    0    0  502    0  0.00000000000E+00  0.00000000000E+00  0.56729992588E+03  0.56729992588E+03  0.00000000000E+00 0. -1.
         -2   -1    0    0    0  501 -0.00000000000E+00 -0.00000000000E+00 -0.48078879873E+02  0.48078879873E+02  0.00000000000E+00 0.  1.
        -24    2    1    2    0    0 -0.50921213520E+02 -0.78961018737E+02  0.11967006311E+03  0.17658851604E+03  0.89636864778E+02 0.  0.
         23    2    1    2    0    0  0.52046996817E+02  0.10714502735E+03  0.30128153653E+03  0.33655287083E+03  0.91150007384E+02 0.  0.
         13    1    3    3    0    0 -0.30550819463E+02 -0.27145404077E+01  0.85044248361E+02  0.90406003554E+02  0.00000000000E+00 0. -1.
        -14    1    3    3    0    0 -0.20370394058E+02 -0.76246478329E+02  0.34625814746E+02  0.86182512486E+02  0.00000000000E+00 0.  1.
        -13    1    4    4    0    0  0.29116293979E+02  0.29821383745E+02  0.24690070918E+02  0.48442472124E+02  0.00000000000E+00 0.  1.
         13    1    4    4    0    0  0.22930702838E+02  0.77323643606E+02  0.27659146561E+03  0.28811039870E+03  0.00000000000E+00 0. -1.
         21    1    1    2  502  501 -0.11257832961E+01 -0.28184008614E+02  0.98269446378E+02  0.10223741889E+03  0.00000000000E+00 0.  1.
<scales pt_clust_5="13000.00000" pt_clust_6="13000.00000" pt_clust_7="13000.00000" pt_clust_8="13000.00000" pt_clust_9="28.20648"></scales>
<clustering>
<clus scale="   28.206">  1  9  2 -1</clus>
<clus scale="   89.637">  5  6 -1 -1</clus>
<clus scale="   91.150">  7  8 -1 -1</clus>
<clus scale="  135.612">  2  5  1 -1</clus>
<clus scale="   28.206">  1  5  2 -1</clus>
</clustering>
</event>
<event>
 9    1  0.2674825E-005  0.1314820E+03  0.7546771E-02  0.1247232E+00
         -2   -1    0    0    0  501 -0.00000000000E+00  0.00000000000E+00  0.24995677648E+03  0.24995677648E+03  0.00000000000E+00 0.  1.
          1   -1    0    0  502    0  0.00000000000E+00 -0.00000000000E+00 -0.14246836678E+03  0.14246836678E+03  0.00000000000E+00 0. -1.
        -24    2    1    2    0    0  0.39961123969E+01 -0.24527012423E+02  0.13535052760E+03  0.15926549686E+03  0.80175993389E+02 0.  0.
         23    2    1    2    0    0 -0.89916254043E+02 -0.19928147706E+02  0.79813177763E+01  0.12999335401E+03  0.91392050214E+02 0.  0.
         11    1    3    3    0    0 -0.12012181855E+02 -0.42325265786E+02  0.35347588830E+02  0.56437334034E+02  0.00000000000E+00 0. -1.
        -12    1    3    3    0    0  0.16008294252E+02  0.17798253363E+02  0.10000293877E+03  0.10282816283E+03  0.00000000000E+00 0.  1.
        -11    1    4    4    0    0 -0.28761149570E+02  0.13340600672E+02  0.41906775663E+02  0.52548579403E+02  0.00000000000E+00 0.  1.
         11    1    4    4    0    0 -0.61155104473E+02 -0.33268748378E+02 -0.33925457886E+02  0.77444774611E+02  0.00000000000E+00 0. -1.
         21    1    1    2  502  501  0.85920141646E+02  0.44455160129E+02 -0.35843435674E+02  0.10316629238E+03  0.00000000000E+00 0.  1.
<scales pt_clust_5="13000.00000" pt_clust_6="13000.00000" pt_clust_7="13000.00000" pt_clust_8="13000.00000" pt_clust_9="94.52519"></scales>
<clustering>
<clus scale="   80.176">  5  6 -1 -1</clus>
<clus scale="   83.939">  1  5  2 -1</clus>
<clus scale="   91.392">  7  8 -1 -1</clus>
<clus scale="   94.525">  2  9  1 -1</clus>
<clus scale="   94.525">  2  5  1 -1</clus>
</clustering>
</event>
<event>
 9    1  0.2674825E-005  0.2030032E+03  0.7546771E-02  0.1177973E+00
         -2   -1    0    0    0  501 -0.00000000000E+00  0.00000000000E+00  0.42128601306E+03  0.42128601306E+03  0.00000000000E+00 0.  1.
          1   -1    0    0  502    0  0.00000000000E+00 -0.00000000000E+00 -0.19764253378E+03  0.19764253378E+03  0.00000000000E+00 0. -1.
         23    2    1    2    0    0 -0.34408074588E+02 -0.27154752241E+02  0.20128979188E+03  0.22456296383E+03  0.89384832280E+02 0.  0.
        -24    2    1    2    0    0  0.15074743030E+03 -0.11711453847E+03  0.28045879914E+02  0.20894477785E+03  0.80191931933E+02 0.  0.
         11    1    4    4    0    0  0.90251236626E+02 -0.10099490692E+03 -0.97814512312E+01  0.13579739955E+03  0.00000000000E+00 0. -1.
        -12    1    4    4    0    0  0.60496193674E+02 -0.16119631550E+02  0.37827331145E+02  0.73147378298E+02  0.00000000000E+00 0.  1.
        -13    1    3    3    0    0 -0.27759062817E+02 -0.51411186879E+02  0.18638283950E+03  0.19532598026E+03  0.00000000000E+00 0. -1.
         13    1    3    3    0    0 -0.66490117710E+01  0.24256434638E+02  0.14906952383E+02  0.29236983569E+02  0.00000000000E+00 0.  1.
         21    1    1    2  502  501 -0.11633935571E+03  0.14426929071E+03 -0.56921925139E+01  0.18542080516E+03  0.00000000000E+00 0.  1.
<scales pt_clust_5="13000.00000" pt_clust_6="13000.00000" pt_clust_7="13000.00000" pt_clust_8="13000.00000" pt_clust_9="186.49274"></scales>
<clustering>
<clus scale="   80.192">  5  6 -1 -1</clus>
<clus scale="   89.385">  7  8 -1 -1</clus>
<clus scale="   99.554">  1  7  2 -1</clus>
<clus scale="  186.493">  2  9  1 -1</clus>
<clus scale="  186.493">  2  5  1 -1</clus>
</clustering>
</event>
<event>
 9    1  0.2674825E-005  0.1434935E+03  0.7546771E-02  0.1233024E+00
          1   -1    0    0  502    0  0.00000000000E+00  0.00000000000E+00  0.41152172408E+03  0.41152172408E+03  0.00000000000E+00 0. -1.
         -2   -1    0    0    0  501 -0.00000000000E+00 -0.00000000000E+00 -0.15894240764E+03  0.15894240764E+03  0.00000000000E+00 0.  1.
         23    2    1    2    0    0 -0.84452208325E+02 -0.66860163599E+02 -0.88959830166E+02  0.16700439809E+03  0.91510440004E+02 0.  0.
        -24    2    1    2    0    0 -0.28979394809E+02  0.63341723723E+01  0.13323579104E+03  0.15867327130E+03  0.80904288819E+02 0.  0.
         11    1    4    4    0    0  0.20247148888E+02  0.20758310863E+02  0.78371495265E+02  0.83564022031E+02  0.00000000000E+00 0. -1.
        -12    1    4    4    0    0 -0.49226543697E+02 -0.14424138490E+02  0.54864295775E+02  0.75109249274E+02  0.00000000000E+00 0.  1.
        -11    1    3    3    0    0 -0.91686358010E+01 -0.56539612392E+02 -0.66499938816E+02  0.87766927225E+02  0.00000000000E+00 0.  1.
         11    1    3    3    0    0 -0.75283572524E+02 -0.10320551207E+02 -0.22459891350E+02  0.79237470862E+02  0.00000000000E+00 0. -1.
         21    1    1    2  502  501  0.11343160313E+03  0.60525991227E+02  0.20830335556E+03  0.24478646233E+03  0.00000000000E+00 0.  1.
<scales pt_clust_5="13000.00000" pt_clust_6="13000.00000" pt_clust_7="13000.00000" pt_clust_8="13000.00000" pt_clust_9="110.52705"></scales>
<clustering>
<clus scale="   80.904">  5  6 -1 -1</clus>
<clus scale="   86.171">  1  5  2 -1</clus>
<clus scale="   91.510">  7  8 -1 -1</clus>
<clus scale="  110.527">  1  9  2 -1</clus>
<clus scale="   86.171">  1  5  2 -1</clus>
</clustering>
</event>
<event>
 9    1  0.2674825E-005  0.1404424E+03  0.7546771E-02  0.1239199E+00
         -2   -1    0    0    0  501 -0.00000000000E+00  0.00000000000E+00  0.36677663667E+03  0.36677663667E+03  0.00000000000E+00 0.  1.
          1   -1    0    0  502    0  0.00000000000E+00 -0.00000000000E+00 -0.99211860141E+02  0.99211860141E+02  0.00000000000E+00 0. -1.
        -24    2    1    2    0    0 -0.13250698626E+02  0.12800576262E+02  0.19047775811E+03  0.20698978575E+03  0.78889538611E+02 0.  0.
         23    2    1    2    0    0  0.19325794622E+02 -0.11168894190E+03  0.30638876267E+02  0.14957638446E+03  0.92663088497E+02 0.  0.
         11    1    3    3    0    0 -0.24934880771E+02  0.28943976396E+02  0.40430184451E+02  0.55624651580E+02  0.00000000000E+00 0. -1.
        -12    1    3    3    0    0  0.11684182145E+02 -0.16143400134E+02  0.15004757366E+03  0.15136513417E+03  0.00000000000E+00 0.  1.
        -11    1    4    4    0    0  0.48958526480E+02 -0.93478263679E+02  0.37088104542E+01  0.10558824921E+03  0.00000000000E+00 0.  1.
         11    1    4    4    0    0 -0.29632731858E+02 -0.18210678217E+02  0.26930065812E+02  0.43988135254E+02  0.00000000000E+00 0. -1.
         21    1    1    2  502  501 -0.60750959964E+01  0.98888365634E+02  0.46448142148E+02  0.10942232660E+03  0.00000000000E+00 0. -1.
<scales pt_clust_5="13000.00000" pt_clust_6="13000.00000" pt_clust_7="13000.00000" pt_clust_8="13000.00000" pt_clust_9="105.53497"></scales>
<clustering>
<clus scale="   78.890">  5  6 -1 -1</clus>
<clus scale="   81.012">  1  5  2 -1</clus>
<clus scale="   92.663">  7  8 -1 -1</clus>
<clus scale="  105.535">  1  9  2 -1</clus>
<clus scale="  140.442">  2  5  1 -1</clus>
</clustering>
</event>
<event>
 9    1  0.2674825E-005  0.1105156E+03  0.7546771E-02  0.1265220E+00
          1   -1    0    0  502    0  0.00000000000E+00  0.00000000000E+00  0.26887639159E+03  0.26887639159E+03  0.00000000000E+00 0. -1.
         -2   -1    0    0    0  501 -0.00000000000E+00 -0.00000000000E+00 -0.13234617063E+03  0.13234617063E+03  0.00000000000E+00 0.  1.
        -24    2    1    2    0    0 -0.35280171570E+02 -0.51997795148E+02 -0.80144542439E+02  0.12613846218E+03  0.74426492277E+02 0.  0.
         23    2    1    2    0    0  0.76022252891E+02  0.51882550445E+02  0.17400246257E+03  0.21608532268E+03  0.89133763084E+02 0.  0.
         13    1    3    3    0    0 -0.45988069896E+02 -0.51934392619E+02 -0.31246567002E+02  0.76081743269E+02  0.00000000000E+00 0. -1.
        -14    1    3    3    0    0  0.10707898326E+02 -0.63402529030E-01 -0.48897975437E+02  0.50056718913E+02  0.00000000000E+00 0.  1.
        -13    1    4    4    0    0  0.37546276325E+02 -0.15354997035E+02  0.23667370988E+02  0.46964276310E+02  0.00000000000E+00 0.  1.
         13    1    4    4    0    0  0.38475976566E+02  0.67237547480E+02  0.15033509158E+03  0.16912104637E+03  0.00000000000E+00 0. -1.
         21    1    1    2  502  501 -0.40742081321E+02  0.11524470357E+00  0.42672300833E+02  0.58998777362E+02  0.00000000000E+00 0.  1.
<scales pt_clust_5="13000.00000" pt_clust_6="13000.00000" pt_clust_7="13000.00000" pt_clust_8="13000.00000" pt_clust_9="40.74224"></scales>
<clustering>
<clus scale="   40.742">  1  9  2 -1</clus>
<clus scale="   74.426">  5  6 -1 -1</clus>
<clus scale="   89.134">  7  8 -1 -1</clus>
<clus scale="   99.036">  2  5  1 -1</clus>
<clus scale="   40.742">  1  5  2 -1</clus>
</clustering>
</event>
<event>
 9    1  0.2674825E-005  0.1667495E+03  0.7546771E-02  0.1196754E+00
         -2   -1    0    0    0  501 -0.00000000000E+00  0.00000000000E+00  0.31513762699E+03  0.31513762699E+03  0.00000000000E+00 0.  1.
          1   -1    0    0  502    0  0.00000000000E+00 -0.00000000000E+00 -0.33660205590E+03  0.33660205590E+03  0.00000000000E+00 0. -1.
         23    2    1    2    0    0  0.73772814132E+02 -0.11789092205E+03  0.19686135443E+03  0.25737422462E+03  0.90257415351E+02 0.  0.
        -24    2    1    2    0    0 -0.75211499210E+02 -0.44503359339E+02 -0.19799953996E+03  0.23069771981E+03  0.79876789470E+02 0.  0.
         11    1    4    4    0    0 -0.74869861184E+02 -0.62784590621E+02 -0.18120651440E+03  0.20587180913E+03  0.00000000000E+00 0. -1.
        -12    1    4    4    0    0 -0.34163802605E+00  0.18281231282E+02 -0.16793025557E+02  0.24825910680E+02  0.00000000000E+00 0.  1.
        -11    1    3    3    0    0  0.59780440231E+02 -0.29605910990E+02  0.12870901768E+03  0.14496972868E+03  0.00000000000E+00 0.  1.
         11    1    3    3    0    0  0.13992373902E+02 -0.88285011056E+02  0.68152336746E+02  0.11240449594E+03  0.00000000000E+00 0. -1.
         21    1    1    2  502  501  0.14386850781E+01  0.16239428139E+03 -0.20326243389E+02  0.16366773846E+03  0.00000000000E+00 0.  1.
<scales pt_clust_5="13000.00000" pt_clust_6="13000.00000" pt_clust_7="13000.00000" pt_clust_8="13000.00000" pt_clust_9="140.21054"></scales>
<clustering>
<clus scale="   79.877">  5  6 -1 -1</clus>
<clus scale="   90.257">  7  8 -1 -1</clus>
<clus scale="  118.396">  2  5  1 -1</clus>
<clus scale="  140.211">  2  9  1 -1</clus>
<clus scale="  118.396">  2  5  1 -1</clus>
</clustering>
</event>
<event>
 9    1  0.2674825E-005  0.1226754E+03  0.7546771E-02  0.1241378E+00
         -2   -1    0    0    0  501 -0.00000000000E+00  0.00000000000E+00  0.14050199959E+03  0.14050199959E+03  0.00000000000E+00 0.  1.
          1   -1    0    0  502    0  0.00000000000E+00 -0.00000000000E+00 -0.16382284239E+03  0.16382284239E+03  0.00000000000E+00 0. -1.
         23    2    1    2    0    0 -0.91935536622E+02  0.96883095373E+01  0.46907530478E+02  0.13702087931E+03  0.89601332106E+02 0.  0.
        -24    2    1    2    0    0  0.70234750366E+02 -0.15704465951E+02 -0.16881149890E+02  0.10939848361E+03  0.80644309067E+02 0.  0.
         11    1    4    4    0    0  0.79798108546E+02 -0.19920656762E+02 -0.34277502947E+02  0.89103972423E+02  0.00000000000E+00 0. -1.
        -12    1    4    4    0    0 -0.95633581798E+01  0.42161908109E+01  0.17396353057E+02  0.20294511187E+02  0.00000000000E+00 0.  1.
        -13    1    3    3    0    0 -0.82833567032E+02 -0.25272115570E+02  0.51255970584E+02  0.10063425944E+03  0.00000000000E+00 0.  1.
         13    1    3    3    0    0 -0.91019695908E+01  0.34960425107E+02 -0.43484401062E+01  0.36386619868E+02  0.00000000000E+00 0. -1.
         21    1    1    2  502  501  0.21700786256E+02  0.60161564136E+01 -0.53347223385E+02  0.57905479059E+02  0.00000000000E+00 0. -1.
<scales pt_clust_5="13000.00000" pt_clust_6="13000.00000" pt_clust_7="13000.00000" pt_clust_8="13000.00000" pt_clust_9="22.51929"></scales>
<clustering>
<clus scale="   22.519">  2  9  1 -1</clus>
<clus scale="   80.644">  5  6 -1 -1</clus>
<clus scale="   89.601">  7  8 -1 -1</clus>
<clus scale="  116.294">  2  5  1 -1</clus>
<clus scale="   22.519">  2  5  1 -1</clus>
</clustering>
</event>
<event>
 9    1  0.2674825E-005  0.1076124E+03  0.7546771E-02  0.1268103E+00
         -2   -1    0    0    0  501 -0.00000000000E+00  0.00000000000E+00  0.97554918531E+02  0.97554918531E+02  0.00000000000E+00 0.  1.
          1   -1    0    0  502    0  0.00000000000E+00 -0.00000000000E+00 -0.91402501765E+03  0.91402501765E+03  0.00000000000E+00 0. -1.
         23    2    1    2    0    0 -0.74206528602E+02  0.99881043592E+01  0.37059433881E+02  0.12117834135E+03  0.87774812206E+02 0.  0.
        -24    2    1    2    0    0  0.50716836546E+02  0.36589675093E+02 -0.82443465581E+03  0.83067080670E+03  0.80065507997E+02 0.  0.
         13    1    4    4    0    0  0.10006190906E+02  0.51258263545E+02 -0.30520756175E+03  0.30964364871E+03  0.00000000000E+00 0. -1.
        -14    1    4    4    0    0  0.40710645640E+02 -0.14668588453E+02 -0.51922709406E+03  0.52102715799E+03  0.00000000000E+00 0.  1.
        -11    1    3    3    0    0 -0.52544702535E+01 -0.21243714181E+02  0.39814865859E+02  0.45432679794E+02  0.00000000000E+00 0. -1.
         11    1    3    3    0    0 -0.68952058348E+02  0.31231818540E+02 -0.27554319784E+01  0.75745661560E+02  0.00000000000E+00 0.  1.
         21    1    1    2  502  501  0.23489692055E+02 -0.46577779452E+02 -0.29094877190E+02  0.59730788127E+02  0.00000000000E+00 0. -1.
<scales pt_clust_5="13000.00000" pt_clust_6="13000.00000" pt_clust_7="13000.00000" pt_clust_8="13000.00000" pt_clust_9="52.16565"></scales>
<clustering>
<clus scale="   52.166">  1  9  2 -1</clus>
<clus scale="   80.066">  5  6 -1 -1</clus>
<clus scale="   87.775">  7  8 -1 -1</clus>
<clus scale="  101.422">  2  5  1 -1</clus>
<clus scale="  101.422">  2  5  1 -1</clus>
</clustering>
</event>
<event>
 9    1  0.2674825E-005  0.1666712E+03  0.7546771E-02  0.1183892E+00
          1   -1    0    0  502    0  0.00000000000E+00  0.00000000000E+00  0.46739368747E+03  0.46739368747E+03  0.00000000000E+00 0. -1.
         -2   -1    0    0    0  501 -0.00000000000E+00 -0.00000000000E+00 -0.12815398224E+03  0.12815398224E+03  0.00000000000E+00 0.  1.
         23    2    1    2    0    0 -0.29572845848E+02  0.14087282717E+03 -0.37479322809E+02  0.17578524807E+03  0.93680559109E+02 0.  0.
        -24    2    1    2    0    0  0.23331848798E+02 -0.11446918900E+03  0.21839770330E+03  0.25913320879E+03  0.76189846394E+02 0.  0.
         11    1    4    4    0    0 -0.86483390046E+01 -0.87127658695E+02  0.18748927289E+03  0.20692571161E+03  0.00000000000E+00 0. -1.
        -12    1    4    4    0    0  0.31980187802E+02 -0.27341530303E+02  0.30908430405E+02  0.52207497175E+02  0.00000000000E+00 0.  1.
        -13    1    3    3    0    0  0.30050718949E+02  0.26871456474E+02 -0.22760322256E+02  0.46294202138E+02  0.00000000000E+00 0.  1.
         13    1    3    3    0    0 -0.59623564797E+02  0.11400137070E+03 -0.14719000553E+02  0.12949104593E+03  0.00000000000E+00 0. -1.
         21    1    1    2  502  501  0.62409970504E+01 -0.26403638173E+02  0.15832132474E+03  0.16062921285E+03  0.00000000000E+00 0. -1.
<scales pt_clust_5="13000.00000" pt_clust_6="13000.00000" pt_clust_7="13000.00000" pt_clust_8="13000.00000" pt_clust_9="27.13120"></scales>
<clustering>
<clus scale="   27.131">  1  9  2 -1</clus>
<clus scale="   76.190">  5  6 -1 -1</clus>
<clus scale="   93.681">  7  8 -1 -1</clus>
<clus scale="  157.506">  1  5  2 -1</clus>
<clus scale="   27.131">  1  5  2 -1</clus>
</clustering>
</event>
<event>
 9    1  0.2674825E-005  0.1157582E+03  0.7546771E-02  0.1257454E+00
          1   -1    0    0  502    0  0.00000000000E+00  0.00000000000E+00  0.32137748488E+03  0.32137748488E+03  0.00000000000E+00 0. -1.
         -2   -1    0    0    0  501 -0.00000000000E+00 -0.00000000000E+00 -0.61104434708E+02  0.61104434708E+02  0.00000000000E+00 0.  1.
        -24    2    1    2    0    0  0.92873834679E+01  0.80317706403E+02  0.26005213376E+02  0.10965825657E+03  0.69364779660E+02 0.  0.
         23    2    1    2    0    0  0.91427047214E+01 -0.69711410412E+02  0.21750569103E+03  0.24574726747E+03  0.90220419243E+02 0.  0.
         13    1    3    3    0    0 -0.29984438759E+02  0.40637354278E+02  0.15704697727E+02  0.52887604040E+02  0.00000000000E+00 0. -1.
        -14    1    3    3    0    0  0.39271822227E+02  0.39680352125E+02  0.10300515649E+02  0.56770652528E+02  0.00000000000E+00 0.  1.
        -13    1    4    4    0    0  0.36041329714E+02 -0.39997317605E+02  0.49874227676E+02  0.73390744985E+02  0.00000000000E+00 0.  1.
         13    1    4    4    0    0 -0.26898624992E+02 -0.29714092807E+02  0.16763146335E+03  0.17235652248E+03  0.00000000000E+00 0. -1.
         21    1    1    2  502  501 -0.18430088189E+02 -0.10606295991E+02  0.16762145774E+02  0.27076395555E+02  0.00000000000E+00 0.  1.
<scales pt_clust_5="13000.00000" pt_clust_6="13000.00000" pt_clust_7="13000.00000" pt_clust_8="13000.00000" pt_clust_9="21.26409"></scales>
<clustering>
<clus scale="   21.264">  2  9  1 -1</clus>
<clus scale="   69.365">  5  6 -1 -1</clus>
<clus scale="   90.220">  7  8 -1 -1</clus>
<clus scale="  100.358">  2  5  1 -1</clus>
<clus scale="  115.758">  1  5  2 -1</clus>
</clustering>
</event>
<event>
 9    1  0.2674825E-005  0.1056902E+03  0.7546771E-02  0.1273467E+00
         -2   -1    0    0    0  501 -0.00000000000E+00  0.00000000000E+00  0.42150463000E+02  0.42150463000E+02  0.00000000000E+00 0.  1.
          1   -1    0    0  502    0  0.00000000000E+00 -0.00000000000E+00 -0.46741390872E+03  0.46741390872E+03  0.00000000000E+00 0. -1.
        -24    2    1    2    0    0 -0.31030842567E+02 -0.46111384671E+02 -0.44837903910E+02  0.10702440784E+03  0.79715828168E+02 0.  0.
         23    2    1    2    0    0  0.47686533833E+02  0.26339645438E+02 -0.30794710049E+03  0.32558895232E+03  0.90603348393E+02 0.  0.
         11    1    3    3    0    0  0.16673113319E+01 -0.58369913786E+02 -0.42117740376E+02  0.71998130649E+02  0.00000000000E+00 0. -1.
        -12    1    3    3    0    0 -0.32698153899E+02  0.12258529116E+02 -0.27201635336E+01  0.35026277195E+02  0.00000000000E+00 0.  1.
        -11    1    4    4    0    0  0.50463036876E+01  0.45418894561E+02 -0.73614215945E+02  0.86645218871E+02  0.00000000000E+00 0.  1.
         11    1    4    4    0    0  0.42640230145E+02 -0.19079249123E+02 -0.23433288455E+03  0.23894373345E+03  0.00000000000E+00 0. -1.
         21    1    1    2  502  501 -0.16655691266E+02  0.19771739232E+02 -0.72478441314E+02  0.76951011553E+02  0.00000000000E+00 0.  1.
<scales pt_clust_5="13000.00000" pt_clust_6="13000.00000" pt_clust_7="13000.00000" pt_clust_8="13000.00000" pt_clust_9="25.85215"></scales>
<clustering>
<clus scale="   25.852">  2  9  1 -1</clus>
<clus scale="   79.716">  5  6 -1 -1</clus>
<clus scale="   90.603">  7  8 -1 -1</clus>
<clus scale="   96.520">  1  5  2 -1</clus>
<clus scale="   25.852">  2  5  1 -1</clus>
</clustering>
</event>
<event>
 9    1  0.2674825E-005  0.2973439E+03  0.7546771E-02  0.1086964E+00
          1   -1    0    0  502    0  0.00000000000E+00  0.00000000000E+00  0.22693623619E+03  0.22693623619E+03  0.00000000000E+00 0. -1.
         -2   -1    0    0    0  501 -0.00000000000E+00 -0.00000000000E+00 -0.73269759757E+03  0.73269759757E+03  0.00000000000E+00 0.  1.
         23    2    1    2    0    0  0.28786965986E+03  0.50884689883E+01 -0.56594858066E+03  0.64141532092E+03  0.90669644189E+02 0.  0.
        -24    2    1    2    0    0 -0.26326837376E+03 -0.21345185465E+02  0.32755747824E+02  0.27794457915E+03  0.80089927587E+02 0.  0.
         13    1    4    4    0    0 -0.99484485255E+02  0.29798805182E+02  0.21042084082E+02  0.10596178981E+03  0.00000000000E+00 0. -1.
        -14    1    4    4    0    0 -0.16378388850E+03 -0.51143990647E+02  0.11713663742E+02  0.17198278934E+03  0.00000000000E+00 0.  1.
        -11    1    3    3    0    0  0.10061367595E+03  0.25887980781E+02 -0.28310497528E+03  0.30156545951E+03  0.00000000000E+00 0.  1.
         11    1    3    3    0    0  0.18725598391E+03 -0.20799511793E+02 -0.28284360538E+03  0.33984986142E+03  0.00000000000E+00 0. -1.
         21    1    1    2  502  501 -0.24601286103E+02  0.16256716476E+02  0.27431471456E+02  0.40273933689E+02  0.00000000000E+00 0. -1.
<scales pt_clust_5="13000.00000" pt_clust_6="13000.00000" pt_clust_7="13000.00000" pt_clust_8="13000.00000" pt_clust_9="29.48736"></scales>
<clustering>
<clus scale="   29.487">  1  9  2 -1</clus>
<clus scale="   80.090">  5  6 -1 -1</clus>
<clus scale="   90.670">  7  8 -1 -1</clus>
<clus scale="  294.290">  1  5  2 -1</clus>
<clus scale="   29.487">  1  5  2 -1</clus>
</clustering>
</event>
<event>
 9    1  0.2674825E-005  0.1270947E+03  0.7546771E-02  0.1234235E+00
         -2   -1    0    0    0  501 -0.00000000000E+00  0.00000000000E+00  0.35581266699E+03  0.35581266699E+03  0.00000000000E+00 0.  1.
          1   -1    0    0  502    0  0.00000000000E+00 -0.00000000000E+00 -0.14712998403E+03  0.14712998403E+03  0.00000000000E+00 0. -1.
        -24    2    1    2    0    0 -0.89783563822E+02  0.18193903163E+02  0.30733296880E+03  0.33082453902E+03  0.81235555416E+02 0.  0.
         23    2    1    2    0    0  0.73023542881E+02 -0.52215470245E+00 -0.74665720584E+02  0.13793553799E+03  0.90102898677E+02 0.  0.
         11    1    3    3    0    0 -0.72137511312E+02  0.58532602373E+01  0.10604788731E+03  0.12839094827E+03  0.00000000000E+00 0. -1.
        -12    1    3    3    0    0 -0.17646052510E+02  0.12340642926E+02  0.20128508148E+03  0.20243359075E+03  0.00000000000E+00 0.  1.
        -13    1    4    4    0    0  0.48508258486E+02  0.43762661810E+02 -0.43629983421E+02  0.78560786423E+02  0.00000000000E+00 0.  1.
         13    1    4    4    0    0  0.24515284396E+02 -0.44284816513E+02 -0.31035737163E+02  0.59374751568E+02  0.00000000000E+00 0. -1.
         21    1    1    2  502  501  0.16760020940E+02 -0.17671748460E+02 -0.23984565255E+02  0.34182574011E+02  0.00000000000E+00 0. -1.
<scales pt_clust_5="13000.00000" pt_clust_6="13000.00000" pt_clust_7="13000.00000" pt_clust_8="13000.00000" pt_clust_9="24.35547"></scales>
<clustering>
<clus scale="   24.355">  2  9  1 -1</clus>
<clus scale="   81.236">  5  6 -1 -1</clus>
<clus scale="   90.103">  7  8 -1 -1</clus>
<clus scale="  120.970">  1  5  2 -1</clus>
<clus scale="   24.355">  2  5  1 -1</clus>
</clustering>
</event>
<event>
 9    1  0.2674825E-005  0.9576976E+02  0.7546771E-02  0.1296444E+00
          1   -1    0    0  502    0  0.00000000000E+00  0.00000000000E+00  0.16945352442E+03  0.16945352442E+03  0.00000000000E+00 0. -1.
         -2   -1    0    0    0  501 -0.00000000000E+00 -0.00000000000E+00 -0.20866420568E+03  0.20866420568E+03  0.00000000000E+00 0.  1.
        -24    2    1    2    0    0  0.12684745451E+02  0.24830907725E+02 -0.17158999681E+03  0.19100522101E+03  0.79135268391E+02 0.  0.
         23    2    1    2    0    0 -0.41411641251E+02 -0.16723031238E+02  0.10947787464E+03  0.14949006633E+03  0.91472898129E+02 0.  0.
         11    1    3    3    0    0 -0.13979129996E+02  0.47115240738E+02 -0.99156241549E+02  0.11066716868E+03  0.00000000000E+00 0. -1.
        -12    1    3    3    0    0  0.26663875447E+02 -0.22284333013E+02 -0.72433755257E+02  0.80338052331E+02  0.00000000000E+00 0.  1.
        -11    1    4    4    0    0 -0.57784363411E+02 -0.32940443142E+02  0.43179045760E+02  0.79300286519E+02  0.00000000000E+00 0. -1.
         11    1    4    4    0    0  0.16372722160E+02  0.16217411904E+02  0.66298828876E+02  0.70189779813E+02  0.00000000000E+00 0.  1.
         21    1    1    2  502  501  0.28726895800E+02 -0.81078764871E+01  0.22901440912E+02  0.37622442760E+02  0.00000000000E+00 0. -1.
<scales pt_clust_5="13000.00000" pt_clust_6="13000.00000" pt_clust_7="13000.00000" pt_clust_8="13000.00000" pt_clust_9="29.84916"></scales>
<clustering>
<clus scale="   29.849">  1  9  2 -1</clus>
<clus scale="   79.135">  5  6 -1 -1</clus>
<clus scale="   84.065">  2  5  1 -1</clus>
<clus scale="   91.473">  7  8 -1 -1</clus>
<clus scale="   29.849">  1  5  2 -1</clus>
</clustering>
</event>
<event>
 9    1  0.2674825E-005  0.1455530E+03  0.7546771E-02  0.1209606E+00
         -4   -1    0    0    0  501 -0.00000000000E+00  0.00000000000E+00  0.16110077670E+03  0.16110077670E+03  0.00000000000E+00 0.  1.
          3   -1    0    0  502    0  0.00000000000E+00 -0.00000000000E+00 -0.41914640861E+03  0.41914640861E+03  0.00000000000E+00 0. -1.
        -24    2    1    2    0    0 -0.41625702215E+02  0.10677551043E+03  0.11175907035E+03  0.17642916020E+03  0.74185241445E+02 0.  0.
         23    2    1    2    0    0  0.15082654479E+02 -0.93452374762E+02 -0.31196988862E+03  0.33880337295E+03  0.92204562264E+02 0.  0.
         11    1    3    3    0    0 -0.56611541194E+02  0.63469312562E+02  0.47226476323E+02  0.97280832126E+02  0.00000000000E+00 0. -1.
        -12    1    3    3    0    0  0.14985838978E+02  0.43306197870E+02  0.64532594031E+02  0.79148328069E+02  0.00000000000E+00 0.  1.
        -11    1    4    4    0    0 -0.90314099780E+01 -0.55979116253E+02 -0.58591998333E+02  0.81536802067E+02  0.00000000000E+00 0.  1.
         11    1    4    4    0    0  0.24114064457E+02 -0.37473258509E+02 -0.25337789029E+03  0.25726657088E+03  0.00000000000E+00 0. -1.
         21    1    1    2  502  501  0.26543047736E+02 -0.13323135670E+02 -0.57834813644E+02  0.65014652168E+02  0.00000000000E+00 0.  1.
<scales pt_clust_5="13000.00000" pt_clust_6="13000.00000" pt_clust_7="13000.00000" pt_clust_8="13000.00000" pt_clust_9="29.69915"></scales>
<clustering>
<clus scale="   29.699">  2  9  1 -1</clus>
<clus scale="   74.185">  5  6 -1 -1</clus>
<clus scale="   92.205">  7  8 -1 -1</clus>
<clus scale="  134.861">  1  5  2 -1</clus>
<clus scale="   29.699">  2  5  1 -1</clus>
</clustering>
</event>
<event>
 9    1  0.2674825E-005  0.1578767E+03  0.7546771E-02  0.1193219E+00
          1   -1    0    0  502    0  0.00000000000E+00  0.00000000000E+00  0.30642634778E+03  0.30642634778E+03  0.00000000000E+00 0. -1.
         -2   -1    0    0    0  501 -0.00000000000E+00 -0.00000000000E+00 -0.25377178563E+03  0.25377178563E+03  0.00000000000E+00 0.  1.
         23    2    1    2    0    0 -0.12817487425E+03 -0.77581372374E+01 -0.19170380350E+03  0.24821583816E+03  0.91497360381E+02 0.  0.
        -24    2    1    2    0    0  0.12848033839E+03  0.38293471488E+02  0.23159789025E+03  0.27888652997E+03  0.78527234256E+02 0.  0.
         11    1    4    4    0    0  0.99516315049E+02  0.21875924649E+02  0.22195394731E+03  0.24422450280E+03  0.00000000000E+00 0. -1.
        -12    1    4    4    0    0  0.28964023341E+02  0.16417546839E+02  0.96439429387E+01  0.34662027173E+02  0.00000000000E+00 0.  1.
        -11    1    3    3    0    0 -0.34809882525E+02 -0.15280228897E+02 -0.13146241825E+03  0.13684875129E+03  0.00000000000E+00 0.  1.
         11    1    3    3    0    0 -0.93364991724E+02  0.75220916595E+01 -0.60241385249E+02  0.11136708688E+03  0.00000000000E+00 0. -1.
         21    1    1    2  502  501 -0.30546414130E+00 -0.30535334251E+02  0.12760475398E+02  0.33095765266E+02  0.00000000000E+00 0. -1.
<scales pt_clust_5="13000.00000" pt_clust_6="13000.00000" pt_clust_7="13000.00000" pt_clust_8="13000.00000" pt_clust_9="30.53686"></scales>
<clustering>
<clus scale="   30.537">  1  9  2 -1</clus>
<clus scale="   78.527">  5  6 -1 -1</clus>
<clus scale="   91.497">  7  8 -1 -1</clus>
<clus scale="  150.731">  1  5  2 -1</clus>
<clus scale="   30.537">  1  5  2 -1</clus>
</clustering>
</event>
<event>
 9    1  0.2674825E-005  0.9420441E+02  0.7546771E-02  0.1299257E+00
          1   -1    0    0  502    0  0.00000000000E+00  0.00000000000E+00  0.34095969612E+02  0.34095969612E+02  0.00000000000E+00 0. -1.
         -2   -1    0    0    0  501 -0.00000000000E+00 -0.00000000000E+00 -0.94204827199E+03  0.94204827199E+03  0.00000000000E+00 0.  1.
        -24    2    1    2    0    0  0.18560732721E+02 -0.16533957550E+02 -0.81624212054E+03  0.82059007648E+03  0.80616386151E+02 0.  0.
         23    2    1    2    0    0  0.11197662013E+02  0.18848681641E+02 -0.80368419853E+02  0.12362368486E+03  0.91340418849E+02 0.  0.
         11    1    3    3    0    0  0.87287431401E+01 -0.39792986999E+02 -0.21546821196E+03  0.21928571120E+03  0.00000000000E+00 0. -1.
        -12    1    3    3    0    0  0.98319895810E+01  0.23259029449E+02 -0.60077390858E+03  0.60130436528E+03  0.00000000000E+00 0.  1.
        -11    1    4    4    0    0  0.39896088831E+02  0.80354722976E+01 -0.34812279536E+01  0.40845876991E+02  0.00000000000E+00 0.  1.
         11    1    4    4    0    0 -0.28698426818E+02  0.10813209344E+02 -0.76887191900E+02  0.82777807874E+02  0.00000000000E+00 0. -1.
         21    1    1    2  502  501 -0.29758394734E+02 -0.23147240910E+01 -0.11341761982E+02  0.31930480260E+02  0.00000000000E+00 0. -1.
<scales pt_clust_5="13000.00000" pt_clust_6="13000.00000" pt_clust_7="13000.00000" pt_clust_8="13000.00000" pt_clust_9="29.84828"></scales>
<clustering>
<clus scale="   29.848">  1  9  2 -1</clus>
<clus scale="   80.616">  5  6 -1 -1</clus>
<clus scale="   83.847">  2  5  1 -1</clus>
<clus scale="   91.340">  7  8 -1 -1</clus>
<clus scale="   29.848">  1  5  2 -1</clus>
</clustering>
</event>
<event>
 9    1  0.2674825E-005  0.1056899E+03  0.7546771E-02  0.1272964E+00
          1   -1    0    0  502    0  0.00000000000E+00  0.00000000000E+00  0.44108124350E+03  0.44108124350E+03  0.00000000000E+00 0. -1.
         -2   -1    0    0    0  501 -0.00000000000E+00 -0.00000000000E+00 -0.35686952046E+02  0.35686952046E+02  0.00000000000E+00 0.  1.
        -24    2    1    2    0    0 -0.39805421212E+02  0.31142694036E+02  0.85166323231E+02  0.12916581225E+03  0.82922647639E+02 0.  0.
         23    2    1    2    0    0  0.23847462211E+02 -0.52174841438E+02  0.25805659980E+03  0.28005768157E+03  0.92456372267E+02 0.  0.
         13    1    3    3    0    0 -0.19827555745E+02  0.90754022063E+01  0.95267737006E+02  0.97731451470E+02  0.00000000000E+00 0. -1.
        -14    1    3    3    0    0 -0.19977865467E+02  0.22067291830E+02 -0.10101413775E+02  0.31434360779E+02  0.00000000000E+00 0.  1.
        -11    1    4    4    0    0 -0.11120179386E+02  0.23116499353E+02  0.67133378189E+02  0.71867387589E+02  0.00000000000E+00 0.  1.
         11    1    4    4    0    0  0.34967641597E+02 -0.75291340792E+02  0.19092322161E+03  0.20819029398E+03  0.00000000000E+00 0. -1.
         21    1    1    2  502  501  0.15957959001E+02  0.21032147402E+02  0.62171368426E+02  0.67544701730E+02  0.00000000000E+00 0. -1.
<scales pt_clust_5="13000.00000" pt_clust_6="13000.00000" pt_clust_7="13000.00000" pt_clust_8="13000.00000" pt_clust_9="26.40090"></scales>
<clustering>
<clus scale="   26.401">  1  9  2 -1</clus>
<clus scale="   82.923">  5  6 -1 -1</clus>
<clus scale="   92.456">  7  8 -1 -1</clus>
<clus scale="   97.459">  2  5  1 -1</clus>
<clus scale="   26.401">  1  5  2 -1</clus>
</clustering>
</event>
<event>
 9    1  0.2674825E-005  0.9883256E+02  0.7546771E-02  0.1287284E+00
         -2   -1    0    0    0  501 -0.00000000000E+00  0.00000000000E+00  0.36242273973E+03  0.36242273973E+03  0.00000000000E+00 0.  1.
          1   -1    0    0  502    0  0.00000000000E+00 -0.00000000000E+00 -0.11887492356E+03  0.11887492356E+03  0.00000000000E+00 0. -1.
        -24    2    1    2    0    0  0.12209292243E+02  0.38770060439E+02  0.31162205617E+03  0.32450498131E+03  0.80888766845E+02 0.  0.
         23    2    1    2    0    0 -0.40947479060E+02 -0.38038026497E+02 -0.71695944371E+02  0.12781793440E+03  0.89852815281E+02 0.  0.
         13    1    3    3    0    0  0.11115147987E+02 -0.22114059652E+02  0.48761483370E+02  0.54683273581E+02  0.00000000000E+00 0. -1.
        -14    1    3    3    0    0  0.10941442557E+01  0.60884120091E+02  0.26286057280E+03  0.26982170773E+03  0.00000000000E+00 0.  1.
        -13    1    4    4    0    0 -0.66321121717E+02 -0.19037640699E+02 -0.29498701056E+02  0.75040631082E+02  0.00000000000E+00 0.  1.
         13    1    4    4    0    0  0.25373642657E+02 -0.19000385798E+02 -0.42197243315E+02  0.52777303318E+02  0.00000000000E+00 0. -1.
         21    1    1    2  502  501  0.28738186817E+02 -0.73203394164E+00  0.36217043765E+01  0.28974747588E+02  0.00000000000E+00 0. -1.
<scales pt_clust_5="13000.00000" pt_clust_6="13000.00000" pt_clust_7="13000.00000" pt_clust_8="13000.00000" pt_clust_9="28.74751"></scales>
<clustering>
<clus scale="   28.748">  2  9  1 -1</clus>
<clus scale="   80.889">  5  6 -1 -1</clus>
<clus scale="   89.853">  7  8 -1 -1</clus>
<clus scale="   90.760">  1  5  2 -1</clus>
<clus scale="   28.748">  2  5  1 -1</clus>
</clustering>
</event>
<event>
 9    1  0.2674825E-005  0.1249443E+03  0.7546771E-02  0.1238577E+00
         -2   -1    0    0    0  501 -0.00000000000E+00  0.00000000000E+00  0.75323170552E+02  0.75323170552E+02  0.00000000000E+00 0.  1.
          1   -1    0    0  502    0  0.00000000000E+00 -0.00000000000E+00 -0.98749155295E+03  0.98749155295E+03  0.00000000000E+00 0. -1.
         23    2    1    2    0    0 -0.24337183123E+02  0.78737600809E+02  0.11384128981E+02  0.12438941511E+03  0.92472806460E+02 0.  0.
        -24    2    1    2    0    0  0.20977564149E+02 -0.10625279999E+03 -0.82752915958E+03  0.83848103734E+03  0.80723133762E+02 0.  0.
         11    1    4    4    0    0  0.46433691138E+02 -0.47573646677E+02 -0.31232490429E+03  0.31932144521E+03  0.00000000000E+00 0. -1.
        -12    1    4    4    0    0 -0.25456126990E+02 -0.58679153313E+02 -0.51520425529E+03  0.51915959214E+03  0.00000000000E+00 0.  1.
        -13    1    3    3    0    0  0.18354308610E+02  0.15377358755E+02 -0.29293462619E+02  0.37834518089E+02  0.00000000000E+00 0. -1.
         13    1    3    3    0    0 -0.42691491732E+02  0.63360242054E+02  0.40677591600E+02  0.86554897018E+02  0.00000000000E+00 0.  1.
         21    1    1    2  502  501  0.33596189742E+01  0.27515199181E+02 -0.96023351799E+02  0.99944271053E+02  0.00000000000E+00 0. -1.
<scales pt_clust_5="13000.00000" pt_clust_6="13000.00000" pt_clust_7="13000.00000" pt_clust_8="13000.00000" pt_clust_9="27.71955"></scales>
<clustering>
<clus scale="   27.720">  2  9  1 -1</clus>
<clus scale="   80.723">  5  6 -1 -1</clus>
<clus scale="   92.473">  7  8 -1 -1</clus>
<clus scale="  116.516">  2  5  1 -1</clus>
<clus scale="   27.720">  2  5  1 -1</clus>
</clustering>
</event>
<event>
 9    1  0.2674825E-005  0.1445069E+03  0.7546771E-02  0.1209649E+00
          1   -1    0    0  502    0  0.00000000000E+00  0.00000000000E+00  0.90082511656E+03  0.90082511656E+03  0.00000000000E+00 0. -1.
         -2   -1    0    0    0  501 -0.00000000000E+00 -0.00000000000E+00 -0.38401376176E+02  0.38401376176E+02  0.00000000000E+00 0.  1.
         23    2    1    2    0    0  0.11968551869E+03  0.15015430870E+01  0.14990656195E+03  0.21156108007E+03  0.89214546285E+02 0.  0.
        -24    2    1    2    0    0 -0.93801901005E+02 -0.65160337090E+00  0.59096190077E+03  0.60338198823E+03  0.77682908935E+02 0.  0.
         11    1    4    4    0    0 -0.91530211081E+02  0.19373067911E+02  0.54798814020E+03  0.55591734737E+03  0.00000000000E+00 0. -1.
        -12    1    4    4    0    0 -0.22716899245E+01 -0.20024671282E+02  0.42973760569E+02  0.47464640865E+02  0.00000000000E+00 0.  1.
        -11    1    3    3    0    0  0.51295909813E+02 -0.15726260474E+02  0.12624283727E+03  0.13717084090E+03  0.00000000000E+00 0. -1.
         11    1    3    3    0    0  0.68389608875E+02  0.17227803561E+02  0.23663724683E+02  0.74390239168E+02  0.00000000000E+00 0.  1.
         21    1    1    2  502  501 -0.25883617683E+02 -0.84993971615E+00  0.12155527766E+03  0.12428342444E+03  0.00000000000E+00 0. -1.
<scales pt_clust_5="13000.00000" pt_clust_6="13000.00000" pt_clust_7="13000.00000" pt_clust_8="13000.00000" pt_clust_9="25.89757"></scales>
<clustering>
<clus scale="   25.898">  1  9  2 -1</clus>
<clus scale="   77.683">  5  6 -1 -1</clus>
<clus scale="   89.215">  7  8 -1 -1</clus>
<clus scale="  137.687">  1  5  2 -1</clus>
<clus scale="   25.898">  1  5  2 -1</clus>
</clustering>
</event>
<event>
 9    1  0.2674825E-005  0.1129278E+03  0.7546771E-02  0.1261030E+00
         -4   -1    0    0    0  501 -0.00000000000E+00  0.00000000000E+00  0.25411437378E+03  0.25411437378E+03  0.00000000000E+00 0.  1.
          3   -1    0    0  502    0  0.00000000000E+00 -0.00000000000E+00 -0.77579649378E+02  0.77579649378E+02  0.00000000000E+00 0. -1.
        -24    2    1    2    0    0  0.59841951041E+02 -0.33396002917E+01  0.13721965920E+03  0.16945943408E+03  0.79341369358E+02 0.  0.
         23    2    1    2    0    0 -0.63628743364E+02  0.39932043349E+02  0.28840783159E+02  0.12398465746E+03  0.94325073250E+02 0.  0.
         13    1    3    3    0    0  0.14379828686E+02  0.36320186026E+02  0.51549400057E+02  0.64678250071E+02  0.00000000000E+00 0. -1.
        -14    1    3    3    0    0  0.45462122355E+02 -0.39659786317E+02  0.85670259144E+02  0.10478118400E+03  0.00000000000E+00 0.  1.
        -13    1    4    4    0    0 -0.58433145501E+02  0.66083391248E+02  0.52246141585E+01  0.88367096168E+02  0.00000000000E+00 0. -1.
         13    1    4    4    0    0 -0.51955978628E+01 -0.26151347898E+02  0.23616169000E+02  0.35617561291E+02  0.00000000000E+00 0.  1.
         21    1    1    2  502  501  0.37867923234E+01 -0.36592443058E+02  0.10474282044E+02  0.38249931626E+02  0.00000000000E+00 0. -1.
<scales pt_clust_5="13000.00000" pt_clust_6="13000.00000" pt_clust_7="13000.00000" pt_clust_8="13000.00000" pt_clust_9="36.78786"></scales>
<clustering>
<clus scale="   36.788">  2  9  1 -1</clus>
<clus scale="   79.341">  5  6 -1 -1</clus>
<clus scale="   94.325">  7  8 -1 -1</clus>
<clus scale="  100.750">  1  5  2 -1</clus>
<clus scale="   36.788">  2  5  1 -1</clus>
</clustering>
</event>
<event>
 9    1  0.2674825E-005  0.1498257E+03  0.7546771E-02  0.1202350E+00
          1   -1    0    0  502    0  0.00000000000E+00  0.00000000000E+00  0.25882771532E+03  0.25882771532E+03  0.00000000000E+00 0. -1.
         -2   -1    0    0    0  501 -0.00000000000E+00 -0.00000000000E+00 -0.18157809094E+03  0.18157809094E+03  0.00000000000E+00 0.  1.
        -24    2    1    2    0    0 -0.60505579966E+02 -0.93589391924E+02 -0.88742950904E+02  0.16448120925E+03  0.82212270204E+02 0.  0.
         23    2    1    2    0    0  0.91275400329E+02  0.12152928675E+03  0.12067118915E+03  0.21443112087E+03  0.91206378402E+02 0.  0.
         13    1    3    3    0    0  0.12322737753E+02 -0.22709060398E+02  0.48905135636E+01  0.26295786979E+02  0.00000000000E+00 0. -1.
        -14    1    3    3    0    0 -0.72828317719E+02 -0.70880331525E+02 -0.93633464467E+02  0.13818542227E+03  0.00000000000E+00 0.  1.
        -13    1    4    4    0    0 -0.72555681455E+00  0.45047930736E+02  0.72708639675E+02  0.85535891763E+02  0.00000000000E+00 0.  1.
         13    1    4    4    0    0  0.92000957143E+02  0.76481356016E+02  0.47962549476E+02  0.12889522910E+03  0.00000000000E+00 0. -1.
         21    1    1    2  502  501 -0.30769820363E+02 -0.27939894828E+02  0.45321386127E+02  0.61493476147E+02  0.00000000000E+00 0. -1.
<scales pt_clust_5="13000.00000" pt_clust_6="13000.00000" pt_clust_7="13000.00000" pt_clust_8="13000.00000" pt_clust_9="41.56224"></scales>
<clustering>
<clus scale="   41.562">  1  9  2 -1</clus>
<clus scale="   82.212">  5  6 -1 -1</clus>
<clus scale="   91.206">  7  8 -1 -1</clus>
<clus scale="  144.527">  2  5  1 -1</clus>
<clus scale="   41.562">  1  5  2 -1</clus>
</clustering>
</event>
<event>
 9    1  0.2674825E-005  0.1147708E+03  0.7546771E-02  0.1253810E+00
         -2   -1    0    0    0  501 -0.00000000000E+00  0.00000000000E+00  0.93909334190E+02  0.93909334190E+02  0.00000000000E+00 0.  1.
          1   -1    0    0  502    0  0.00000000000E+00 -0.00000000000E+00 -0.37309495702E+03  0.37309495702E+03  0.00000000000E+00 0. -1.
         23    2    1    2    0    0  0.78173682840E+02 -0.13913657260E+02  0.39233488660E+02  0.12356278888E+03  0.86161369629E+02 0.  0.
        -24    2    1    2    0    0 -0.51095746347E+02  0.61963042095E+01 -0.27943598054E+03  0.29535349258E+03  0.80622880618E+02 0.  0.
         11    1    4    4    0    0 -0.59429749422E+02 -0.17534653273E+02 -0.24497657909E+03  0.25269128098E+03  0.00000000000E+00 0. -1.
        -12    1    4    4    0    0  0.83340030749E+01  0.23730957483E+02 -0.34459401455E+02  0.42662211604E+02  0.00000000000E+00 0.  1.
        -13    1    3    3    0    0  0.66675050077E+02  0.11725073152E+02  0.58516854012E+02  0.89483304849E+02  0.00000000000E+00 0.  1.
         13    1    3    3    0    0  0.11498632763E+02 -0.25638730412E+02 -0.19283365352E+02  0.34079484032E+02  0.00000000000E+00 0. -1.
         21    1    1    2  502  501 -0.27077936493E+02  0.77173530506E+01 -0.38983130946E+02  0.48088009745E+02  0.00000000000E+00 0. -1.
<scales pt_clust_5="13000.00000" pt_clust_6="13000.00000" pt_clust_7="13000.00000" pt_clust_8="13000.00000" pt_clust_9="28.15621"></scales>
<clustering>
<clus scale="   28.156">  2  9  1 -1</clus>
<clus scale="   80.623">  5  6 -1 -1</clus>
<clus scale="   86.161">  7  8 -1 -1</clus>
<clus scale="  110.673">  2  5  1 -1</clus>
<clus scale="   28.156">  2  5  1 -1</clus>
</clustering>
</event>
<event>
 9    1  0.2674825E-005  0.9610139E+02  0.7546771E-02  0.1294213E+00
          3   -1    0    0  502    0  0.00000000000E+00  0.00000000000E+00  0.45411717413E+02  0.45411717413E+02  0.00000000000E+00 0. -1.
         -4   -1    0    0    0  501 -0.00000000000E+00 -0.00000000000E+00 -0.45857668537E+03  0.45857668537E+03  0.00000000000E+00 0.  1.
        -24    2    1    2    0    0  0.25932178961E+02  0.27506689893E+02 -0.35052362506E+03  0.36152498238E+03  0.80027528174E+02 0.  0.
         23    2    1    2    0    0  0.72965931044E+01 -0.17505348014E+02 -0.36660380816E+02  0.99113812296E+02  0.90110414416E+02 0.  0.
         11    1    3    3    0    0 -0.27344337406E+02  0.21539817277E+02 -0.13018155941E+03  0.13475501819E+03  0.00000000000E+00 0. -1.
        -12    1    3    3    0    0  0.53276516367E+02  0.59668726160E+01 -0.22034206564E+03  0.22676996419E+03  0.00000000000E+00 0.  1.
        -13    1    4    4    0    0  0.28966947662E+02 -0.47080782308E+02 -0.24718866571E+02  0.60553335863E+02  0.00000000000E+00 0. -1.
         13    1    4    4    0    0 -0.21670354557E+02  0.29575434293E+02 -0.11941514245E+02  0.38560476433E+02  0.00000000000E+00 0.  1.
         21    1    1    2  502  501 -0.33228772065E+02 -0.10001341878E+02 -0.25980962083E+02  0.43349608108E+02  0.00000000000E+00 0. -1.
<scales pt_clust_5="13000.00000" pt_clust_6="13000.00000" pt_clust_7="13000.00000" pt_clust_8="13000.00000" pt_clust_9="34.70127"></scales>
<clustering>
<clus scale="   34.701">  1  9  2 -1</clus>
<clus scale="   80.028">  5  6 -1 -1</clus>
<clus scale="   86.718">  2  5  1 -1</clus>
<clus scale="   90.110">  7  8 -1 -1</clus>
<clus scale="   34.701">  1  5  2 -1</clus>
</clustering>
</event>
<event>
 9    1  0.2674825E-005  0.1334907E+03  0.7546771E-02  0.1224826E+00
         -2   -1    0    0    0  501 -0.00000000000E+00  0.00000000000E+00  0.64637664354E+02  0.64637664354E+02  0.00000000000E+00 0.  1.
          1   -1    0    0  502    0  0.00000000000E+00 -0.00000000000E+00 -0.43803359566E+03  0.43803359566E+03  0.00000000000E+00 0. -1.
        -24    2    1    2    0    0 -0.28222141648E+02 -0.92842074427E+02 -0.74702011093E+02  0.14665063714E+03  0.80683820248E+02 0.  0.
         23    2    1    2    0    0 -0.14437625388E+02  0.10002055111E+03 -0.27491037370E+03  0.30665420376E+03  0.90821426130E+02 0.  0.
         13    1    3    3    0    0 -0.33195123668E+02 -0.13980817581E+02 -0.54095498061E+02  0.64990017742E+02  0.00000000000E+00 0. -1.
        -14    1    3    3    0    0  0.49729820206E+01 -0.78861256846E+02 -0.20606513032E+02  0.81660619401E+02  0.00000000000E+00 0.  1.
        -13    1    4    4    0    0  0.25445635648E+02  0.93085584348E+01 -0.21598362454E+02  0.34649947970E+02  0.00000000000E+00 0.  1.
         13    1    4    4    0    0 -0.39883261036E+02  0.90711992677E+02 -0.25331201124E+03  0.27200425579E+03  0.00000000000E+00 0. -1.
         21    1    1    2  502  501  0.42659767036E+02 -0.71784766851E+01 -0.23783546513E+02  0.49366419110E+02  0.00000000000E+00 0. -1.
<scales pt_clust_5="13000.00000" pt_clust_6="13000.00000" pt_clust_7="13000.00000" pt_clust_8="13000.00000" pt_clust_9="43.25952"></scales>
<clustering>
<clus scale="   43.260">  1  9  2 -1</clus>
<clus scale="   80.684">  5  6 -1 -1</clus>
<clus scale="   90.821">  7  8 -1 -1</clus>
<clus scale="  126.811">  1  5  2 -1</clus>
<clus scale="  133.491">  2  5  1 -1</clus>
</clustering>
</event>
<event>
 9    1  0.2674825E-005  0.9663888E+02  0.7546771E-02  0.1291740E+00
         -4   -1    0    0    0  501 -0.00000000000E+00  0.00000000000E+00  0.34597206740E+03  0.34597206740E+03  0.00000000000E+00 0.  1.
          3   -1    0    0  502    0  0.00000000000E+00 -0.00000000000E+00 -0.10059729127E+03  0.10059729127E+03  0.00000000000E+00 0. -1.
        -24    2    1    2    0    0  0.21707319462E+02  0.10995358539E+02  0.18902553465E+03  0.20821818898E+03  0.83857354143E+02 0.  0.
         23    2    1    2    0    0 -0.21344527479E+02 -0.42832358848E+02  0.12527926601E+03  0.16242308208E+03  0.91630580486E+02 0.  0.
         13    1    3    3    0    0  0.48105325380E+02 -0.34178636213E-01  0.16151910326E+03  0.16853054387E+03  0.00000000000E+00 0. -1.
        -14    1    3    3    0    0 -0.26398005917E+02  0.11029537175E+02  0.27506431392E+02  0.39687645113E+02  0.00000000000E+00 0.  1.
        -13    1    4    4    0    0  0.33644781093E+02 -0.28447586675E+00  0.45684761403E+02  0.56737550580E+02  0.00000000000E+00 0. -1.
         13    1    4    4    0    0 -0.54989308572E+02 -0.42547882981E+02  0.79594504612E+02  0.10568553150E+03  0.00000000000E+00 0.  1.
         21    1    1    2  502  501 -0.36279198325E+00  0.31837000309E+02 -0.68930024534E+02  0.75928087616E+02  0.00000000000E+00 0. -1.
<scales pt_clust_5="13000.00000" pt_clust_6="13000.00000" pt_clust_7="13000.00000" pt_clust_8="13000.00000" pt_clust_9="31.83907"></scales>
<clustering>
<clus scale="   31.839">  2  9  1 -1</clus>
<clus scale="   83.857">  5  6 -1 -1</clus>
<clus scale="   89.303">  1  5  2 -1</clus>
<clus scale="   91.631">  7  8 -1 -1</clus>
<clus scale="   31.839">  2  5  1 -1</clus>
</clustering>
</event>
<event>
 9    1  0.2674825E-005  0.1017727E+03  0.7546771E-02  0.1281185E+00
          1   -1    0    0  502    0  0.00000000000E+00  0.00000000000E+00  0.51954473115E+03  0.51954473115E+03  0.00000000000E+00 0. -1.
         -2   -1    0    0    0  501 -0.00000000000E+00 -0.00000000000E+00 -0.12578532318E+03  0.12578532318E+03  0.00000000000E+00 0.  1.
        -24    2    1    2    0    0 -0.42701501423E+01 -0.46826103362E+02 -0.96731270914E+02  0.13402266594E+03  0.79963854801E+02 0.  0.
         23    2    1    2    0    0  0.49329256763E+01  0.71973549748E+02  0.44110968630E+03  0.45588793550E+03  0.89730311279E+02 0.  0.
         11    1    3    3    0    0 -0.16347710353E+02 -0.18747717882E+02  0.70336921649E+01  0.25849514212E+02  0.00000000000E+00 0. -1.
        -12    1    3    3    0    0  0.12077560210E+02 -0.28078385481E+02 -0.10376496308E+03  0.10817315173E+03  0.00000000000E+00 0.  1.
        -11    1    4    4    0    0  0.20129663317E+02  0.87989808669E+02  0.30778776692E+03  0.32075024433E+03  0.00000000000E+00 0. -1.
         11    1    4    4    0    0 -0.15196737640E+02 -0.16016258921E+02  0.13332191939E+03  0.13513769117E+03  0.00000000000E+00 0.  1.
         21    1    1    2  502  501 -0.66277553394E+00 -0.25147446386E+02  0.49380992574E+02  0.55419452891E+02  0.00000000000E+00 0. -1.
<scales pt_clust_5="13000.00000" pt_clust_6="13000.00000" pt_clust_7="13000.00000" pt_clust_8="13000.00000" pt_clust_9="25.15618"></scales>
<clustering>
<clus scale="   25.156">  1  9  2 -1</clus>
<clus scale="   79.964">  5  6 -1 -1</clus>
<clus scale="   89.730">  7  8 -1 -1</clus>
<clus scale="   93.276">  2  5  1 -1</clus>
<clus scale="   25.156">  1  5  2 -1</clus>
</clustering>
</event>
<event>
 9    1  0.2674825E-005  0.1291551E+03  0.7546771E-02  0.1229228E+00
         -2   -1    0    0    0  501 -0.00000000000E+00  0.00000000000E+00  0.14203455936E+03  0.14203455936E+03  0.00000000000E+00 0.  1.
          1   -1    0    0  502    0  0.00000000000E+00 -0.00000000000E+00 -0.38679922724E+03  0.38679922724E+03  0.00000000000E+00 0. -1.
        -24    2    1    2    0    0 -0.51142851208E+02  0.77012722273E+02  0.96136195117E+02  0.16108527065E+03  0.90331311223E+02 0.  0.
         23    2    1    2    0    0  0.37252950010E+02 -0.61388084913E+02 -0.28334452844E+03  0.30651298464E+03  0.92248624373E+02 0.  0.
         13    1    3    3    0    0 -0.40274383316E+02  0.19397434319E+02 -0.41740747275E+01  0.44896651428E+02  0.00000000000E+00 0. -1.
        -14    1    3    3    0    0 -0.10868467892E+02  0.57615287955E+02  0.10031026984E+03  0.11618861922E+03  0.00000000000E+00 0.  1.
        -11    1    4    4    0    0  0.12737881517E+02 -0.79165165841E+02 -0.15346454017E+03  0.17314947935E+03  0.00000000000E+00 0. -1.
         11    1    4    4    0    0  0.24515068493E+02  0.17777080929E+02 -0.12987998827E+03  0.13336350529E+03  0.00000000000E+00 0.  1.
         21    1    1    2  502  501  0.13889901198E+02 -0.15624637361E+02 -0.57556334558E+02  0.61235531317E+02  0.00000000000E+00 0.  1.
<scales pt_clust_5="13000.00000" pt_clust_6="13000.00000" pt_clust_7="13000.00000" pt_clust_8="13000.00000" pt_clust_9="20.90595"></scales>
<clustering>
<clus scale="   20.906">  2  9  1 -1</clus>
<clus scale="   90.331">  5  6 -1 -1</clus>
<clus scale="   92.249">  7  8 -1 -1</clus>
<clus scale="  127.793">  1  5  2 -1</clus>
<clus scale="   20.906">  2  5  1 -1</clus>
</clustering>
</event>
<event>
 9    1  0.2674825E-005  0.1004087E+03  0.7546771E-02  0.1287096E+00
         -2   -1    0    0    0  501 -0.00000000000E+00  0.00000000000E+00  0.35977456014E+03  0.35977456014E+03  0.00000000000E+00 0.  1.
          1   -1    0    0  502    0  0.00000000000E+00 -0.00000000000E+00 -0.53943365586E+03  0.53943365586E+03  0.00000000000E+00 0. -1.
         23    2    1    2    0    0 -0.25612823961E+02 -0.11270037461E+02  0.33367099408E+03  0.34863383031E+03  0.97088541292E+02 0.  0.
        -24    2    1    2    0    0 -0.45475450757E+02  0.31072834883E+02 -0.15162061806E+03  0.18141393883E+03  0.82997998117E+02 0.  0.
         11    1    4    4    0    0 -0.58823445917E+02 -0.25497116079E+00 -0.61634957719E+02  0.85200532938E+02  0.00000000000E+00 0. -1.
        -12    1    4    4    0    0  0.13347995160E+02  0.31327806043E+02 -0.89985660341E+02  0.96213405891E+02  0.00000000000E+00 0.  1.
        -11    1    3    3    0    0  0.27593626922E+02 -0.33421452288E+02  0.14952046173E+03  0.15567520739E+03  0.00000000000E+00 0. -1.
         11    1    3    3    0    0 -0.53206450883E+02  0.22151414827E+02  0.18415053235E+03  0.19295862292E+03  0.00000000000E+00 0.  1.
         21    1    1    2  502  501  0.71088274718E+02 -0.19802797422E+02 -0.36170947174E+03  0.36916044687E+03  0.00000000000E+00 0. -1.
<scales pt_clust_5="13000.00000" pt_clust_6="13000.00000" pt_clust_7="13000.00000" pt_clust_8="13000.00000" pt_clust_9="73.79494"></scales>
<clustering>
<clus scale="   73.795">  2  9  1 -1</clus>
<clus scale="   82.998">  5  6 -1 -1</clus>
<clus scale="   86.858">  2  5  1 -1</clus>
<clus scale="   97.089">  7  8 -1 -1</clus>
<clus scale="   73.795">  2  5  1 -1</clus>
</clustering>
</event>
<event>
 9    1  0.2674825E-005  0.1110248E+03  0.7546771E-02  0.1262208E+00
          1   -1    0    0  502    0  0.00000000000E+00  0.00000000000E+00  0.75680587017E+03  0.75680587017E+03  0.00000000000E+00 0. -1.
         -2   -1    0    0    0  501 -0.00000000000E+00 -0.00000000000E+00 -0.73004055253E+02  0.73004055253E+02  0.00000000000E+00 0.  1.
         23    2    1    2    0    0  0.68855709755E+02  0.18202474458E+02 -0.15840456919E+02  0.11619242777E+03  0.90428542799E+02 0.  0.
        -24    2    1    2    0    0 -0.13967857187E+02 -0.48360388878E+01  0.36151675473E+03  0.37080529939E+03  0.81140112162E+02 0.  0.
         11    1    4    4    0    0 -0.44439112209E+02 -0.19009725734E+02  0.23356786534E+03  0.23851656564E+03  0.00000000000E+00 0. -1.
        -12    1    4    4    0    0  0.30471255022E+02  0.14173686846E+02  0.12794888939E+03  0.13228873375E+03  0.00000000000E+00 0.  1.
        -13    1    3    3    0    0  0.54904052835E+02  0.45003121739E+02 -0.36269484580E+02  0.79719580378E+02  0.00000000000E+00 0.  1.
         13    1    3    3    0    0  0.13951656920E+02 -0.26800647281E+02  0.20429027662E+02  0.36472847389E+02  0.00000000000E+00 0. -1.
         21    1    1    2  502  501 -0.54887852568E+02 -0.13366435570E+02  0.33812551711E+03  0.34281219827E+03  0.00000000000E+00 0. -1.
<scales pt_clust_5="13000.00000" pt_clust_6="13000.00000" pt_clust_7="13000.00000" pt_clust_8="13000.00000" pt_clust_9="56.49193"></scales>
<clustering>
<clus scale="   56.492">  1  9  2 -1</clus>
<clus scale="   81.140">  5  6 -1 -1</clus>
<clus scale="   90.429">  7  8 -1 -1</clus>
<clus scale="  103.600">  1  5  2 -1</clus>
<clus scale="   56.492">  1  5  2 -1</clus>
</clustering>
</event>
<event>
 9    1  0.2674825E-005  0.1215748E+03  0.7546771E-02  0.1244252E+00
         -2   -1    0    0    0  501 -0.00000000000E+00  0.00000000000E+00  0.92997725628E+02  0.92997725628E+02  0.00000000000E+00 0.  1.
          1   -1    0    0  502    0  0.00000000000E+00 -0.00000000000E+00 -0.44590100611E+03  0.44590100611E+03  0.00000000000E+00 0. -1.
         23    2    1    2    0    0 -0.58320419137E+02 -0.69536440541E+02 -0.21657174322E+02  0.13092782263E+03  0.91850278648E+02 0.  0.
        -24    2    1    2    0    0  0.72455552265E+02  0.20130249848E+02 -0.47292580213E+02  0.11940483597E+03  0.79786544588E+02 0.  0.
         13    1    4    4    0    0  0.45448813469E+02  0.43142063501E+02 -0.31134081594E+01  0.62741737298E+02  0.00000000000E+00 0. -1.
        -14    1    4    4    0    0  0.27006738796E+02 -0.23011813653E+02 -0.44179172053E+02  0.56663098674E+02  0.00000000000E+00 0.  1.
        -13    1    3    3    0    0 -0.12583381979E+02 -0.80997499888E+02 -0.13256899075E+02  0.83034221037E+02  0.00000000000E+00 0.  1.
         13    1    3    3    0    0 -0.45737037158E+02  0.11461059347E+02 -0.84002752475E+01  0.47893601594E+02  0.00000000000E+00 0. -1.
         21    1    1    2  502  501 -0.14135133128E+02  0.49406190692E+02 -0.28395352595E+03  0.28856607313E+03  0.00000000000E+00 0.  1.
<scales pt_clust_5="13000.00000" pt_clust_6="13000.00000" pt_clust_7="13000.00000" pt_clust_8="13000.00000" pt_clust_9="51.38846"></scales>
<clustering>
<clus scale="   51.388">  2  9  1 -1</clus>
<clus scale="   79.787">  5  6 -1 -1</clus>
<clus scale="   91.850">  7  8 -1 -1</clus>
<clus scale="  112.738">  2  5  1 -1</clus>
<clus scale="   51.388">  2  5  1 -1</clus>
</clustering>
</event>
<event>
 9    1  0.2674825E-005  0.1544355E+03  0.7546771E-02  0.1197336E+00
         -2   -1    0    0    0  501 -0.00000000000E+00  0.00000000000E+00  0.35160399088E+03  0.35160399088E+03  0.00000000000E+00 0.  1.
          1   -1    0    0  502    0  0.00000000000E+00 -0.00000000000E+00 -0.31778955623E+03  0.31778955623E+03  0.00000000000E+00 0. -1.
        -24    2    1    2    0    0 -0.12156635665E+03  0.25893522632E+02  0.31064402372E+03  0.34457236715E+03  0.82350186092E+02 0.  0.
         23    2    1    2    0    0  0.91685120956E+02 -0.18257257283E+02 -0.18469932074E+03  0.22766570076E+03  0.94754120613E+02 0.  0.
         11    1    3    3    0    0 -0.12347768951E+03  0.11465286427E+01  0.24423368608E+03  0.27367525966E+03  0.00000000000E+00 0. -1.
        -12    1    3    3    0    0  0.19113328673E+01  0.24746993990E+02  0.66410337637E+02  0.70897107486E+02  0.00000000000E+00 0.  1.
        -13    1    4    4    0    0  0.44829623982E+02  0.28506378387E+02 -0.34016774920E+02  0.63082880174E+02  0.00000000000E+00 0.  1.
         13    1    4    4    0    0  0.46855496974E+02 -0.46763635670E+02 -0.15068254582E+03  0.16458282059E+03  0.00000000000E+00 0. -1.
         21    1    1    2  502  501  0.29881235691E+02 -0.76362653493E+01 -0.92130268331E+02  0.97155479196E+02  0.00000000000E+00 0. -1.
<scales pt_clust_5="13000.00000" pt_clust_6="13000.00000" pt_clust_7="13000.00000" pt_clust_8="13000.00000" pt_clust_9="30.84154"></scales>
<clustering>
<clus scale="   30.842">  2  9  1 -1</clus>
<clus scale="   82.350">  5  6 -1 -1</clus>
<clus scale="   94.754">  7  8 -1 -1</clus>
<clus scale="  147.151">  1  5  2 -1</clus>
<clus scale="   30.842">  2  5  1 -1</clus>
</clustering>
</event>
<event>
 9    1  0.2674825E-005  0.1245008E+03  0.7546771E-02  0.1238413E+00
         -2   -1    0    0    0  501 -0.00000000000E+00  0.00000000000E+00  0.66841530427E+02  0.66841530427E+02  0.00000000000E+00 0.  1.
          1   -1    0    0  502    0  0.00000000000E+00 -0.00000000000E+00 -0.72321780894E+03  0.72321780894E+03  0.00000000000E+00 0. -1.
         23    2    1    2    0    0 -0.23221359049E+01 -0.84120050428E+02 -0.11456657051E+02  0.12402564684E+03  0.90385457255E+02 0.  0.
        -24    2    1    2    0    0 -0.28372942597E+02  0.95339065509E+02 -0.43540410603E+03  0.45398462899E+03  0.81429395944E+02 0.  0.
         11    1    4    4    0    0 -0.27004425185E+02  0.10648695134E+03 -0.42391153603E+03  0.43791517462E+03  0.00000000000E+00 0. -1.
        -12    1    4    4    0    0 -0.13685174121E+01 -0.11147885830E+02 -0.11492570006E+02  0.16069454369E+02  0.00000000000E+00 0.  1.
        -11    1    3    3    0    0 -0.15378671950E+02 -0.10087879251E+03 -0.12181528815E+02  0.10276878891E+03  0.00000000000E+00 0.  1.
         11    1    3    3    0    0  0.13056536045E+02  0.16758742085E+02  0.72487176380E+00  0.21256857925E+02  0.00000000000E+00 0. -1.
         21    1    1    2  502  501  0.30695078502E+02 -0.11219015080E+02 -0.20951551543E+03  0.21204906354E+03  0.00000000000E+00 0.  1.
<scales pt_clust_5="13000.00000" pt_clust_6="13000.00000" pt_clust_7="13000.00000" pt_clust_8="13000.00000" pt_clust_9="32.68110"></scales>
<clustering>
<clus scale="   32.681">  2  9  1 -1</clus>
<clus scale="   81.429">  5  6 -1 -1</clus>
<clus scale="   90.385">  7  8 -1 -1</clus>
<clus scale="  118.159">  2  5  1 -1</clus>
<clus scale="   32.681">  2  5  1 -1</clus>
</clustering>
</event>
<event>
 9    1  0.2674825E-005  0.1030223E+03  0.7546771E-02  0.1278676E+00
          1   -1    0    0  502    0  0.00000000000E+00  0.00000000000E+00  0.46805628932E+03  0.46805628932E+03  0.00000000000E+00 0. -1.
         -2   -1    0    0    0  501 -0.00000000000E+00 -0.00000000000E+00 -0.82709507552E+02  0.82709507552E+02  0.00000000000E+00 0.  1.
         23    2    1    2    0    0 -0.12653373398E+02 -0.43280675711E+02 -0.36587219877E+02  0.10855368144E+03  0.91716696122E+02 0.  0.
        -24    2    1    2    0    0  0.10569740754E+01  0.67022007936E+02  0.34649583261E+03  0.36228061550E+03  0.81821852903E+02 0.  0.
         13    1    4    4    0    0  0.44468841053E+01  0.75721069916E+02  0.34447628107E+03  0.35272845566E+03  0.00000000000E+00 0. -1.
        -14    1    4    4    0    0 -0.33899100299E+01 -0.86990619798E+01  0.20195515350E+01  0.95521598470E+01  0.00000000000E+00 0.  1.
        -11    1    3    3    0    0 -0.47493340041E+02 -0.29286807094E+02  0.47189030720E+00  0.55799257150E+02  0.00000000000E+00 0.  1.
         11    1    3    3    0    0  0.34839966643E+02 -0.13993868617E+02 -0.37059110184E+02  0.52754424290E+02  0.00000000000E+00 0. -1.
         21    1    1    2  502  501  0.11596399322E+02 -0.23741332226E+02  0.75438169032E+02  0.79931499923E+02  0.00000000000E+00 0. -1.
<scales pt_clust_5="13000.00000" pt_clust_6="13000.00000" pt_clust_7="13000.00000" pt_clust_8="13000.00000" pt_clust_9="26.42210"></scales>
<clustering>
<clus scale="   26.422">  1  9  2 -1</clus>
<clus scale="   81.822">  5  6 -1 -1</clus>
<clus scale="   91.717">  7  8 -1 -1</clus>
<clus scale="   94.321">  1  5  2 -1</clus>
<clus scale="   26.422">  1  5  2 -1</clus>
</clustering>
</event>
<event>
 9    1  0.2674825E-005  0.1090558E+03  0.7546771E-02  0.1267354E+00
          3   -1    0    0  502    0  0.00000000000E+00  0.00000000000E+00  0.20378367344E+03  0.20378367344E+03  0.00000000000E+00 0. -1.
         -4   -1    0    0    0  501 -0.00000000000E+00 -0.00000000000E+00 -0.24066816676E+03  0.24066816676E+03  0.00000000000E+00 0.  1.
        -24    2    1    2    0    0  0.35113585700E+02 -0.49845820579E+02 -0.19367075239E+03  0.21791887119E+03  0.79137250134E+02 0.  0.
         23    2    1    2    0    0  0.96817787772E+01  0.50302483076E+02  0.14714783740E+03  0.18071013200E+03  0.91540095667E+02 0.  0.
         13    1    3    3    0    0 -0.18082455003E+01 -0.30564196698E+02 -0.14331229479E+02  0.33805680144E+02  0.00000000000E+00 0. -1.
        -14    1    3    3    0    0  0.36921831200E+02 -0.19281623880E+02 -0.17933952291E+03  0.18411319104E+03  0.00000000000E+00 0.  1.
        -11    1    4    4    0    0 -0.58524130639E+01 -0.21503682727E+02  0.73013770880E+02  0.76339176362E+02  0.00000000000E+00 0.  1.
         11    1    4    4    0    0  0.15534191841E+02  0.71806165803E+02  0.74134066515E+02  0.10437095564E+03  0.00000000000E+00 0. -1.
         21    1    1    2  502  501 -0.44795364477E+02 -0.45666249736E+00  0.96384216713E+01  0.45822837009E+02  0.00000000000E+00 0. -1.
<scales pt_clust_5="13000.00000" pt_clust_6="13000.00000" pt_clust_7="13000.00000" pt_clust_8="13000.00000" pt_clust_9="44.79769"></scales>
<clustering>
<clus scale="   44.798">  1  9  2 -1</clus>
<clus scale="   79.137">  5  6 -1 -1</clus>
<clus scale="   91.540">  7  8 -1 -1</clus>
<clus scale="   98.875">  2  5  1 -1</clus>
<clus scale="   44.798">  1  5  2 -1</clus>
</clustering>
</event>
<event>
 9    1  0.2674825E-005  0.1060619E+03  0.7546771E-02  0.1270861E+00
         -4   -1    0    0    0  501 -0.00000000000E+00  0.00000000000E+00  0.12327432417E+03  0.12327432417E+03  0.00000000000E+00 0.  1.
          3   -1    0    0  502    0  0.00000000000E+00 -0.00000000000E+00 -0.18658319938E+03  0.18658319938E+03  0.00000000000E+00 0. -1.
        -24    2    1    2    0    0  0.42411099307E+02  0.39520058305E+02  0.30345479316E+02  0.10252145603E+03  0.78925689598E+02 0.  0.
         23    2    1    2    0    0 -0.70683249725E+02  0.21262553322E+02 -0.80555179089E+02  0.13903212354E+03  0.85980093820E+02 0.  0.
         13    1    3    3    0    0 -0.20741708847E+01  0.44714111339E+02 -0.55761967002E+01  0.45108180049E+02  0.00000000000E+00 0. -1.
        -14    1    3    3    0    0  0.44485270192E+02 -0.51940530336E+01  0.35921676016E+02  0.57413275980E+02  0.00000000000E+00 0.  1.
        -13    1    4    4    0    0 -0.34610188625E+01 -0.29094662258E+02 -0.19555400144E+02  0.35226292712E+02  0.00000000000E+00 0.  1.
         13    1    4    4    0    0 -0.67222230862E+02  0.50357215580E+02 -0.60999778945E+02  0.10380583083E+03  0.00000000000E+00 0. -1.
         21    1    1    2  502  501  0.28272150418E+02 -0.60782611628E+02 -0.13099175444E+02  0.68303943977E+02  0.00000000000E+00 0.  1.
<scales pt_clust_5="13000.00000" pt_clust_6="13000.00000" pt_clust_7="13000.00000" pt_clust_8="13000.00000" pt_clust_9="67.03611"></scales>
<clustering>
<clus scale="   67.036">  1  9  2 -1</clus>
<clus scale="   78.926">  5  6 -1 -1</clus>
<clus scale="   85.980">  7  8 -1 -1</clus>
<clus scale="  100.428">  1  5  2 -1</clus>
<clus scale="  106.062">  2  5  1 -1</clus>
</clustering>
</event>
<event>
 9    1  0.2674825E-005  0.2002163E+03  0.7546771E-02  0.1150558E+00
          1   -1    0    0  502    0  0.00000000000E+00  0.00000000000E+00  0.40532076336E+03  0.40532076336E+03  0.00000000000E+00 0. -1.
         -2   -1    0    0    0  501 -0.00000000000E+00 -0.00000000000E+00 -0.34178530232E+03  0.34178530232E+03  0.00000000000E+00 0.  1.
        -24    2    1    2    0    0  0.12358887817E+03  0.15021320386E+03 -0.26170797787E+03  0.33575377294E+03  0.80008205455E+02 0.  0.
         23    2    1    2    0    0 -0.96260044877E+02 -0.57970056772E+02  0.13311889467E+03  0.19648604641E+03  0.90882355783E+02 0.  0.
         13    1    3    3    0    0  0.12760043751E+03  0.15360483317E+03 -0.23432268217E+03  0.30786918619E+03  0.00000000000E+00 0. -1.
        -14    1    3    3    0    0 -0.40115593343E+01 -0.33916293088E+01 -0.27385295703E+02  0.27884586753E+02  0.00000000000E+00 0.  1.
        -11    1    4    4    0    0 -0.11957970377E+02 -0.49000531280E+02  0.18075573394E+02  0.53579580763E+02  0.00000000000E+00 0. -1.
         11    1    4    4    0    0 -0.84302074500E+02 -0.89695254920E+01  0.11504332128E+03  0.14290646565E+03  0.00000000000E+00 0.  1.
         21    1    1    2  502  501 -0.27328833296E+02 -0.92243147089E+02  0.19212454424E+03  0.21486624633E+03  0.00000000000E+00 0.  1.
<scales pt_clust_5="13000.00000" pt_clust_6="13000.00000" pt_clust_7="13000.00000" pt_clust_8="13000.00000" pt_clust_9="96.20636"></scales>
<clustering>
<clus scale="   80.008">  5  6 -1 -1</clus>
<clus scale="   90.882">  7  8 -1 -1</clus>
<clus scale="   96.206">  1  9  2 -1</clus>
<clus scale="  195.521">  2  5  1 -1</clus>
<clus scale="   96.206">  1  5  2 -1</clus>
</clustering>
</event>
<event>
 9    1  0.2674825E-005  0.9874270E+02  0.7546771E-02  0.1298283E+00
         -2   -1    0    0    0  501 -0.00000000000E+00  0.00000000000E+00  0.66765678919E+03  0.66765678919E+03  0.00000000000E+00 0.  1.
          1   -1    0    0  502    0  0.00000000000E+00 -0.00000000000E+00 -0.20941322599E+02  0.20941322599E+02  0.00000000000E+00 0. -1.
        -24    2    1    2    0    0 -0.41269408164E+02 -0.10018310409E+02  0.42742277984E+03  0.43418933075E+03  0.63455587709E+02 0.  0.
         23    2    1    2    0    0  0.24456350085E+02 -0.17116944228E+02  0.14785269301E+03  0.17616126561E+03  0.91001482580E+02 0.  0.
         13    1    3    3    0    0 -0.21217216417E+02 -0.18181932564E+01  0.33656703579E+02  0.39827751568E+02  0.00000000000E+00 0. -1.
        -14    1    3    3    0    0 -0.20052191747E+02 -0.82001171526E+01  0.39376607627E+03  0.39436157918E+03  0.00000000000E+00 0.  1.
        -11    1    4    4    0    0  0.34861634778E+02  0.17487209339E+02  0.13025600649E+03  0.13596971463E+03  0.00000000000E+00 0.  1.
         11    1    4    4    0    0 -0.10405284693E+02 -0.34604153568E+02  0.17596686521E+02  0.40191550980E+02  0.00000000000E+00 0. -1.
         21    1    1    2  502  501  0.16813058080E+02  0.27135254637E+02  0.71439993736E+02  0.78247515432E+02  0.00000000000E+00 0.  1.
<scales pt_clust_5="13000.00000" pt_clust_6="13000.00000" pt_clust_7="13000.00000" pt_clust_8="13000.00000" pt_clust_9="31.92179"></scales>
<clustering>
<clus scale="   31.922">  2  9  1 -1</clus>
<clus scale="   63.456">  5  6 -1 -1</clus>
<clus scale="   74.131">  1  5  2 -1</clus>
<clus scale="   91.001">  7  8 -1 -1</clus>
<clus scale="   31.922">  2  5  1 -1</clus>
</clustering>
</event>
<event>
 9    1  0.2674825E-005  0.9861558E+02  0.7546771E-02  0.1292231E+00
         -2   -1    0    0    0  501 -0.00000000000E+00  0.00000000000E+00  0.18264929325E+03  0.18264929325E+03  0.00000000000E+00 0.  1.
          1   -1    0    0  502    0  0.00000000000E+00 -0.00000000000E+00 -0.48927977239E+03  0.48927977239E+03  0.00000000000E+00 0. -1.
         23    2    1    2    0    0 -0.19173873166E+02  0.37546701637E+01  0.15778569817E+03  0.18602758995E+03  0.96582621195E+02 0.  0.
        -24    2    1    2    0    0  0.20190073092E+02 -0.46210100298E+02 -0.37492596204E+03  0.38684596176E+03  0.80853625152E+02 0.  0.
         13    1    4    4    0    0  0.46420390287E+02 -0.14422492558E+02 -0.13679036547E+03  0.14517046880E+03  0.00000000000E+00 0. -1.
        -14    1    4    4    0    0 -0.26230317194E+02 -0.31787607740E+02 -0.23813559657E+03  0.24167549296E+03  0.00000000000E+00 0.  1.
        -11    1    3    3    0    0 -0.17489843985E+02 -0.38337180848E+02  0.12712099277E+03  0.13392304089E+03  0.00000000000E+00 0.  1.
         11    1    3    3    0    0 -0.16840291807E+01  0.42091851011E+02  0.30664705394E+02  0.52104549060E+02  0.00000000000E+00 0. -1.
         21    1    1    2  502  501 -0.10161999263E+01  0.42455430135E+02 -0.89490215264E+02  0.99055513922E+02  0.00000000000E+00 0.  1.
<scales pt_clust_5="13000.00000" pt_clust_6="13000.00000" pt_clust_7="13000.00000" pt_clust_8="13000.00000" pt_clust_9="42.46759"></scales>
<clustering>
<clus scale="   42.468">  2  9  1 -1</clus>
<clus scale="   80.854">  5  6 -1 -1</clus>
<clus scale="   83.271">  2  5  1 -1</clus>
<clus scale="   96.583">  7  8 -1 -1</clus>
<clus scale="   42.468">  2  5  1 -1</clus>
</clustering>
</event>
<event>
 9    1  0.2674825E-005  0.1029882E+03  0.7546771E-02  0.1280739E+00
          1   -1    0    0  502    0  0.00000000000E+00  0.00000000000E+00  0.14074190728E+03  0.14074190728E+03  0.00000000000E+00 0. -1.
         -2   -1    0    0    0  501 -0.00000000000E+00 -0.00000000000E+00 -0.59132234500E+03  0.59132234500E+03  0.00000000000E+00 0.  1.
        -24    2    1    2    0    0 -0.39076855507E+02  0.29927861942E+02 -0.55155905145E+03  0.55893092613E+03  0.75919137203E+02 0.  0.
         23    2    1    2    0    0  0.41338110207E+02 -0.50063119750E+02  0.57362861647E+02  0.12504095971E+03  0.90164230132E+02 0.  0.
         13    1    3    3    0    0 -0.30009440724E+02 -0.21726419621E+02 -0.18882156351E+03  0.19242189763E+03  0.00000000000E+00 0. -1.
        -14    1    3    3    0    0 -0.90674147821E+01  0.51654281563E+02 -0.36273748794E+03  0.36650902850E+03  0.00000000000E+00 0.  1.
        -11    1    4    4    0    0  0.30990194293E+02  0.20585786594E+02  0.75047280063E+01  0.37953757317E+02  0.00000000000E+00 0.  1.
         11    1    4    4    0    0  0.10347915914E+02 -0.70648906343E+02  0.49858133640E+02  0.87087202397E+02  0.00000000000E+00 0. -1.
         21    1    1    2  502  501 -0.22612547006E+01  0.20135257807E+02  0.43615752078E+02  0.48092366433E+02  0.00000000000E+00 0.  1.
<scales pt_clust_5="13000.00000" pt_clust_6="13000.00000" pt_clust_7="13000.00000" pt_clust_8="13000.00000" pt_clust_9="20.26183"></scales>
<clustering>
<clus scale="   20.262">  1  9  2 -1</clus>
<clus scale="   75.919">  5  6 -1 -1</clus>
<clus scale="   90.164">  7  8 -1 -1</clus>
<clus scale="   90.778">  2  5  1 -1</clus>
<clus scale="   20.262">  1  5  2 -1</clus>
</clustering>
</event>
<event>
 9    1  0.2674825E-005  0.1834138E+03  0.7546771E-02  0.1183416E+00
          3   -1    0    0  502    0  0.00000000000E+00  0.00000000000E+00  0.14220796502E+04  0.14220796502E+04  0.00000000000E+00 0. -1.
         -4   -1    0    0    0  501 -0.00000000000E+00 -0.00000000000E+00 -0.89954081997E+02  0.89954081997E+02  0.00000000000E+00 0.  1.
        -24    2    1    2    0    0  0.52864127732E+02 -0.70826870570E+02  0.20096964190E+03  0.23378995610E+03  0.80360966974E+02 0.  0.
         23    2    1    2    0    0 -0.87341159366E+02  0.21972468799E+03  0.16989765872E+03  0.30491100528E+03  0.90543304945E+02 0.  0.
         13    1    3    3    0    0  0.57692670487E+02 -0.10976837587E+02  0.11184292431E+03  0.12632408682E+03  0.00000000000E+00 0. -1.
        -14    1    3    3    0    0 -0.48285427547E+01 -0.59850032983E+02  0.89126717585E+02  0.10746586928E+03  0.00000000000E+00 0.  1.
        -11    1    4    4    0    0 -0.62722763367E+02  0.19599784927E+03  0.17525494184E+03  0.27030278690E+03  0.00000000000E+00 0.  1.
         11    1    4    4    0    0 -0.24618395999E+02  0.23726838718E+02 -0.53572831241E+01  0.34608218382E+02  0.00000000000E+00 0. -1.
         21    1    1    2  502  501  0.34477031634E+02 -0.14889781742E+03  0.96125826756E+03  0.97333277079E+03  0.00000000000E+00 0. -1.
<scales pt_clust_5="13000.00000" pt_clust_6="13000.00000" pt_clust_7="13000.00000" pt_clust_8="13000.00000" pt_clust_9="159.50719"></scales>
<clustering>
<clus scale="   80.361">  5  6 -1 -1</clus>
<clus scale="   90.543">  7  8 -1 -1</clus>
<clus scale="  119.453">  2  5  1 -1</clus>
<clus scale="  159.507">  1  9  2 -1</clus>
<clus scale="  159.507">  1  5  2 -1</clus>
</clustering>
</event>
<event>
 9    1  0.2674825E-005  0.9280468E+02  0.7546771E-02  0.1305369E+00
          1   -1    0    0  502    0  0.00000000000E+00  0.00000000000E+00  0.15881583575E+03  0.15881583575E+03  0.00000000000E+00 0. -1.
         -2   -1    0    0    0  501 -0.00000000000E+00 -0.00000000000E+00 -0.13117171862E+03  0.13117171862E+03  0.00000000000E+00 0.  1.
         23    2    1    2    0    0 -0.96028916362E+01 -0.19226058223E+02 -0.94368479183E+02  0.13279927495E+03  0.90930636866E+02 0.  0.
        -24    2    1    2    0    0 -0.83393722373E+01  0.66355028337E+01  0.89819813064E+02  0.11824187765E+03  0.76157519544E+02 0.  0.
         11    1    4    4    0    0 -0.34907894229E+02  0.22425372373E+02  0.70472691478E+02  0.81779328988E+02  0.00000000000E+00 0. -1.
        -12    1    4    4    0    0  0.26568521992E+02 -0.15789869540E+02  0.19347121586E+02  0.36462548657E+02  0.00000000000E+00 0.  1.
        -11    1    3    3    0    0 -0.15376075505E+02  0.28062845042E+02 -0.74688070634E+02  0.81254260595E+02  0.00000000000E+00 0.  1.
         11    1    3    3    0    0  0.57731838689E+01 -0.47288903265E+02 -0.19680408549E+02  0.51545014353E+02  0.00000000000E+00 0. -1.
         21    1    1    2  502  501  0.17942263874E+02  0.12590555390E+02  0.32192783247E+02  0.38946401774E+02  0.00000000000E+00 0. -1.
<scales pt_clust_5="13000.00000" pt_clust_6="13000.00000" pt_clust_7="13000.00000" pt_clust_8="13000.00000" pt_clust_9="21.91910"></scales>
<clustering>
<clus scale="   21.919">  1  9  2 -1</clus>
<clus scale="   76.158">  5  6 -1 -1</clus>
<clus scale="   78.386">  1  5  2 -1</clus>
<clus scale="   90.931">  7  8 -1 -1</clus>
<clus scale="   21.919">  1  5  2 -1</clus>
</clustering>
</event>
<event>
 9    1  0.2674825E-005  0.1729413E+03  0.7546771E-02  0.1191597E+00
          3   -1    0    0  502    0  0.00000000000E+00  0.00000000000E+00  0.90933088007E+03  0.90933088007E+03  0.00000000000E+00 0. -1.
         -4   -1    0    0    0  501 -0.00000000000E+00 -0.00000000000E+00 -0.24702886901E+03  0.24702886901E+03  0.00000000000E+00 0.  1.
        -24    2    1    2    0    0  0.10114738150E+03  0.11076085023E+03 -0.18104510240E+03  0.24850260577E+03  0.80482651824E+02 0.  0.
         23    2    1    2    0    0  0.56901526403E+01  0.74821016579E+02  0.24393974136E+03  0.27134784587E+03  0.92154726860E+02 0.  0.
         11    1    3    3    0    0  0.16684034543E+02  0.35874795969E+02 -0.57114183730E+01  0.39974720691E+02  0.00000000000E+00 0. -1.
        -12    1    3    3    0    0  0.84463346958E+02  0.74886054258E+02 -0.17533368403E+03  0.20852788508E+03  0.00000000000E+00 0.  1.
        -11    1    4    4    0    0  0.31292617063E+02  0.84343082224E+02  0.20405955839E+03  0.22300961139E+03  0.00000000000E+00 0.  1.
         11    1    4    4    0    0 -0.25602464423E+02 -0.95220656447E+01  0.39880182967E+02  0.48338234475E+02  0.00000000000E+00 0. -1.
         21    1    1    2  502  501 -0.10683753414E+03 -0.18558186681E+03  0.59940737211E+03  0.63650929744E+03  0.00000000000E+00 0. -1.
<scales pt_clust_5="13000.00000" pt_clust_6="13000.00000" pt_clust_7="13000.00000" pt_clust_8="13000.00000" pt_clust_9="153.07268"></scales>
<clustering>
<clus scale="   80.483">  5  6 -1 -1</clus>
<clus scale="   92.155">  7  8 -1 -1</clus>
<clus scale="  118.840">  1  7  2 -1</clus>
<clus scale="  153.073">  1  9  2 -1</clus>
<clus scale="  118.840">  1  5  2 -1</clus>
</clustering>
</event>
<event>
 9    1  0.2674825E-005  0.1622055E+03  0.7546771E-02  0.1188610E+00
         -2   -1    0    0    0  501 -0.00000000000E+00  0.00000000000E+00  0.11937247912E+04  0.11937247912E+04  0.00000000000E+00 0.  1.
          1   -1    0    0  502    0  0.00000000000E+00 -0.00000000000E+00 -0.35952187697E+02  0.35952187697E+02  0.00000000000E+00 0. -1.
        -24    2    1    2    0    0 -0.10032076693E+03  0.88469826964E+02  0.73703416493E+03  0.75348451897E+03  0.81414946432E+02 0.  0.
         23    2    1    2    0    0  0.58385896648E+02 -0.11667083099E+03  0.37282038885E+03  0.40655073778E+03  0.96267670153E+02 0.  0.
         13    1    3    3    0    0 -0.15619644081E+02  0.53783093398E+02  0.16679449526E+03  0.17594600895E+03  0.00000000000E+00 0. -1.
        -14    1    3    3    0    0 -0.84701122850E+02  0.34686733566E+02  0.57023966966E+03  0.57753851002E+03  0.00000000000E+00 0.  1.
        -13    1    4    4    0    0  0.82204705880E+02 -0.64243910965E+02  0.25027427929E+03  0.27114960564E+03  0.00000000000E+00 0. -1.
         13    1    4    4    0    0 -0.23818809232E+02 -0.52426920028E+02  0.12254610956E+03  0.13540113214E+03  0.00000000000E+00 0.  1.
         21    1    1    2  502  501  0.41934870283E+02  0.28201004029E+02  0.47918049738E+02  0.69641722154E+02  0.00000000000E+00 0.  1.
<scales pt_clust_5="13000.00000" pt_clust_6="13000.00000" pt_clust_7="13000.00000" pt_clust_8="13000.00000" pt_clust_9="50.53543"></scales>
<clustering>
<clus scale="   50.535">  2  9  1 -1</clus>
<clus scale="   81.415">  5  6 -1 -1</clus>
<clus scale="   96.268">  7  8 -1 -1</clus>
<clus scale="  153.856">  1  5  2 -1</clus>
<clus scale="   50.535">  2  5  1 -1</clus>
</clustering>
</event>
<event>
 9    1  0.2674825E-005  0.9623714E+02  0.7546771E-02  0.1293653E+00
          1   -1    0    0  502    0  0.00000000000E+00  0.00000000000E+00  0.29576182388E+03  0.29576182388E+03  0.00000000000E+00 0. -1.
         -2   -1    0    0    0  501 -0.00000000000E+00 -0.00000000000E+00 -0.57972567216E+02  0.57972567216E+02  0.00000000000E+00 0.  1.
        -24    2    1    2    0    0  0.31478864337E+02 -0.42985871764E-01  0.64183319406E+01  0.86714061485E+02  0.80543235139E+02 0.  0.
         23    2    1    2    0    0 -0.40966704294E+02 -0.27116389740E+02  0.19726405463E+03  0.22240049794E+03  0.90195924424E+02 0.  0.
         13    1    3    3    0    0 -0.23849223508E+02 -0.16191188874E+02  0.28680488825E+01  0.28968357970E+02  0.00000000000E+00 0. -1.
        -14    1    3    3    0    0  0.55328087845E+02  0.16148203002E+02  0.35502830582E+01  0.57745703516E+02  0.00000000000E+00 0.  1.
        -13    1    4    4    0    0  0.22793965308E+02 -0.32892618781E+01  0.14114032399E+02  0.27010923877E+02  0.00000000000E+00 0.  1.
         13    1    4    4    0    0 -0.63760669601E+02 -0.23827127862E+02  0.18315002223E+03  0.19538957406E+03  0.00000000000E+00 0. -1.
         21    1    1    2  502  501  0.94878399566E+01  0.27159375611E+02  0.34106870099E+02  0.44619831674E+02  0.00000000000E+00 0.  1.
<scales pt_clust_5="13000.00000" pt_clust_6="13000.00000" pt_clust_7="13000.00000" pt_clust_8="13000.00000" pt_clust_9="28.76892"></scales>
<clustering>
<clus scale="   28.769">  1  9  2 -1</clus>
<clus scale="   80.543">  5  6 -1 -1</clus>
<clus scale="   87.255">  2  5  1 -1</clus>
<clus scale="   90.196">  7  8 -1 -1</clus>
<clus scale="   28.769">  1  5  2 -1</clus>
</clustering>
</event>
<event>
 9    1  0.2674825E-005  0.9083079E+02  0.7546771E-02  0.1304550E+00
          3   -1    0    0  502    0  0.00000000000E+00  0.00000000000E+00  0.12801445835E+03  0.12801445835E+03  0.00000000000E+00 0. -1.
         -4   -1    0    0    0  501 -0.00000000000E+00 -0.00000000000E+00 -0.12021876836E+03  0.12021876836E+03  0.00000000000E+00 0.  1.
        -24    2    1    2    0    0  0.41381700647E+01 -0.32156020540E+02 -0.72038391023E+02  0.11207909085E+03  0.79505086106E+02 0.  0.
         23    2    1    2    0    0 -0.17177977535E+02  0.15295900590E+02  0.61938719446E+02  0.10832350186E+03  0.85840133974E+02 0.  0.
         11    1    3    3    0    0  0.33234420879E+02  0.38053690934E+01 -0.10434727146E+02  0.35041277028E+02  0.00000000000E+00 0. -1.
        -12    1    3    3    0    0 -0.29096250815E+02 -0.35961389634E+02 -0.61603663877E+02  0.77037813825E+02  0.00000000000E+00 0.  1.
        -11    1    4    4    0    0 -0.42016707004E+02  0.28956941289E+02  0.14480032985E+02  0.53043184968E+02  0.00000000000E+00 0.  1.
         11    1    4    4    0    0  0.24838729469E+02 -0.13661040699E+02  0.47458686461E+02  0.55280316888E+02  0.00000000000E+00 0. -1.
         21    1    1    2  502  501  0.13039807470E+02  0.16860119950E+02  0.17895361558E+02  0.27830634001E+02  0.00000000000E+00 0. -1.
<scales pt_clust_5="13000.00000" pt_clust_6="13000.00000" pt_clust_7="13000.00000" pt_clust_8="13000.00000" pt_clust_9="21.31432"></scales>
<clustering>
<clus scale="   21.314">  1  9  2 -1</clus>
<clus scale="   79.505">  5  6 -1 -1</clus>
<clus scale="   84.869">  2  5  1 -1</clus>
<clus scale="   85.840">  7  8 -1 -1</clus>
<clus scale="   21.314">  1  5  2 -1</clus>
</clustering>
</event>
<event>
 9    1  0.2674825E-005  0.9425095E+02  0.7546771E-02  0.1303560E+00
          1   -1    0    0  502    0  0.00000000000E+00  0.00000000000E+00  0.16737899385E+03  0.16737899385E+03  0.00000000000E+00 0. -1.
         -2   -1    0    0    0  501 -0.00000000000E+00 -0.00000000000E+00 -0.15931842216E+03  0.15931842216E+03  0.00000000000E+00 0.  1.
        -24    2    1    2    0    0 -0.10136850293E+02 -0.17169218674E+02 -0.92306694356E+02  0.11919156441E+03  0.72722523340E+02 0.  0.
         23    2    1    2    0    0 -0.13977172087E+02 -0.30966224579E+02  0.11642979909E+03  0.15132300777E+03  0.90490254500E+02 0.  0.
         11    1    3    3    0    0 -0.39538840233E+02 -0.14242214085E+02 -0.71903370694E+02  0.83284183770E+02  0.00000000000E+00 0. -1.
        -12    1    3    3    0    0  0.29401989940E+02 -0.29270045886E+01 -0.20403323662E+02  0.35907380645E+02  0.00000000000E+00 0.  1.
        -13    1    4    4    0    0  0.20847865700E+02 -0.37181320612E+02  0.10629611434E+03  0.11452487953E+03  0.00000000000E+00 0. -1.
         13    1    4    4    0    0 -0.34825037786E+02  0.62150960334E+01  0.10133684751E+02  0.36798128243E+02  0.00000000000E+00 0.  1.
         21    1    1    2  502  501  0.24114022380E+02  0.48135443253E+02 -0.16062533046E+02  0.56182843826E+02  0.00000000000E+00 0.  1.
<scales pt_clust_5="13000.00000" pt_clust_6="13000.00000" pt_clust_7="13000.00000" pt_clust_8="13000.00000" pt_clust_9="53.83778"></scales>
<clustering>
<clus scale="   53.838">  2  9  1 -1</clus>
<clus scale="   72.723">  5  6 -1 -1</clus>
<clus scale="   77.352">  2  5  1 -1</clus>
<clus scale="   90.490">  7  8 -1 -1</clus>
<clus scale="   94.251">  1  5  2 -1</clus>
</clustering>
</event>
