<event>
10    4  0.2565852E-005  0.3211500E+03  0.7546771E-02  0.1104283E+00
          2   -1    0    0  503    0 -0.00000000000E+00  0.00000000000E+00  0.64529610061E+03  0.64529610061E+03  0.00000000000E+00 0. -1.
         21   -1    0    0  501  502  0.00000000000E+00 -0.00000000000E+00 -0.14590353619E+03  0.14590353619E+03  0.00000000000E+00 0. -1.
         24    2    1    2    0    0 -0.10068304302E+03 -0.78257236681E+02  0.31863577616E+03  0.35281006531E+03  0.81761323926E+02 0.  0.
         23    2    1    2    0    0 -0.18297115782E+02  0.12472445105E+03  0.21072455154E+03  0.26257770821E+03  0.93012058822E+02 0.  0.
        -11    1    3    3    0    0 -0.30818656260E+02  0.71291126282E+01  0.29157702955E+02  0.43020756178E+02  0.00000000000E+00 0.  1.
         12    1    3    3    0    0 -0.69864386761E+02 -0.85386349309E+02  0.28947807321E+03  0.30978930914E+03  0.00000000000E+00 0. -1.
        -13    1    4    4    0    0 -0.18746090794E+02 -0.96098105998E+01  0.41269095212E+02  0.46334680310E+02  0.00000000000E+00 0.  1.
         13    1    4    4    0    0  0.44897501143E+00  0.13433426165E+03  0.16945545633E+03  0.21624302790E+03  0.00000000000E+00 0. -1.
         21    1    1    2  503  502  0.12341775936E+02  0.17587955757E+02 -0.45626457238E+02  0.50432422320E+02  0.00000000000E+00 0. -1.
          1    1    1    2  501    0  0.10663838287E+03 -0.64055170130E+02  0.15658693952E+02  0.12537944097E+03  0.00000000000E+00 0. -1.
<scales pt_clust_5="13000.00000" pt_clust_6="13000.00000" pt_clust_7="13000.00000" pt_clust_8="13000.00000" pt_clust_9="21.48617" pt_clust_10="13000.00000"></scales>
<clustering>
<clus scale="   21.486">  2  9  1 -1</clus>
<clus scale="   81.761">  5  6 -1 -1</clus>
<clus scale="   93.012">  7  8 -1 -1</clus>
<clus scale="  125.827">  7 10 -1 -1</clus>
<clus scale="  148.478">  1  5  2 -1</clus>
<clus scale="   21.486">  2  5  1 -1</clus>
</clustering>
</event>
<event>
10    4  0.2565852E-005  0.2298667E+03  0.7546771E-02  0.1163551E+00
         21   -1    0    0  503  502  0.00000000000E+00  0.00000000000E+00  0.61633830644E+03  0.61633830644E+03  0.00000000000E+00 0. -1.
          2   -1    0    0  502    0 -0.00000000000E+00 -0.00000000000E+00 -0.51840394874E+02  0.51840394874E+02  0.00000000000E+00 0. -1.
         24    2    1    2    0    0  0.27152528927E+01  0.49430413537E+02  0.12585452223E+03  0.15693492798E+03  0.79614524256E+02 0.  0.
         23    2    1    2    0    0  0.89034400185E+02 -0.22501241870E+01  0.31970990862E+03  0.34301990097E+03  0.86695093965E+02 0.  0.
        -11    1    3    3    0    0 -0.32549536462E+02  0.14532065057E+02  0.86668437477E+02  0.93712706147E+02  0.00000000000E+00 0.  1.
         12    1    3    3    0    0  0.35264789354E+02  0.34898348480E+02  0.39186084755E+02  0.63222221831E+02  0.00000000000E+00 0. -1.
        -11    1    4    4    0    0  0.70773822282E+02 -0.38819366130E+02  0.24363831697E+03  0.25666224226E+03  0.00000000000E+00 0. -1.
         11    1    4    4    0    0  0.18260577903E+02  0.36569241943E+02  0.76071591653E+02  0.86357658712E+02  0.00000000000E+00 0.  1.
         21    1    1    2  503  501 -0.27040151715E+02  0.11399150961E+02  0.45573825636E+02  0.54204096068E+02  0.00000000000E+00 0. -1.
          1    1    1    2  501    0 -0.64709501363E+02 -0.58579440311E+02  0.73359655083E+02  0.11401977630E+03  0.00000000000E+00 0. -1.
<scales pt_clust_5="13000.00000" pt_clust_6="13000.00000" pt_clust_7="13000.00000" pt_clust_8="13000.00000" pt_clust_9="29.34470" pt_clust_10="13000.00000"></scales>
<clustering>
<clus scale="   29.345">  1  9  2 -1</clus>
<clus scale="   79.615">  5  6 -1 -1</clus>
<clus scale="   86.695">  7  8 -1 -1</clus>
<clus scale="   89.445">  7 10 -1 -1</clus>
<clus scale="   95.328">  2  5  1 -1</clus>
<clus scale="   29.345">  1  5  2 -1</clus>
</clustering>
</event>
<event>
10    4  0.2565852E-005  0.1924238E+03  0.7546771E-02  0.1193177E+00
         21   -1    0    0  501  502  0.00000000000E+00  0.00000000000E+00  0.43096074175E+03  0.43096074175E+03  0.00000000000E+00 0.  1.
         -1   -1    0    0    0  501 -0.00000000000E+00 -0.00000000000E+00 -0.87254496113E+02  0.87254496113E+02  0.00000000000E+00 0.  1.
         24    2    1    2    0    0  0.20204915758E+02  0.29989162597E+02  0.12610198605E+03  0.15448517610E+03  0.81586581333E+02 0.  0.
         23    2    1    2    0    0  0.20890264569E+02 -0.16095971850E+02  0.10773764695E+03  0.14308426316E+03  0.90389282159E+02 0.  0.
        -11    1    3    3    0    0 -0.13297145272E+02  0.30455936813E+02  0.11418666495E+03  0.11892423055E+03  0.00000000000E+00 0.  1.
         12    1    3    3    0    0  0.33502061030E+02 -0.46677421600E+00  0.11915321106E+02  0.35560945551E+02  0.00000000000E+00 0. -1.
        -11    1    4    4    0    0 -0.23196105408E+02 -0.23381015089E+02  0.81461338561E+01  0.33927727149E+02  0.00000000000E+00 0.  1.
         11    1    4    4    0    0  0.44086369977E+02  0.72850432397E+01  0.99591513097E+02  0.10915653601E+03  0.00000000000E+00 0. -1.
         21    1    1    2  503  502 -0.17955213219E+02 -0.32700751765E+02  0.15892004430E+03  0.16324003592E+03  0.00000000000E+00 0.  1.
         -2    1    1    2    0  503 -0.23139967108E+02  0.18807561018E+02 -0.49053431676E+02  0.57405762676E+02  0.00000000000E+00 0.  1.
<scales pt_clust_5="13000.00000" pt_clust_6="13000.00000" pt_clust_7="13000.00000" pt_clust_8="13000.00000" pt_clust_9="37.30588" pt_clust_10="13000.00000"></scales>
<clustering>
<clus scale="   37.306">  1  9  2 -1</clus>
<clus scale="   81.587">  5  6 -1 -1</clus>
<clus scale="   83.326">  2  5  1 -1</clus>
<clus scale="   90.389">  7  8 -1 -1</clus>
<clus scale="   31.773">  7 10 -1 -1</clus>
<clus scale="   37.306">  1  5  2 -1</clus>
</clustering>
</event>
<event>
10    4  0.2565852E-005  0.1924728E+03  0.7546771E-02  0.1177505E+00
          2   -1    0    0  503    0 -0.00000000000E+00  0.00000000000E+00  0.96134052691E+03  0.96134052691E+03  0.00000000000E+00 0. -1.
         21   -1    0    0  501  502  0.00000000000E+00 -0.00000000000E+00 -0.55776956213E+02  0.55776956213E+02  0.00000000000E+00 0.  1.
         24    2    1    2    0    0  0.47747052802E+02 -0.53261704598E+02  0.89748800656E+02  0.13839481677E+03  0.77341372252E+02 0.  0.
         23    2    1    2    0    0  0.18061635618E+02  0.13209510957E+02  0.29926045132E+03  0.31327824931E+03  0.89920686743E+02 0.  0.
        -11    1    3    3    0    0  0.34519818576E+02 -0.17408253495E+02 -0.22990450406E+01  0.38729197931E+02  0.00000000000E+00 0.  1.
         12    1    3    3    0    0  0.13227234225E+02 -0.35853451103E+02  0.92047845697E+02  0.99665618839E+02  0.00000000000E+00 0. -1.
        -11    1    4    4    0    0 -0.26252233089E+02 -0.22142718241E+02  0.14258771627E+03  0.14666538973E+03  0.00000000000E+00 0. -1.
         11    1    4    4    0    0  0.44313868708E+02  0.35352229198E+02  0.15667273505E+03  0.16661285958E+03  0.00000000000E+00 0.  1.
         21    1    1    2  503  502  0.21157263856E+01 -0.31200548554E+02 -0.75537395484E+01  0.32171563677E+02  0.00000000000E+00 0.  1.
          1    1    1    2  501    0 -0.67924414806E+02  0.71252742195E+02  0.52410805827E+03  0.53327285337E+03  0.00000000000E+00 0. -1.
<scales pt_clust_5="13000.00000" pt_clust_6="13000.00000" pt_clust_7="13000.00000" pt_clust_8="13000.00000" pt_clust_9="31.27220" pt_clust_10="13000.00000"></scales>
<clustering>
<clus scale="   31.272">  2  9  1 -1</clus>
<clus scale="   77.341">  5  6 -1 -1</clus>
<clus scale="   89.921">  7  8 -1 -1</clus>
<clus scale="   95.408">  7 10 -1 -1</clus>
<clus scale="  118.045">  1  5  2 -1</clus>
<clus scale="   31.272">  2  5  1 -1</clus>
</clustering>
</event>
<event>
10    4  0.2565852E-005  0.5771459E+03  0.7546771E-02  0.1037339E+00
         21   -1    0    0  501  502  0.00000000000E+00  0.00000000000E+00  0.23571716151E+03  0.23571716151E+03  0.00000000000E+00 0.  1.
          2   -1    0    0  503    0 -0.00000000000E+00 -0.00000000000E+00 -0.77563132013E+03  0.77563132013E+03  0.00000000000E+00 0. -1.
         24    2    1    2    0    0  0.10687090286E+03 -0.90064644566E+02 -0.16492383776E+03  0.23108126585E+03  0.81643426486E+02 0.  0.
         23    2    1    2    0    0  0.11560851235E+03  0.11863235296E+03  0.67563976773E+02  0.20137901891E+03  0.92464344483E+02 0.  0.
        -11    1    3    3    0    0  0.54730631150E+02  0.62958923995E+00 -0.76734312875E+02  0.94254936958E+02  0.00000000000E+00 0.  1.
         12    1    3    3    0    0  0.52140271709E+02 -0.90694233806E+02 -0.88189524887E+02  0.13682632890E+03  0.00000000000E+00 0. -1.
        -11    1    4    4    0    0  0.65905999660E+02  0.11792250366E+03  0.68915424706E+02  0.15165306929E+03  0.00000000000E+00 0.  1.
         11    1    4    4    0    0  0.49702512695E+02  0.70984929768E+00 -0.13514479332E+01  0.49725949621E+02  0.00000000000E+00 0. -1.
         21    1    1    2  503  502 -0.49036975888E+02 -0.41318494975E+02  0.33296747560E+02  0.72253141311E+02  0.00000000000E+00 0. -1.
          1    1    1    2  501    0 -0.17344243933E+03  0.12750786579E+02 -0.47585104520E+03  0.50663505557E+03  0.00000000000E+00 0. -1.
<scales pt_clust_5="13000.00000" pt_clust_6="13000.00000" pt_clust_7="13000.00000" pt_clust_8="13000.00000" pt_clust_9="64.12365" pt_clust_10="13000.00000"></scales>
<clustering>
<clus scale="   64.124">  1  9  2 -1</clus>
<clus scale="   81.643">  5  6 -1 -1</clus>
<clus scale="   92.464">  7  8 -1 -1</clus>
<clus scale="  160.573">  2  5  1 -1</clus>
<clus scale="  119.004">  7 10 -1 -1</clus>
<clus scale="   64.124">  1  5  2 -1</clus>
</clustering>
</event>
<event>
10    4  0.2565852E-005  0.3149622E+03  0.7546771E-02  0.1114595E+00
         21   -1    0    0  503  502  0.00000000000E+00  0.00000000000E+00  0.47053516764E+03  0.47053516764E+03  0.00000000000E+00 0.  1.
         -3   -1    0    0    0  501 -0.00000000000E+00 -0.00000000000E+00 -0.11496494750E+03  0.11496494750E+03  0.00000000000E+00 0.  1.
         24    2    1    2    0    0 -0.69536232702E+02 -0.64829865383E+02  0.72393804787E+02  0.14377711817E+03  0.79954972544E+02 0.  0.
         23    2    1    2    0    0 -0.19055931406E+02 -0.68705455137E+02  0.17394163006E+02  0.12027976290E+03  0.95294786684E+02 0.  0.
        -11    1    3    3    0    0 -0.60280868423E+02 -0.80058667578E+02  0.42245980870E+02  0.10875613202E+03  0.00000000000E+00 0.  1.
         12    1    3    3    0    0 -0.92553642789E+01  0.15228802194E+02  0.30147823918E+02  0.35020986154E+02  0.00000000000E+00 0. -1.
        -11    1    4    4    0    0 -0.37117276697E+02  0.60996654168E+01 -0.94385169766E+01  0.38781229355E+02  0.00000000000E+00 0.  1.
         11    1    4    4    0    0  0.18061345290E+02 -0.74805120554E+02  0.26832679983E+02  0.81498533544E+02  0.00000000000E+00 0. -1.
         21    1    1    2  503  501  0.65190351988E+01  0.19652109796E+02 -0.18301699012E+00  0.20705958914E+02  0.00000000000E+00 0. -1.
         -4    1    1    2    0  502  0.82073128909E+02  0.11388321072E+03  0.26596526934E+03  0.30073727515E+03  0.00000000000E+00 0.  1.
<scales pt_clust_5="13000.00000" pt_clust_6="13000.00000" pt_clust_7="13000.00000" pt_clust_8="13000.00000" pt_clust_9="20.70516" pt_clust_10="13000.00000"></scales>
<clustering>
<clus scale="   20.705">  1  9  2 -1</clus>
<clus scale="   79.955">  5  6 -1 -1</clus>
<clus scale="   95.295">  7  8 -1 -1</clus>
<clus scale="  121.010">  2  5  1 -1</clus>
<clus scale="  124.197">  7 10 -1 -1</clus>
<clus scale="   20.705">  1  5  2 -1</clus>
</clustering>
</event>
<event>
10    4  0.2565852E-005  0.3456746E+03  0.7546771E-02  0.1113218E+00
          2   -1    0    0  503    0 -0.00000000000E+00  0.00000000000E+00  0.29922008459E+03  0.29922008459E+03  0.00000000000E+00 0. -1.
         21   -1    0    0  501  502  0.00000000000E+00 -0.00000000000E+00 -0.40962471741E+03  0.40962471741E+03  0.00000000000E+00 0. -1.
         24    2    1    2    0    0 -0.29477332756E+02 -0.42842221213E+02  0.99086331225E+02  0.13795004257E+03  0.80670590336E+02 0.  0.
         23    2    1    2    0    0 -0.91256289190E+02 -0.53514062926E+01 -0.10691003275E+03  0.16887170900E+03  0.93442769279E+02 0.  0.
        -11    1    3    3    0    0  0.25326692908E+02  0.16617799064E+01  0.26000307488E+02  0.36334816300E+02  0.00000000000E+00 0.  1.
         12    1    3    3    0    0 -0.54804025664E+02 -0.44504001119E+02  0.73086023737E+02  0.10161522627E+03  0.00000000000E+00 0. -1.
        -11    1    4    4    0    0 -0.50712546503E+02  0.15997964058E+02 -0.11078569199E+03  0.12288680473E+03  0.00000000000E+00 0. -1.
         11    1    4    4    0    0 -0.40543742687E+02 -0.21349370350E+02  0.38756592454E+01  0.45984904262E+02  0.00000000000E+00 0.  1.
         21    1    1    2  503  502 -0.37216456398E+01  0.28931094319E+02 -0.22470867836E+03  0.22659401801E+03  0.00000000000E+00 0. -1.
          1    1    1    2  501    0  0.12445526759E+03  0.19262533187E+02  0.12212774706E+03  0.17542903242E+03  0.00000000000E+00 0. -1.
<scales pt_clust_5="13000.00000" pt_clust_6="13000.00000" pt_clust_7="13000.00000" pt_clust_8="13000.00000" pt_clust_9="29.16949" pt_clust_10="13000.00000"></scales>
<clustering>
<clus scale="   29.169">  2  9  1 -1</clus>
<clus scale="   80.671">  5  6 -1 -1</clus>
<clus scale="   93.443">  7  8 -1 -1</clus>
<clus scale="   94.778">  1  5  2 -1</clus>
<clus scale="   99.985">  7 10 -1 -1</clus>
<clus scale="   29.169">  2  5  1 -1</clus>
</clustering>
</event>
<event>
10    4  0.2565852E-005  0.3220855E+03  0.7546771E-02  0.1115658E+00
          2   -1    0    0  502    0 -0.00000000000E+00  0.00000000000E+00  0.10985481166E+04  0.10985481166E+04  0.00000000000E+00 0. -1.
         21   -1    0    0  503  502  0.00000000000E+00 -0.00000000000E+00 -0.78498890412E+02  0.78498890412E+02  0.00000000000E+00 0.  1.
         24    2    1    2    0    0 -0.11006668786E+02  0.20862104661E+02  0.31291311339E+03  0.33138138562E+03  0.10650179358E+03 0.  0.
         23    2    1    2    0    0 -0.11030071114E+03  0.57681128375E+02  0.22831651820E+03  0.27528008434E+03  0.90317954461E+02 0.  0.
        -11    1    3    3    0    0 -0.19162822189E+01  0.63471486807E+02  0.15335965204E+03  0.16598639899E+03  0.00000000000E+00 0.  1.
         12    1    3    3    0    0 -0.90903865668E+01 -0.42609382146E+02  0.15955346135E+03  0.16539498663E+03  0.00000000000E+00 0. -1.
        -13    1    4    4    0    0 -0.83988486869E+02  0.49495074648E+02  0.85004773883E+02  0.12934310930E+03  0.00000000000E+00 0.  1.
         13    1    4    4    0    0 -0.26312224274E+02  0.81860537277E+01  0.14331174432E+03  0.14593697504E+03  0.00000000000E+00 0. -1.
         21    1    1    2  503  501  0.17806198642E+02  0.30000463554E+02 -0.26159180522E+02  0.43604945237E+02  0.00000000000E+00 0.  1.
          1    1    1    2  501    0  0.10350118129E+03 -0.10854369659E+03  0.50497877508E+03  0.52678059178E+03  0.00000000000E+00 0. -1.
<scales pt_clust_5="13000.00000" pt_clust_6="13000.00000" pt_clust_7="13000.00000" pt_clust_8="13000.00000" pt_clust_9="34.88680" pt_clust_10="13000.00000"></scales>
<clustering>
<clus scale="   34.887">  2  9  1 -1</clus>
<clus scale="   90.318">  7  8 -1 -1</clus>
<clus scale="  106.502">  5  6 -1 -1</clus>
<clus scale="  110.162">  1  5  2 -1</clus>
<clus scale="  132.510">  7 10 -1 -1</clus>
<clus scale="   34.887">  2  5  1 -1</clus>
</clustering>
</event>
<event>
10    4  0.2565852E-005  0.3140260E+03  0.7546771E-02  0.1099086E+00
         21   -1    0    0  503  502  0.00000000000E+00  0.00000000000E+00  0.41613379918E+03  0.41613379918E+03  0.00000000000E+00 0.  1.
          2   -1    0    0  502    0 -0.00000000000E+00 -0.00000000000E+00 -0.35969570799E+03  0.35969570799E+03  0.00000000000E+00 0. -1.
         24    2    1    2    0    0  0.14175396254E+03 -0.81194513784E+02 -0.25507331021E+03  0.31372572896E+03  0.81698864548E+02 0.  0.
         23    2    1    2    0    0 -0.10480303299E+03 -0.68267002005E+02  0.20933072851E+03  0.26029698716E+03  0.91055523379E+02 0.  0.
        -11    1    3    3    0    0  0.14796315137E+03 -0.62799723211E+02 -0.24124590227E+03  0.28989047028E+03  0.00000000000E+00 0.  1.
         12    1    3    3    0    0 -0.62091888283E+01 -0.18394790573E+02 -0.13827407939E+02  0.23835258682E+02  0.00000000000E+00 0. -1.
        -13    1    4    4    0    0 -0.74866028422E+02  0.52104934732E+01  0.11013859956E+03  0.13327633911E+03  0.00000000000E+00 0. -1.
         13    1    4    4    0    0 -0.29937004565E+02 -0.73477495478E+02  0.99192128955E+02  0.12702064805E+03  0.00000000000E+00 0.  1.
         21    1    1    2  503  501 -0.23727882331E+01  0.22927614299E+02  0.59589199938E+02  0.63891927273E+02  0.00000000000E+00 0.  1.
          1    1    1    2  501    0 -0.34578141318E+02  0.12653390149E+03  0.42591472952E+02  0.13791486378E+03  0.00000000000E+00 0. -1.
<scales pt_clust_5="13000.00000" pt_clust_6="13000.00000" pt_clust_7="13000.00000" pt_clust_8="13000.00000" pt_clust_9="23.05007" pt_clust_10="13000.00000"></scales>
<clustering>
<clus scale="   23.050">  1  9  2 -1</clus>
<clus scale="   81.699">  5  6 -1 -1</clus>
<clus scale="   91.056">  7  8 -1 -1</clus>
<clus scale="  136.969">  7 10 -1 -1</clus>
<clus scale="  181.663">  2  5  1 -1</clus>
<clus scale="   23.050">  1  5  2 -1</clus>
</clustering>
</event>
<event>
10    4  0.2565852E-005  0.1616864E+03  0.7546771E-02  0.1216752E+00
          2   -1    0    0  502    0 -0.00000000000E+00  0.00000000000E+00  0.34483113530E+03  0.34483113530E+03  0.00000000000E+00 0. -1.
         21   -1    0    0  503  502  0.00000000000E+00 -0.00000000000E+00 -0.88249924612E+02  0.88249924612E+02  0.00000000000E+00 0. -1.
         24    2    1    2    0    0 -0.11776830511E+02  0.14551332444E+02 -0.26122346787E+01  0.84465336632E+02  0.82323352153E+02 0.  0.
         23    2    1    2    0    0 -0.57514257777E+02 -0.25489080849E+02  0.15006965094E+03  0.18646165228E+03  0.91046496616E+02 0.  0.
        -13    1    3    3    0    0 -0.33403433527E+02  0.15765964651E+01  0.28833949738E+02  0.44155086743E+02  0.00000000000E+00 0.  1.
         14    1    3    3    0    0  0.21626603016E+02  0.12974735979E+02 -0.31446184417E+02  0.40310249889E+02  0.00000000000E+00 0. -1.
        -13    1    4    4    0    0  0.50619655086E+01  0.27415405729E+02  0.28627018557E+02  0.39959156117E+02  0.00000000000E+00 0.  1.
         13    1    4    4    0    0 -0.62576223285E+02 -0.52904486578E+02  0.12144263238E+03  0.14650249616E+03  0.00000000000E+00 0. -1.
         21    1    1    2  503  501  0.54432396691E+02 -0.34356336686E+02  0.90321639145E+02  0.11091096509E+03  0.00000000000E+00 0. -1.
          1    1    1    2  501    0  0.14858691596E+02  0.45294085091E+02  0.18802155281E+02  0.51243105911E+02  0.00000000000E+00 0. -1.
<scales pt_clust_5="13000.00000" pt_clust_6="13000.00000" pt_clust_7="13000.00000" pt_clust_8="13000.00000" pt_clust_9="64.36807" pt_clust_10="13000.00000"></scales>
<clustering>
<clus scale="   64.368">  2  9  1 -1</clus>
<clus scale="   82.323">  5  6 -1 -1</clus>
<clus scale="   84.531">  1  5  2 -1</clus>
<clus scale="   91.046">  7  8 -1 -1</clus>
<clus scale="   48.083">  7 10 -1 -1</clus>
<clus scale="   64.368">  2  5  1 -1</clus>
</clustering>
</event>
<event>
10    4  0.2565852E-005  0.1941106E+03  0.7546771E-02  0.1184829E+00
          2   -1    0    0  502    0 -0.00000000000E+00  0.00000000000E+00  0.35065103405E+03  0.35065103405E+03  0.00000000000E+00 0. -1.
         21   -1    0    0  503  502  0.00000000000E+00 -0.00000000000E+00 -0.53387751718E+03  0.53387751718E+03  0.00000000000E+00 0.  1.
         24    2    1    2    0    0  0.41629777255E+01  0.10854679795E+03 -0.58072908939E+02  0.14728398978E+03  0.80748827623E+02 0.  0.
         23    2    1    2    0    0 -0.30378823341E+02 -0.19249467768E+02  0.65318513965E+02  0.11867175261E+03  0.92320429399E+02 0.  0.
        -11    1    3    3    0    0  0.12675262587E+02  0.11798622873E+03 -0.62124058375E+02  0.13394331293E+03  0.00000000000E+00 0.  1.
         12    1    3    3    0    0 -0.85122848613E+01 -0.94394307727E+01  0.40511494364E+01  0.13340676843E+02  0.00000000000E+00 0. -1.
        -13    1    4    4    0    0 -0.59108818710E+02 -0.23305582712E+02  0.63140446248E+02  0.89575211901E+02  0.00000000000E+00 0. -1.
         13    1    4    4    0    0  0.28729995369E+02  0.40561149437E+01  0.21780677173E+01  0.29096540711E+02  0.00000000000E+00 0.  1.
         21    1    1    2  503  501 -0.24644134614E+02 -0.72035690704E+02 -0.39748251646E+03  0.40470832089E+03  0.00000000000E+00 0.  1.
          1    1    1    2  501    0  0.50859980229E+02 -0.17261639481E+02  0.20701042830E+03  0.21386448796E+03  0.00000000000E+00 0. -1.
<scales pt_clust_5="13000.00000" pt_clust_6="13000.00000" pt_clust_7="13000.00000" pt_clust_8="13000.00000" pt_clust_9="76.13458" pt_clust_10="13000.00000"></scales>
<clustering>
<clus scale="   76.135">  2  9  1 -1</clus>
<clus scale="   80.749">  5  6 -1 -1</clus>
<clus scale="   92.320">  7  8 -1 -1</clus>
<clus scale="   53.741">  7 10 -1 -1</clus>
<clus scale="   97.645">  1  5  2 -1</clus>
<clus scale="   76.135">  2  5  1 -1</clus>
</clustering>
</event>
<event>
10    4  0.2565852E-005  0.4440362E+03  0.7546771E-02  0.1086477E+00
          2   -1    0    0  503    0 -0.00000000000E+00  0.00000000000E+00  0.23444937852E+04  0.23444937852E+04  0.00000000000E+00 0. -1.
         21   -1    0    0  501  502  0.00000000000E+00 -0.00000000000E+00 -0.35954209352E+02  0.35954209352E+02  0.00000000000E+00 0. -1.
         24    2    1    2    0    0 -0.37631839933E+02 -0.35121371938E+01  0.50699872930E+03  0.51474883464E+03  0.80561534038E+02 0.  0.
         23    2    1    2    0    0 -0.12318049790E+03 -0.13412913887E+03  0.67669449579E+03  0.70681955309E+03  0.92273392912E+02 0.  0.
        -13    1    3    3    0    0  0.12768730008E+02  0.18176513067E+02  0.53289176142E+02  0.57733546463E+02  0.00000000000E+00 0.  1.
         14    1    3    3    0    0 -0.50400569940E+02 -0.21688650261E+02  0.45370955316E+03  0.45701528818E+03  0.00000000000E+00 0. -1.
        -11    1    4    4    0    0 -0.93199094597E+02 -0.69396448488E+02  0.54288608612E+03  0.55518216902E+03  0.00000000000E+00 0. -1.
         11    1    4    4    0    0 -0.29981403301E+02 -0.64732690385E+02  0.13380840966E+03  0.15163738406E+03  0.00000000000E+00 0.  1.
         21    1    1    2  503  502 -0.57765393007E+01 -0.36226766204E+02  0.19078948767E+03  0.19428426494E+03  0.00000000000E+00 0. -1.
          1    1    1    2  501    0  0.16658887713E+03  0.17386804227E+03  0.93405686304E+03  0.96459534184E+03  0.00000000000E+00 0. -1.
<scales pt_clust_5="13000.00000" pt_clust_6="13000.00000" pt_clust_7="13000.00000" pt_clust_8="13000.00000" pt_clust_9="36.68444" pt_clust_10="13000.00000"></scales>
<clustering>
<clus scale="   36.684">  2  9  1 -1</clus>
<clus scale="   80.562">  5  6 -1 -1</clus>
<clus scale="   89.521">  1  5  2 -1</clus>
<clus scale="   92.273">  7  8 -1 -1</clus>
<clus scale="  210.915">  7 10 -1 -1</clus>
<clus scale="   36.684">  2  5  1 -1</clus>
</clustering>
</event>
<event>
10    4  0.2565852E-005  0.5603818E+03  0.7546771E-02  0.1048258E+00
         21   -1    0    0  503  502  0.00000000000E+00  0.00000000000E+00  0.10759222462E+04  0.10759222462E+04  0.00000000000E+00 0. -1.
          2   -1    0    0  502    0 -0.00000000000E+00 -0.00000000000E+00 -0.13514432813E+03  0.13514432813E+03  0.00000000000E+00 0. -1.
         24    2    1    2    0    0 -0.96940190935E+02  0.22885892977E+02  0.90482517406E+02  0.15687747221E+03  0.80636782031E+02 0.  0.
         23    2    1    2    0    0 -0.14799837267E+03  0.18752098346E+03  0.25096877389E+03  0.35229273953E+03  0.63696242468E+02 0.  0.
        -13    1    3    3    0    0 -0.60675979262E+02 -0.21492695455E+02  0.72183628681E+02  0.96716010396E+02  0.00000000000E+00 0.  1.
         14    1    3    3    0    0 -0.36264211673E+02  0.44378588433E+02  0.18298888725E+02  0.60161461818E+02  0.00000000000E+00 0. -1.
        -11    1    4    4    0    0 -0.11004322618E+03  0.11528059082E+03  0.20134091244E+03  0.25678257198E+03  0.00000000000E+00 0. -1.
         11    1    4    4    0    0 -0.37955146493E+02  0.72240392636E+02  0.49627861452E+02  0.95510167552E+02  0.00000000000E+00 0.  1.
         21    1    1    2  503  501 -0.29941569191E+01 -0.24965832767E+02  0.17404087335E+03  0.17584789841E+03  0.00000000000E+00 0. -1.
          1    1    1    2  501    0  0.24793272053E+03 -0.18544104367E+03  0.42528575341E+03  0.52604846416E+03  0.00000000000E+00 0. -1.
<scales pt_clust_5="13000.00000" pt_clust_6="13000.00000" pt_clust_7="13000.00000" pt_clust_8="13000.00000" pt_clust_9="25.14474" pt_clust_10="13000.00000"></scales>
<clustering>
<clus scale="   25.145">  1  9  2 -1</clus>
<clus scale="   63.696">  7  8 -1 -1</clus>
<clus scale="   80.637">  5  6 -1 -1</clus>
<clus scale="  127.899">  2  5  1 -1</clus>
<clus scale="  271.689">  7 10 -1 -1</clus>
<clus scale="   25.145">  1  5  2 -1</clus>
</clustering>
</event>
<event>
10    4  0.2565852E-005  0.2995409E+03  0.7546771E-02  0.1113266E+00
         -1   -1    0    0    0  501 -0.00000000000E+00  0.00000000000E+00  0.96657721403E+03  0.96657721403E+03  0.00000000000E+00 0.  1.
         21   -1    0    0  501  502  0.00000000000E+00 -0.00000000000E+00 -0.14120578445E+03  0.14120578445E+03  0.00000000000E+00 0.  1.
         24    2    1    2    0    0  0.30226657615E+02  0.10631429882E+03  0.98865704775E+02  0.16872601041E+03  0.80483899294E+02 0.  0.
         23    2    1    2    0    0  0.80649229212E+02 -0.22486759881E+02  0.58269580387E+03  0.59691928636E+03  0.98834619650E+02 0.  0.
        -11    1    3    3    0    0 -0.17330352923E+01  0.46717871420E+02 -0.25633993704E+01  0.46820230005E+02  0.00000000000E+00 0.  1.
         12    1    3    3    0    0  0.31959692908E+02  0.59596427399E+02  0.10142910415E+03  0.12190578041E+03  0.00000000000E+00 0. -1.
        -13    1    4    4    0    0  0.19701865215E+02 -0.56017141464E+02  0.29687041789E+03  0.30275093501E+03  0.00000000000E+00 0. -1.
         13    1    4    4    0    0  0.60947363997E+02  0.33530381583E+02  0.28582538598E+03  0.29416835135E+03  0.00000000000E+00 0.  1.
         21    1    1    2  503  502 -0.20508754999E+02  0.24073684290E+02 -0.75326747889E+02  0.81696207099E+02  0.00000000000E+00 0. -1.
         -2    1    1    2    0  503 -0.90367131828E+02 -0.10790122323E+03  0.21913666883E+03  0.26044149461E+03  0.00000000000E+00 0.  1.
<scales pt_clust_5="13000.00000" pt_clust_6="13000.00000" pt_clust_7="13000.00000" pt_clust_8="13000.00000" pt_clust_9="31.62517" pt_clust_10="13000.00000"></scales>
<clustering>
<clus scale="   31.625">  2  9  1 -1</clus>
<clus scale="   80.484">  5  6 -1 -1</clus>
<clus scale="   98.835">  7  8 -1 -1</clus>
<clus scale="  139.381">  7 10 -1 -1</clus>
<clus scale="  145.484">  1  5  2 -1</clus>
<clus scale="   31.625">  2  5  1 -1</clus>
</clustering>
</event>
<event>
10    4  0.2565852E-005  0.3180682E+03  0.7546771E-02  0.1081373E+00
         21   -1    0    0  501  502  0.00000000000E+00  0.00000000000E+00  0.52658181863E+03  0.52658181863E+03  0.00000000000E+00 0.  1.
         -1   -1    0    0    0  501 -0.00000000000E+00 -0.00000000000E+00 -0.16377218295E+04  0.16377218295E+04  0.00000000000E+00 0.  1.
         24    2    1    2    0    0  0.26898489678E+03 -0.59369414369E+02 -0.14252280751E+04  0.14541287075E+04  0.85659966433E+02 0.  0.
         23    2    1    2    0    0 -0.61544554422E+02  0.12256396851E+02 -0.69755071730E+01  0.11387603580E+03  0.94768889341E+02 0.  0.
        -13    1    3    3    0    0  0.20601300402E+03 -0.48550876856E+02 -0.12460673260E+04  0.12639154744E+04  0.00000000000E+00 0.  1.
         14    1    3    3    0    0  0.62971892760E+02 -0.10818537513E+02 -0.17916074912E+03  0.19021323312E+03  0.00000000000E+00 0. -1.
        -11    1    4    4    0    0 -0.43650982597E+02 -0.23450995426E+02  0.31257219266E+02  0.58586442326E+02  0.00000000000E+00 0.  1.
         11    1    4    4    0    0 -0.17893571825E+02  0.35707392277E+02 -0.38232726439E+02  0.55289593477E+02  0.00000000000E+00 0. -1.
         21    1    1    2  503  502 -0.87240455661E+02 -0.43824144330E+02  0.40988448868E+03  0.42135109682E+03  0.00000000000E+00 0.  1.
         -2    1    1    2    0  503 -0.12019988670E+03  0.90937161848E+02 -0.88820917193E+02  0.17494780793E+03  0.00000000000E+00 0.  1.
<scales pt_clust_5="13000.00000" pt_clust_6="13000.00000" pt_clust_7="13000.00000" pt_clust_8="13000.00000" pt_clust_9="97.62916" pt_clust_10="13000.00000"></scales>
<clustering>
<clus scale="   85.660">  5  6 -1 -1</clus>
<clus scale="   94.769">  7  8 -1 -1</clus>
<clus scale="   97.629">  1  9  2 -1</clus>
<clus scale="  170.877">  7 10 -1 -1</clus>
<clus scale="  279.182">  2  5  1 -1</clus>
<clus scale="   97.629">  1  5  2 -1</clus>
</clustering>
</event>
<event>
10    4  0.2565852E-005  0.3369562E+03  0.7546771E-02  0.1094220E+00
          2   -1    0    0  503    0 -0.00000000000E+00  0.00000000000E+00  0.36479263108E+03  0.36479263108E+03  0.00000000000E+00 0. -1.
         21   -1    0    0  501  502  0.00000000000E+00 -0.00000000000E+00 -0.35074221574E+03  0.35074221574E+03  0.00000000000E+00 0.  1.
         24    2    1    2    0    0  0.11829115875E+03 -0.70052187542E+02 -0.14867802034E+03  0.21754387438E+03  0.79498907734E+02 0.  0.
         23    2    1    2    0    0 -0.31832233918E+02  0.12540483001E+03  0.27881235610E+03  0.32061866248E+03  0.91215866523E+02 0.  0.
        -13    1    3    3    0    0  0.12471513589E+03 -0.49828914628E+02 -0.11071599800E+03  0.17405406650E+03  0.00000000000E+00 0.  1.
         14    1    3    3    0    0 -0.64239771338E+01 -0.20223272914E+02 -0.37962022339E+02  0.43489807882E+02  0.00000000000E+00 0. -1.
        -13    1    4    4    0    0  0.14417852296E+02  0.50429295458E+02  0.18342172172E+03  0.19077346856E+03  0.00000000000E+00 0. -1.
         13    1    4    4    0    0 -0.46250086214E+02  0.74975534555E+02  0.95390634379E+02  0.12984519392E+03  0.00000000000E+00 0.  1.
         21    1    1    2  503  502 -0.40018718117E+01 -0.30305693215E+02 -0.76806809753E+02  0.82666414242E+02  0.00000000000E+00 0.  1.
          1    1    1    2  501    0 -0.82457053022E+02 -0.25046949256E+02 -0.39277110675E+02  0.94705895715E+02  0.00000000000E+00 0. -1.
<scales pt_clust_5="13000.00000" pt_clust_6="13000.00000" pt_clust_7="13000.00000" pt_clust_8="13000.00000" pt_clust_9="30.56878" pt_clust_10="13000.00000"></scales>
<clustering>
<clus scale="   30.569">  2  9  1 -1</clus>
<clus scale="   79.499">  5  6 -1 -1</clus>
<clus scale="   91.216">  7  8 -1 -1</clus>
<clus scale="   89.566">  7 10 -1 -1</clus>
<clus scale="  166.961">  1  5  2 -1</clus>
<clus scale="   30.569">  2  5  1 -1</clus>
</clustering>
</event>
<event>
10    4  0.2565852E-005  0.5215470E+03  0.7546771E-02  0.1047744E+00
         21   -1    0    0  501  502  0.00000000000E+00  0.00000000000E+00  0.41637966003E+03  0.41637966003E+03  0.00000000000E+00 0. -1.
          2   -1    0    0  503    0 -0.00000000000E+00 -0.00000000000E+00 -0.85500845798E+03  0.85500845798E+03  0.00000000000E+00 0. -1.
         24    2    1    2    0    0 -0.12396402907E+03 -0.30081399159E+02 -0.90666536366E+00  0.16100215687E+03  0.98228821614E+02 0.  0.
         23    2    1    2    0    0  0.68049764075E+02 -0.16994184450E+02 -0.87797302392E+02  0.14556700019E+03  0.92530062899E+02 0.  0.
        -13    1    3    3    0    0 -0.44719489032E+02 -0.13903323358E+02  0.47532724333E+02  0.66727018382E+02  0.00000000000E+00 0.  1.
         14    1    3    3    0    0 -0.79244540040E+02 -0.16178075801E+02 -0.48439389697E+02  0.94275138488E+02  0.00000000000E+00 0. -1.
        -13    1    4    4    0    0 -0.65429351908E+01 -0.33652019477E+02 -0.82676088464E+01  0.35265021931E+02  0.00000000000E+00 0.  1.
         13    1    4    4    0    0  0.74592699266E+02  0.16657835026E+02 -0.79529693546E+02  0.11030197826E+03  0.00000000000E+00 0. -1.
         21    1    1    2  503  502  0.37326541674E+03  0.16098287180E+03 -0.45644785695E+03  0.61121780280E+03  0.00000000000E+00 0. -1.
          1    1    1    2  501    0 -0.31735115174E+03 -0.11390728820E+03  0.10652302676E+03  0.35360115815E+03  0.00000000000E+00 0. -1.
<scales pt_clust_5="13000.00000" pt_clust_6="13000.00000" pt_clust_7="13000.00000" pt_clust_8="13000.00000" pt_clust_9="320.12432" pt_clust_10="13000.00000"></scales>
<clustering>
<clus scale="   92.530">  7  8 -1 -1</clus>
<clus scale="   98.229">  5  6 -1 -1</clus>
<clus scale="  161.000">  2  5  1 -1</clus>
<clus scale="  320.124">  1  9  2 -1</clus>
<clus scale="   88.465">  7 10 -1 -1</clus>
<clus scale="  320.124">  1  5  2 -1</clus>
</clustering>
</event>
<event>
10    4  0.2565852E-005  0.2512704E+03  0.7546771E-02  0.1143680E+00
         21   -1    0    0  501  502  0.00000000000E+00  0.00000000000E+00  0.29544349380E+03  0.29544349380E+03  0.00000000000E+00 0.  1.
          2   -1    0    0  503    0 -0.00000000000E+00 -0.00000000000E+00 -0.30191940322E+03  0.30191940322E+03  0.00000000000E+00 0. -1.
         24    2    1    2    0    0 -0.93266933181E+01 -0.97438440483E+02  0.49100188439E+02  0.13476709616E+03  0.78550014715E+02 0.  0.
         23    2    1    2    0    0  0.78161623653E+02  0.75465320355E+02 -0.18895699483E+03  0.23571956343E+03  0.89748051231E+02 0.  0.
        -13    1    3    3    0    0  0.25030506589E+02 -0.36417030089E+02  0.47278502268E+02  0.64714628310E+02  0.00000000000E+00 0.  1.
         14    1    3    3    0    0 -0.34357199907E+02 -0.61021410394E+02  0.18216861717E+01  0.70052467854E+02  0.00000000000E+00 0. -1.
        -13    1    4    4    0    0  0.43545859984E+01  0.61281474798E+02 -0.11440995110E+03  0.12986153581E+03  0.00000000000E+00 0. -1.
         13    1    4    4    0    0  0.73807037655E+02  0.14183845557E+02 -0.74547043729E+02  0.10585802762E+03  0.00000000000E+00 0.  1.
         21    1    1    2  503  502  0.13003129106E+02  0.18807623177E+02  0.14263477942E+03  0.14445583531E+03  0.00000000000E+00 0.  1.
          1    1    1    2  501    0 -0.81838059441E+02  0.31654969506E+01 -0.92538824535E+01  0.82420402113E+02  0.00000000000E+00 0. -1.
<scales pt_clust_5="13000.00000" pt_clust_6="13000.00000" pt_clust_7="13000.00000" pt_clust_8="13000.00000" pt_clust_9="22.86500" pt_clust_10="13000.00000"></scales>
<clustering>
<clus scale="   22.865">  1  9  2 -1</clus>
<clus scale="   78.550">  5  6 -1 -1</clus>
<clus scale="   89.748">  7  8 -1 -1</clus>
<clus scale="   79.082">  7 10 -1 -1</clus>
<clus scale="  116.524">  2  5  1 -1</clus>
<clus scale="   22.865">  1  5  2 -1</clus>
</clustering>
</event>
<event>
10    4  0.2565852E-005  0.2300267E+03  0.7546771E-02  0.1159868E+00
         21   -1    0    0  503  502  0.00000000000E+00  0.00000000000E+00  0.24268186511E+03  0.24268186511E+03  0.00000000000E+00 0.  1.
          2   -1    0    0  502    0 -0.00000000000E+00 -0.00000000000E+00 -0.44928783997E+03  0.44928783997E+03  0.00000000000E+00 0. -1.
         24    2    1    2    0    0  0.16445391758E+02  0.53137865815E+02 -0.12251950680E+03  0.15750968026E+03  0.81879094621E+02 0.  0.
         23    2    1    2    0    0 -0.77051627662E+02 -0.10400190965E+03 -0.96307117758E+02  0.18543295781E+03  0.91416466657E+02 0.  0.
        -13    1    3    3    0    0  0.11116834193E+02  0.66500920312E+02 -0.12582265755E+03  0.14274907200E+03  0.00000000000E+00 0.  1.
         14    1    3    3    0    0  0.53285575654E+01 -0.13363054496E+02  0.33031507526E+01  0.14760608256E+02  0.00000000000E+00 0. -1.
        -11    1    4    4    0    0  0.12858655139E+02 -0.41846212230E+02 -0.71037626675E+01  0.44349903427E+02  0.00000000000E+00 0.  1.
         11    1    4    4    0    0 -0.89910282802E+02 -0.62155697420E+02 -0.89203355091E+02  0.14108305439E+03  0.00000000000E+00 0. -1.
         21    1    1    2  503  501  0.58868787852E+02  0.58381032501E+01  0.17259034564E+03  0.18244737608E+03  0.00000000000E+00 0.  1.
          1    1    1    2  501    0  0.17374480521E+01  0.45025940584E+02 -0.16036969595E+03  0.16657969093E+03  0.00000000000E+00 0. -1.
<scales pt_clust_5="13000.00000" pt_clust_6="13000.00000" pt_clust_7="13000.00000" pt_clust_8="13000.00000" pt_clust_9="59.15757" pt_clust_10="13000.00000"></scales>
<clustering>
<clus scale="   59.158">  1  9  2 -1</clus>
<clus scale="   81.879">  5  6 -1 -1</clus>
<clus scale="   91.416">  7  8 -1 -1</clus>
<clus scale="   45.531">  7 10 -1 -1</clus>
<clus scale="  103.619">  2  5  1 -1</clus>
<clus scale="   59.158">  1  5  2 -1</clus>
</clustering>
</event>
<event>
10    4  0.2565852E-005  0.4362919E+03  0.7546771E-02  0.1035451E+00
         21   -1    0    0  503  502  0.00000000000E+00  0.00000000000E+00  0.10678924596E+04  0.10678924596E+04  0.00000000000E+00 0.  1.
          2   -1    0    0  502    0 -0.00000000000E+00 -0.00000000000E+00 -0.64958448617E+03  0.64958448617E+03  0.00000000000E+00 0. -1.
         24    2    1    2    0    0  0.72657150357E+02 -0.33279135936E+03  0.56038936656E+03  0.66086566107E+03  0.81719211091E+02 0.  0.
         23    2    1    2    0    0 -0.77392380186E+02  0.27540277214E+03 -0.24347156868E+03  0.38576153278E+03  0.87734189493E+02 0.  0.
        -11    1    3    3    0    0  0.38152284005E+02 -0.28807640052E+03  0.43246191164E+03  0.52102486921E+03  0.00000000000E+00 0.  1.
         12    1    3    3    0    0  0.34504866352E+02 -0.44714958839E+02  0.12792745492E+03  0.13984079186E+03  0.00000000000E+00 0. -1.
        -13    1    4    4    0    0 -0.84439128411E+02  0.15379346327E+03 -0.16509313135E+03  0.24091105780E+03  0.00000000000E+00 0. -1.
         13    1    4    4    0    0  0.70467482248E+01  0.12160930887E+03 -0.78378437329E+02  0.14485047498E+03  0.00000000000E+00 0.  1.
         21    1    1    2  503  501 -0.17111524362E+01 -0.50797568624E+02  0.37402541506E+03  0.37746302088E+03  0.00000000000E+00 0.  1.
          1    1    1    2  501    0  0.64463822652E+01  0.10818615585E+03 -0.27263523948E+03  0.29338673107E+03  0.00000000000E+00 0. -1.
<scales pt_clust_5="13000.00000" pt_clust_6="13000.00000" pt_clust_7="13000.00000" pt_clust_8="13000.00000" pt_clust_9="50.82638" pt_clust_10="13000.00000"></scales>
<clustering>
<clus scale="   50.826">  1  9  2 -1</clus>
<clus scale="   81.719">  5  6 -1 -1</clus>
<clus scale="   87.734">  7  8 -1 -1</clus>
<clus scale="  107.616">  7 10 -1 -1</clus>
<clus scale="  392.844">  2  5  1 -1</clus>
<clus scale="   50.826">  1  5  2 -1</clus>
</clustering>
</event>
<event>
10    4  0.2565852E-005  0.2427197E+03  0.7546771E-02  0.1153816E+00
         21   -1    0    0  501  502  0.00000000000E+00  0.00000000000E+00  0.18282029796E+03  0.18282029796E+03  0.00000000000E+00 0.  1.
          2   -1    0    0  503    0 -0.00000000000E+00 -0.00000000000E+00 -0.22431715686E+03  0.22431715686E+03  0.00000000000E+00 0. -1.
         24    2    1    2    0    0 -0.58378647496E+02  0.29350703662E+02  0.23159995715E+02  0.10614365209E+03  0.80377603776E+02 0.  0.
         23    2    1    2    0    0  0.15254082827E+02  0.52607927588E+02  0.17821697187E+02  0.10883534231E+03  0.92343043902E+02 0.  0.
        -11    1    3    3    0    0 -0.55376287197E+02  0.12960049074E+02 -0.19676522489E+02  0.60180242547E+02  0.00000000000E+00 0.  1.
         12    1    3    3    0    0 -0.30023602990E+01  0.16390654587E+02  0.42836518203E+02  0.45963409544E+02  0.00000000000E+00 0. -1.
        -11    1    4    4    0    0 -0.51093735934E+01  0.62118798619E+02  0.42513153150E+02  0.75446796029E+02  0.00000000000E+00 0.  1.
         11    1    4    4    0    0  0.20363456420E+02 -0.95108710308E+01 -0.24691455963E+02  0.33388546281E+02  0.00000000000E+00 0. -1.
         21    1    1    2  503  502  0.15944047583E+02  0.13003475959E+02  0.33812398766E+02  0.39580062540E+02  0.00000000000E+00 0.  1.
          1    1    1    2  501    0  0.27180517086E+02 -0.94962107208E+02 -0.11629095057E+03  0.15257839788E+03  0.00000000000E+00 0. -1.
<scales pt_clust_5="13000.00000" pt_clust_6="13000.00000" pt_clust_7="13000.00000" pt_clust_8="13000.00000" pt_clust_9="20.57433" pt_clust_10="13000.00000"></scales>
<clustering>
<clus scale="   20.574">  1  9  2 -1</clus>
<clus scale="   80.378">  5  6 -1 -1</clus>
<clus scale="   92.343">  7  8 -1 -1</clus>
<clus scale="   97.796">  7 10 -1 -1</clus>
<clus scale="  101.622">  2  5  1 -1</clus>
<clus scale="   20.574">  1  5  2 -1</clus>
</clustering>
</event>
<event>
10    4  0.2565852E-005  0.5403417E+03  0.7546771E-02  0.1022736E+00
          2   -1    0    0  502    0 -0.00000000000E+00  0.00000000000E+00  0.37353465222E+03  0.37353465222E+03  0.00000000000E+00 0. -1.
         21   -1    0    0  503  502  0.00000000000E+00 -0.00000000000E+00 -0.89196487418E+03  0.89196487418E+03  0.00000000000E+00 0. -1.
         24    2    1    2    0    0  0.27259768582E+03 -0.11289158484E+03  0.10234081806E+03  0.32328680132E+03  0.83586509846E+02 0.  0.
         23    2    1    2    0    0  0.21830438972E+02 -0.10458781820E+03  0.35014410997E+02  0.14333865996E+03  0.88908844776E+02 0.  0.
        -11    1    3    3    0    0  0.13560274505E+03 -0.13006965019E+02  0.33371418614E+02  0.14025311827E+03  0.00000000000E+00 0.  1.
         12    1    3    3    0    0  0.13699494077E+03 -0.99884619819E+02  0.68969399450E+02  0.18303368306E+03  0.00000000000E+00 0. -1.
        -11    1    4    4    0    0  0.40774025086E+02 -0.28065240716E+02 -0.12814947411E+02  0.51131220749E+02  0.00000000000E+00 0.  1.
         11    1    4    4    0    0 -0.18943586113E+02 -0.76522577484E+02  0.47829358408E+02  0.92207439209E+02  0.00000000000E+00 0. -1.
         21    1    1    2  503  501  0.69078349080E+01  0.92250888316E+02 -0.30963085170E+03  0.32315508491E+03  0.00000000000E+00 0. -1.
          1    1    1    2  501    0 -0.30133595970E+03  0.12522851472E+03 -0.34615459931E+03  0.47571898021E+03  0.00000000000E+00 0. -1.
<scales pt_clust_5="13000.00000" pt_clust_6="13000.00000" pt_clust_7="13000.00000" pt_clust_8="13000.00000" pt_clust_9="92.50916" pt_clust_10="13000.00000"></scales>
<clustering>
<clus scale="   83.587">  5  6 -1 -1</clus>
<clus scale="   88.909">  7  8 -1 -1</clus>
<clus scale="   92.509">  2  9  1 -1</clus>
<clus scale="  301.796">  1  5  2 -1</clus>
<clus scale="  219.106">  7 10 -1 -1</clus>
<clus scale="   92.509">  2  5  1 -1</clus>
</clustering>
</event>
<event>
10    4  0.2565852E-005  0.5330655E+03  0.7546771E-02  0.1028710E+00
          2   -1    0    0  502    0 -0.00000000000E+00  0.00000000000E+00  0.82836125418E+03  0.82836125418E+03  0.00000000000E+00 0. -1.
         21   -1    0    0  503  502  0.00000000000E+00 -0.00000000000E+00 -0.43127924164E+03  0.43127924164E+03  0.00000000000E+00 0. -1.
         24    2    1    2    0    0 -0.24505835334E+03  0.20131697057E+02  0.26518965779E+03  0.37002635603E+03  0.78326673548E+02 0.  0.
         23    2    1    2    0    0  0.79819474842E+02  0.10373013483E+03  0.41565410614E+03  0.44514647283E+03  0.90862296262E+02 0.  0.
        -11    1    3    3    0    0 -0.53547685093E+02 -0.27703427074E+02  0.53813520499E+02  0.80812928662E+02  0.00000000000E+00 0.  1.
         12    1    3    3    0    0 -0.19151066825E+03  0.47835124131E+02  0.21137613729E+03  0.28921342737E+03  0.00000000000E+00 0. -1.
        -13    1    4    4    0    0  0.82873362959E+02  0.56706272886E+02  0.19300172014E+03  0.21756208229E+03  0.00000000000E+00 0.  1.
         13    1    4    4    0    0 -0.30538881165E+01  0.47023861949E+02  0.22265238600E+03  0.22758439054E+03  0.00000000000E+00 0. -1.
         21    1    1    2  503  501 -0.21810784815E+02 -0.53769857856E+02 -0.23056514586E+03  0.23775448352E+03  0.00000000000E+00 0. -1.
          1    1    1    2  501    0  0.18704966331E+03 -0.70091974035E+02 -0.53196605525E+02  0.20671318344E+03  0.00000000000E+00 0. -1.
<scales pt_clust_5="13000.00000" pt_clust_6="13000.00000" pt_clust_7="13000.00000" pt_clust_8="13000.00000" pt_clust_9="58.02506" pt_clust_10="13000.00000"></scales>
<clustering>
<clus scale="   58.025">  2  9  1 -1</clus>
<clus scale="   78.327">  5  6 -1 -1</clus>
<clus scale="   90.862">  7  8 -1 -1</clus>
<clus scale="  202.371">  7 10 -1 -1</clus>
<clus scale="  262.867">  1  5  2 -1</clus>
<clus scale="   58.025">  2  5  1 -1</clus>
</clustering>
</event>
<event>
10    4  0.2565852E-005  0.2154711E+03  0.7546771E-02  0.1154539E+00
         21   -1    0    0  501  502  0.00000000000E+00  0.00000000000E+00  0.30153652626E+03  0.30153652626E+03  0.00000000000E+00 0.  1.
          2   -1    0    0  503    0 -0.00000000000E+00 -0.00000000000E+00 -0.47010152117E+03  0.47010152117E+03  0.00000000000E+00 0. -1.
         24    2    1    2    0    0  0.56838240512E+02  0.78226869581E+02  0.14091303837E+03  0.18929159980E+03  0.81392853883E+02 0.  0.
         23    2    1    2    0    0 -0.41227573535E+02 -0.61307516487E+02 -0.40307641110E+03  0.41961265648E+03  0.90254439742E+02 0.  0.
        -13    1    3    3    0    0  0.65850671614E+02  0.63174746031E+02  0.66697431833E+02  0.11303055738E+03  0.00000000000E+00 0.  1.
         14    1    3    3    0    0 -0.90124311023E+01  0.15052123550E+02  0.74215606532E+02  0.76261042418E+02  0.00000000000E+00 0. -1.
        -11    1    4    4    0    0  0.11120923319E+02  0.18098992602E+02 -0.62867898016E+02  0.66359785033E+02  0.00000000000E+00 0.  1.
         11    1    4    4    0    0 -0.52348496854E+02 -0.79406509090E+02 -0.34020851309E+03  0.35325287145E+03  0.00000000000E+00 0. -1.
         21    1    1    2  503  502  0.25139194847E+02  0.10444870866E+02  0.10816081953E+03  0.11153401870E+03  0.00000000000E+00 0.  1.
          1    1    1    2  501    0 -0.40749861824E+02 -0.27364223960E+02 -0.14562441707E+02  0.51199772461E+02  0.00000000000E+00 0. -1.
<scales pt_clust_5="13000.00000" pt_clust_6="13000.00000" pt_clust_7="13000.00000" pt_clust_8="13000.00000" pt_clust_9="27.22268" pt_clust_10="13000.00000"></scales>
<clustering>
<clus scale="   27.223">  1  9  2 -1</clus>
<clus scale="   81.393">  5  6 -1 -1</clus>
<clus scale="   90.254">  7  8 -1 -1</clus>
<clus scale="   46.537">  7 10 -1 -1</clus>
<clus scale="  142.806">  2  5  1 -1</clus>
<clus scale="   27.223">  1  5  2 -1</clus>
</clustering>
</event>
<event>
10    4  0.2565852E-005  0.3389521E+03  0.7546771E-02  0.1105424E+00
         -3   -1    0    0    0  501 -0.00000000000E+00  0.00000000000E+00  0.62780740073E+03  0.62780740073E+03  0.00000000000E+00 0.  1.
         21   -1    0    0  503  502  0.00000000000E+00 -0.00000000000E+00 -0.18038917269E+03  0.18038917269E+03  0.00000000000E+00 0. -1.
         24    2    1    2    0    0 -0.93097192399E+02  0.49769474935E+01  0.90882659012E+02  0.15264257874E+03  0.79675855164E+02 0.  0.
         23    2    1    2    0    0 -0.20239632817E+00 -0.40986707083E+02  0.52860922859E+02  0.11432062798E+03  0.92709102540E+02 0.  0.
        -11    1    3    3    0    0 -0.65338294945E+02  0.33492624109E+02  0.85153602314E+02  0.11243658054E+03  0.00000000000E+00 0.  1.
         12    1    3    3    0    0 -0.27758897454E+02 -0.28515676616E+02  0.57290566983E+01  0.40205998201E+02  0.00000000000E+00 0. -1.
        -13    1    4    4    0    0  0.16434748830E+02 -0.25976380346E+02 -0.20939625449E+02  0.37193295349E+02  0.00000000000E+00 0.  1.
         13    1    4    4    0    0 -0.16637145158E+02 -0.15010326737E+02  0.73800548308E+02  0.77127332628E+02  0.00000000000E+00 0. -1.
         21    1    1    2  503  501 -0.15008707718E+03 -0.84348165654E+02  0.15507893867E+03  0.23171150383E+03  0.00000000000E+00 0. -1.
         -4    1    1    2    0  502  0.24338666591E+03  0.12035792524E+03  0.14859570750E+03  0.30952186288E+03  0.00000000000E+00 0.  1.
<scales pt_clust_5="13000.00000" pt_clust_6="13000.00000" pt_clust_7="13000.00000" pt_clust_8="13000.00000" pt_clust_9="203.14843" pt_clust_10="13000.00000"></scales>
<clustering>
<clus scale="   79.676">  5  6 -1 -1</clus>
<clus scale="   92.709">  7  8 -1 -1</clus>
<clus scale="  122.638">  1  5  2 -1</clus>
<clus scale="  203.148">  2  9  1 -1</clus>
<clus scale="  113.922">  7 10 -1 -1</clus>
<clus scale="  203.148">  2  5  1 -1</clus>
</clustering>
</event>
<event>
10    4  0.2565852E-005  0.4339074E+03  0.7546771E-02  0.1040574E+00
          2   -1    0    0  502    0 -0.00000000000E+00  0.00000000000E+00  0.84637267523E+03  0.84637267523E+03  0.00000000000E+00 0. -1.
         21   -1    0    0  503  502  0.00000000000E+00 -0.00000000000E+00 -0.30483634598E+03  0.30483634598E+03  0.00000000000E+00 0.  1.
         24    2    1    2    0    0 -0.28618206987E+02 -0.31140616213E+03 -0.10914681163E+03  0.34069069278E+03  0.79776701325E+02 0.  0.
         23    2    1    2    0    0  0.78428190269E+02  0.23858092238E+03  0.22440142505E+03  0.34882125690E+03  0.90820879480E+02 0.  0.
        -11    1    3    3    0    0 -0.35720075957E+02 -0.31252091132E+03 -0.11045268522E+03  0.33338422205E+03  0.00000000000E+00 0.  1.
         12    1    3    3    0    0  0.71018689707E+01  0.11147491940E+01  0.13058735924E+01  0.73064707269E+01  0.00000000000E+00 0. -1.
        -13    1    4    4    0    0 -0.16820345123E+02  0.70604868887E+02  0.46046722257E+02  0.85955058904E+02  0.00000000000E+00 0. -1.
         13    1    4    4    0    0  0.95248535392E+02  0.16797605350E+03  0.17835470279E+03  0.26286619800E+03  0.00000000000E+00 0.  1.
         21    1    1    2  503  501 -0.23260124416E+02 -0.25864367855E+02  0.14953718978E+02  0.37863077314E+02  0.00000000000E+00 0. -1.
          1    1    1    2  501    0 -0.26549858866E+02  0.98689607598E+02  0.41132799685E+03  0.42383399421E+03  0.00000000000E+00 0. -1.
<scales pt_clust_5="13000.00000" pt_clust_6="13000.00000" pt_clust_7="13000.00000" pt_clust_8="13000.00000" pt_clust_9="34.78504" pt_clust_10="13000.00000"></scales>
<clustering>
<clus scale="   34.785">  2  9  1 -1</clus>
<clus scale="   79.777">  5  6 -1 -1</clus>
<clus scale="   90.821">  7  8 -1 -1</clus>
<clus scale="  101.797">  7 10 -1 -1</clus>
<clus scale="  343.858">  1  5  2 -1</clus>
<clus scale="   34.785">  2  5  1 -1</clus>
</clustering>
</event>
<event>
10    4  0.2565852E-005  0.1737266E+03  0.7546771E-02  0.1191081E+00
         21   -1    0    0  501  502  0.00000000000E+00  0.00000000000E+00  0.25630218566E+03  0.25630218566E+03  0.00000000000E+00 0. -1.
          2   -1    0    0  503    0 -0.00000000000E+00 -0.00000000000E+00 -0.24913495846E+03  0.24913495846E+03  0.00000000000E+00 0. -1.
         24    2    1    2    0    0  0.82316472505E+02 -0.39119406027E+02 -0.12396318428E+03  0.17447888150E+03  0.82278061833E+02 0.  0.
         23    2    1    2    0    0 -0.39484402774E+02 -0.39352417638E+02  0.55068373312E+02  0.11668543487E+03  0.86460014662E+02 0.  0.
        -11    1    3    3    0    0  0.25072088463E+02  0.21119383630E+02 -0.11703233195E+02  0.34808097507E+02  0.00000000000E+00 0.  1.
         12    1    3    3    0    0  0.57244384042E+02 -0.60238789657E+02 -0.11225995108E+03  0.13967078399E+03  0.00000000000E+00 0. -1.
        -11    1    4    4    0    0 -0.58237695684E+02 -0.25173267487E+02  0.78388443015E+01  0.63927850538E+02  0.00000000000E+00 0.  1.
         11    1    4    4    0    0  0.18753292910E+02 -0.14179150152E+02  0.47229529011E+02  0.52757584332E+02  0.00000000000E+00 0. -1.
         21    1    1    2  503  502  0.27766247549E+01  0.89524452416E+02  0.12016464587E+03  0.14987287728E+03  0.00000000000E+00 0. -1.
          1    1    1    2  501    0 -0.45608694486E+02 -0.11052628751E+02 -0.44102607707E+02  0.64399950478E+02  0.00000000000E+00 0. -1.
<scales pt_clust_5="13000.00000" pt_clust_6="13000.00000" pt_clust_7="13000.00000" pt_clust_8="13000.00000" pt_clust_9="89.56750" pt_clust_10="13000.00000"></scales>
<clustering>
<clus scale="   82.278">  5  6 -1 -1</clus>
<clus scale="   86.460">  7  8 -1 -1</clus>
<clus scale="   46.929">  7 10 -1 -1</clus>
<clus scale="   89.568">  1  9  2 -1</clus>
<clus scale="  118.577">  2  5  1 -1</clus>
<clus scale="   89.568">  1  5  2 -1</clus>
</clustering>
</event>
<event>
10    4  0.2565852E-005  0.2072569E+03  0.7546771E-02  0.1173514E+00
          2   -1    0    0  502    0 -0.00000000000E+00  0.00000000000E+00  0.72898258148E+03  0.72898258148E+03  0.00000000000E+00 0. -1.
         21   -1    0    0  503  502  0.00000000000E+00 -0.00000000000E+00 -0.66619675484E+02  0.66619675484E+02  0.00000000000E+00 0. -1.
         24    2    1    2    0    0  0.64797080096E+02  0.94994909931E+01  0.47065061108E+02  0.11695747280E+03  0.84705540252E+02 0.  0.
         23    2    1    2    0    0 -0.86429331472E+02  0.76119042729E+01  0.24497597324E+03  0.27534838235E+03  0.90969960809E+02 0.  0.
        -11    1    3    3    0    0  0.85092595213E+02  0.13961588107E+02  0.39447749317E+02  0.94825105478E+02  0.00000000000E+00 0.  1.
         12    1    3    3    0    0 -0.20295515117E+02 -0.44620971141E+01  0.76173117908E+01  0.22132367326E+02  0.00000000000E+00 0. -1.
        -13    1    4    4    0    0 -0.61703208660E+02  0.19893290421E+02  0.23827683217E+03  0.24693901618E+03  0.00000000000E+00 0.  1.
         13    1    4    4    0    0 -0.24726122811E+02 -0.12281386148E+02  0.66991410747E+01  0.28409366169E+02  0.00000000000E+00 0. -1.
         21    1    1    2  503  501 -0.13112753255E+02  0.15790755524E+02 -0.79490286643E+01  0.22010890819E+02  0.00000000000E+00 0. -1.
          1    1    1    2  501    0  0.34745004630E+02 -0.32902150790E+02  0.37827090031E+03  0.38128551099E+03  0.00000000000E+00 0. -1.
<scales pt_clust_5="13000.00000" pt_clust_6="13000.00000" pt_clust_7="13000.00000" pt_clust_8="13000.00000" pt_clust_9="20.52541" pt_clust_10="13000.00000"></scales>
<clustering>
<clus scale="   20.525">  2  9  1 -1</clus>
<clus scale="   84.706">  5  6 -1 -1</clus>
<clus scale="   90.970">  7  8 -1 -1</clus>
<clus scale="   47.257">  7 10 -1 -1</clus>
<clus scale="  103.489">  1  5  2 -1</clus>
<clus scale="   20.525">  2  5  1 -1</clus>
</clustering>
</event>
<event>
10    4  0.2565852E-005  0.2444697E+03  0.7546771E-02  0.1153761E+00
          2   -1    0    0  502    0 -0.00000000000E+00  0.00000000000E+00  0.54325325528E+03  0.54325325528E+03  0.00000000000E+00 0. -1.
         21   -1    0    0  503  502  0.00000000000E+00 -0.00000000000E+00 -0.41622977501E+03  0.41622977501E+03  0.00000000000E+00 0.  1.
         24    2    1    2    0    0  0.67726767480E+02 -0.43911187188E+02 -0.31083347523E+03  0.33160174682E+03  0.82626640844E+02 0.  0.
         23    2    1    2    0    0 -0.21909252653E+02 -0.82659633791E+02  0.34614171467E+03  0.36858199595E+03  0.93412904315E+02 0.  0.
        -13    1    3    3    0    0  0.23580344619E+02 -0.58040618499E+02 -0.23042730863E+03  0.23879173062E+03  0.00000000000E+00 0.  1.
         14    1    3    3    0    0  0.44146422861E+02  0.14129431311E+02 -0.80406166604E+02  0.92810016208E+02  0.00000000000E+00 0. -1.
        -11    1    4    4    0    0  0.31230890751E+02 -0.14739892059E+02  0.15631876367E+03  0.16008806586E+03  0.00000000000E+00 0.  1.
         11    1    4    4    0    0 -0.53140143405E+02 -0.67919741733E+02  0.18982295100E+03  0.20849393009E+03  0.00000000000E+00 0. -1.
         21    1    1    2  503  501 -0.18910167712E+02  0.22115433616E+02 -0.63751218673E+02  0.70077847635E+02  0.00000000000E+00 0.  1.
          1    1    1    2  501    0 -0.26907347115E+02  0.10445538736E+03  0.15546645951E+03  0.18922143988E+03  0.00000000000E+00 0. -1.
<scales pt_clust_5="13000.00000" pt_clust_6="13000.00000" pt_clust_7="13000.00000" pt_clust_8="13000.00000" pt_clust_9="29.09788" pt_clust_10="13000.00000"></scales>
<clustering>
<clus scale="   29.098">  2  9  1 -1</clus>
<clus scale="   82.627">  5  6 -1 -1</clus>
<clus scale="   93.413">  7  8 -1 -1</clus>
<clus scale="   99.583">  1  5  2 -1</clus>
<clus scale="   98.331">  7 10 -1 -1</clus>
<clus scale="   29.098">  2  5  1 -1</clus>
</clustering>
</event>
<event>
10    4  0.2565852E-005  0.3285671E+03  0.7546771E-02  0.1124093E+00
         21   -1    0    0  501  502  0.00000000000E+00  0.00000000000E+00  0.32757812898E+03  0.32757812898E+03  0.00000000000E+00 0.  1.
          2   -1    0    0  503    0 -0.00000000000E+00 -0.00000000000E+00 -0.15469493890E+04  0.15469493890E+04  0.00000000000E+00 0. -1.
         24    2    1    2    0    0 -0.25993199140E+02  0.59696363503E+00 -0.57623707317E+03  0.58233150613E+03  0.79905042203E+02 0.  0.
         23    2    1    2    0    0 -0.88680903037E+01 -0.70044526695E+02 -0.10440129921E+03  0.15540589512E+03  0.90920196960E+02 0.  0.
        -13    1    3    3    0    0  0.47253709921E+01 -0.31826291465E+02 -0.13242946431E+03  0.13628207871E+03  0.00000000000E+00 0.  1.
         14    1    3    3    0    0 -0.30718570132E+02  0.32423255100E+02 -0.44380760886E+03  0.44604942742E+03  0.00000000000E+00 0. -1.
        -13    1    4    4    0    0  0.22081638534E+02 -0.44400701608E+02 -0.70544286044E+01  0.50087783207E+02  0.00000000000E+00 0.  1.
         13    1    4    4    0    0 -0.30949728838E+02 -0.25643825088E+02 -0.97346870601E+02  0.10531811191E+03  0.00000000000E+00 0. -1.
         21    1    1    2  503  502 -0.74570937374E+02  0.45883944515E+02  0.28876906511E+03  0.30175111273E+03  0.00000000000E+00 0.  1.
          1    1    1    2  501    0  0.10943222682E+03  0.23563618545E+02 -0.82750195272E+03  0.83503900396E+03  0.00000000000E+00 0. -1.
<scales pt_clust_5="13000.00000" pt_clust_6="13000.00000" pt_clust_7="13000.00000" pt_clust_8="13000.00000" pt_clust_9="87.70726" pt_clust_10="13000.00000"></scales>
<clustering>
<clus scale="   79.905">  5  6 -1 -1</clus>
<clus scale="   84.029">  2  5  1 -1</clus>
<clus scale="   87.707">  1  9  2 -1</clus>
<clus scale="   90.920">  7  8 -1 -1</clus>
<clus scale="   81.455">  7 10 -1 -1</clus>
<clus scale="   87.707">  1  5  2 -1</clus>
</clustering>
</event>
<event>
10    4  0.2565852E-005  0.4772186E+03  0.7546771E-02  0.1073009E+00
         -1   -1    0    0    0  501 -0.00000000000E+00  0.00000000000E+00  0.34822991458E+03  0.34822991458E+03  0.00000000000E+00 0.  1.
         21   -1    0    0  503  502  0.00000000000E+00 -0.00000000000E+00 -0.50675046013E+03  0.50675046013E+03  0.00000000000E+00 0. -1.
         24    2    1    2    0    0 -0.83603637206E+01  0.67765385520E+02  0.39599858336E+02  0.11285628294E+03  0.80661940612E+02 0.  0.
         23    2    1    2    0    0 -0.20584731053E+03 -0.12526628819E+03 -0.65166322876E+02  0.26601821799E+03  0.91947182966E+02 0.  0.
        -11    1    3    3    0    0 -0.41599051990E+02  0.40808857008E+02  0.38881993740E+02  0.70054645627E+02  0.00000000000E+00 0.  1.
         12    1    3    3    0    0  0.33238688270E+02  0.26956528513E+02  0.71786459586E+00  0.42801637316E+02  0.00000000000E+00 0. -1.
        -11    1    4    4    0    0 -0.99933265988E+02 -0.89267560783E+02  0.47851378153E+01  0.13408300639E+03  0.00000000000E+00 0.  1.
         11    1    4    4    0    0 -0.10591404454E+03 -0.35998727406E+02 -0.69951460691E+02  0.13193521160E+03  0.00000000000E+00 0. -1.
         21    1    1    2  503  501  0.54099674970E+02 -0.17894010228E+02 -0.25489763691E+03  0.26118915700E+03  0.00000000000E+00 0. -1.
         -2    1    1    2    0  502  0.16010799928E+03  0.75394912897E+02  0.12194355590E+03  0.21491671678E+03  0.00000000000E+00 0.  1.
<scales pt_clust_5="13000.00000" pt_clust_6="13000.00000" pt_clust_7="13000.00000" pt_clust_8="13000.00000" pt_clust_9="56.98219" pt_clust_10="13000.00000"></scales>
<clustering>
<clus scale="   56.982">  2  9  1 -1</clus>
<clus scale="   80.662">  5  6 -1 -1</clus>
<clus scale="   91.947">  7  8 -1 -1</clus>
<clus scale="  103.675">  1  5  2 -1</clus>
<clus scale="  205.828">  7 10 -1 -1</clus>
<clus scale="   56.982">  2  5  1 -1</clus>
</clustering>
</event>
<event>
10    4  0.2565852E-005  0.2378843E+03  0.7546771E-02  0.1136487E+00
         -1   -1    0    0    0  501 -0.00000000000E+00  0.00000000000E+00  0.15728631954E+03  0.15728631954E+03  0.00000000000E+00 0.  1.
         21   -1    0    0  501  502  0.00000000000E+00 -0.00000000000E+00 -0.36269155189E+03  0.36269155189E+03  0.00000000000E+00 0. -1.
         24    2    1    2    0    0 -0.24888597101E+02 -0.15130542037E+03 -0.12413001968E+02  0.17590358774E+03  0.85294882993E+02 0.  0.
         23    2    1    2    0    0 -0.31240491535E+02  0.71034209268E+02 -0.17652166075E+03  0.21323211982E+03  0.91028638410E+02 0.  0.
        -11    1    3    3    0    0  0.17510298409E+02 -0.37116594489E+02 -0.32630486926E+02  0.52430914677E+02  0.00000000000E+00 0.  1.
         12    1    3    3    0    0 -0.42398895510E+02 -0.11418882588E+03  0.20217484959E+02  0.12347267306E+03  0.00000000000E+00 0. -1.
        -11    1    4    4    0    0 -0.57046928271E+02  0.74154933037E+02 -0.13524081856E+03  0.16444873099E+03  0.00000000000E+00 0. -1.
         11    1    4    4    0    0  0.25806436736E+02 -0.31207237687E+01 -0.41280842193E+02  0.48783388833E+02  0.00000000000E+00 0.  1.
         21    1    1    2  503  502  0.45898137051E+02  0.39441205155E+02 -0.48821036065E+02  0.77754364580E+02  0.00000000000E+00 0. -1.
         -2    1    1    2    0  503  0.10230951585E+02  0.40830005943E+02  0.32350466434E+02  0.53087799297E+02  0.00000000000E+00 0.  1.
<scales pt_clust_5="13000.00000" pt_clust_6="13000.00000" pt_clust_7="13000.00000" pt_clust_8="13000.00000" pt_clust_9="60.51651" pt_clust_10="13000.00000"></scales>
<clustering>
<clus scale="   60.517">  2  9  1 -1</clus>
<clus scale="   85.295">  5  6 -1 -1</clus>
<clus scale="   91.029">  7  8 -1 -1</clus>
<clus scale="   43.820">  7 10 -1 -1</clus>
<clus scale="  163.335">  1  5  2 -1</clus>
<clus scale="   60.517">  2  5  1 -1</clus>
</clustering>
</event>
<event>
10    4  0.2565852E-005  0.4438563E+03  0.7546771E-02  0.1065325E+00
          2   -1    0    0  503    0 -0.00000000000E+00  0.00000000000E+00  0.78203266279E+03  0.78203266279E+03  0.00000000000E+00 0. -1.
         21   -1    0    0  501  502  0.00000000000E+00 -0.00000000000E+00 -0.22913953638E+03  0.22913953638E+03  0.00000000000E+00 0. -1.
         24    2    1    2    0    0  0.70240945203E+02 -0.11788892810E+03  0.42510920067E+03  0.45366926729E+03  0.79160481529E+02 0.  0.
         23    2    1    2    0    0  0.74824875881E+02  0.27545195396E+02  0.27383001774E+03  0.29847936020E+03  0.88031528493E+02 0.  0.
        -13    1    3    3    0    0 -0.12054950654E+01 -0.32567637956E+02  0.34255202647E+02  0.47281319448E+02  0.00000000000E+00 0.  1.
         14    1    3    3    0    0  0.71446440269E+02 -0.85321290144E+02  0.39085399803E+03  0.40638794784E+03  0.00000000000E+00 0. -1.
        -11    1    4    4    0    0  0.71155292947E+02  0.54833533147E+02  0.18837726097E+03  0.20870022645E+03  0.00000000000E+00 0. -1.
         11    1    4    4    0    0  0.36695829345E+01 -0.27288337751E+02  0.85452756772E+02  0.89779133745E+02  0.00000000000E+00 0.  1.
         21    1    1    2  503  502 -0.13759521883E+02 -0.19327101741E+02 -0.66013472626E+02  0.70147272736E+02  0.00000000000E+00 0. -1.
          1    1    1    2  501    0 -0.13130629920E+03  0.10967083444E+03 -0.80032619373E+02  0.18887629894E+03  0.00000000000E+00 0. -1.
<scales pt_clust_5="13000.00000" pt_clust_6="13000.00000" pt_clust_7="13000.00000" pt_clust_8="13000.00000" pt_clust_9="23.72470" pt_clust_10="13000.00000"></scales>
<clustering>
<clus scale="   23.725">  2  9  1 -1</clus>
<clus scale="   79.160">  5  6 -1 -1</clus>
<clus scale="   88.032">  7  8 -1 -1</clus>
<clus scale="  159.170">  1  5  2 -1</clus>
<clus scale="  150.591">  7 10 -1 -1</clus>
<clus scale="   23.725">  2  5  1 -1</clus>
</clustering>
</event>
<event>
10    4  0.2565852E-005  0.1662046E+03  0.7546771E-02  0.1205458E+00
         21   -1    0    0  503  502  0.00000000000E+00  0.00000000000E+00  0.44166033318E+02  0.44166033318E+02  0.00000000000E+00 0. -1.
          2   -1    0    0  502    0 -0.00000000000E+00 -0.00000000000E+00 -0.59780022574E+03  0.59780022574E+03  0.00000000000E+00 0. -1.
         24    2    1    2    0    0 -0.53849261375E+02 -0.20425579673E+02 -0.14410203321E+03  0.17482799456E+03  0.80513877366E+02 0.  0.
         23    2    1    2    0    0 -0.22005098292E+01  0.41206655890E+02 -0.79143003816E+02  0.12799586643E+03  0.91741463019E+02 0.  0.
        -13    1    3    3    0    0 -0.58112824041E+01  0.26881772230E+02 -0.66886101930E+02  0.72319785071E+02  0.00000000000E+00 0.  1.
         14    1    3    3    0    0 -0.48037978971E+02 -0.47307351903E+02 -0.77215931283E+02  0.10250820948E+03  0.00000000000E+00 0. -1.
        -11    1    4    4    0    0 -0.33377498237E+02 -0.14067363390E+02 -0.20669131020E+02  0.41703250214E+02  0.00000000000E+00 0.  1.
         11    1    4    4    0    0  0.31176988408E+02  0.55274019280E+02 -0.58473872796E+02  0.86292616216E+02  0.00000000000E+00 0. -1.
         21    1    1    2  503  501  0.10139855236E+02 -0.21855418712E+02 -0.18783914584E+03  0.18937798368E+03  0.00000000000E+00 0. -1.
          1    1    1    2  501    0  0.45909915968E+02  0.10743424955E+01 -0.14255000956E+03  0.14976441440E+03  0.00000000000E+00 0. -1.
<scales pt_clust_5="13000.00000" pt_clust_6="13000.00000" pt_clust_7="13000.00000" pt_clust_8="13000.00000" pt_clust_9="24.09308" pt_clust_10="13000.00000"></scales>
<clustering>
<clus scale="   24.093">  1  9  2 -1</clus>
<clus scale="   80.514">  5  6 -1 -1</clus>
<clus scale="   91.741">  7  8 -1 -1</clus>
<clus scale="   46.759">  7 10 -1 -1</clus>
<clus scale="   99.003">  2  5  1 -1</clus>
<clus scale="   24.093">  1  5  2 -1</clus>
</clustering>
</event>
<event>
10    4  0.2565852E-005  0.2470496E+03  0.7546771E-02  0.1145252E+00
          2   -1    0    0  503    0 -0.00000000000E+00  0.00000000000E+00  0.80108409735E+03  0.80108409735E+03  0.00000000000E+00 0. -1.
         21   -1    0    0  501  502  0.00000000000E+00 -0.00000000000E+00 -0.20812477429E+03  0.20812477429E+03  0.00000000000E+00 0. -1.
         24    2    1    2    0    0  0.93300567357E+02  0.56201823505E+02  0.11489674047E+03  0.17752054838E+03  0.80303445087E+02 0.  0.
         23    2    1    2    0    0  0.16438225325E+02  0.45432508868E+02  0.15567900825E+03  0.18632374417E+03  0.90256611495E+02 0.  0.
        -13    1    3    3    0    0  0.64567837345E+02  0.75815665440E+02  0.93978353619E+02  0.13692681145E+03  0.00000000000E+00 0.  1.
         14    1    3    3    0    0  0.28732730012E+02 -0.19613841936E+02  0.20918386848E+02  0.40593736927E+02  0.00000000000E+00 0. -1.
        -13    1    4    4    0    0 -0.89406228526E+01  0.58056452215E+02  0.50730834779E+02  0.77615101483E+02  0.00000000000E+00 0.  1.
         13    1    4    4    0    0  0.25378848177E+02 -0.12623943347E+02  0.10494817347E+03  0.10870864269E+03  0.00000000000E+00 0. -1.
         21    1    1    2  503  502 -0.43613328156E+02 -0.43890785270E+01 -0.15118610081E+03  0.15741227233E+03  0.00000000000E+00 0. -1.
          1    1    1    2  501    0 -0.66125464525E+02 -0.97245253846E+02  0.47356967515E+03  0.48795230676E+03  0.00000000000E+00 0. -1.
<scales pt_clust_5="13000.00000" pt_clust_6="13000.00000" pt_clust_7="13000.00000" pt_clust_8="13000.00000" pt_clust_9="43.83362" pt_clust_10="13000.00000"></scales>
<clustering>
<clus scale="   43.834">  2  9  1 -1</clus>
<clus scale="   80.303">  5  6 -1 -1</clus>
<clus scale="   90.257">  7  8 -1 -1</clus>
<clus scale="  118.073">  1  5  2 -1</clus>
<clus scale="   61.144">  7 10 -1 -1</clus>
<clus scale="   43.834">  2  5  1 -1</clus>
</clustering>
</event>
<event>
10    4  0.2565852E-005  0.1249884E+03  0.7546771E-02  0.1256104E+00
         21   -1    0    0  503  502  0.00000000000E+00  0.00000000000E+00  0.38579687694E+03  0.38579687694E+03  0.00000000000E+00 0. -1.
          2   -1    0    0  502    0 -0.00000000000E+00 -0.00000000000E+00 -0.55291657016E+02  0.55291657016E+02  0.00000000000E+00 0. -1.
         24    2    1    2    0    0  0.10595363391E+02 -0.94841252295E+01  0.12875819891E+02  0.82959356701E+02  0.80710951981E+02 0.  0.
         23    2    1    2    0    0  0.23798861349E+02 -0.44027119750E+01  0.15747340555E+03  0.18372415738E+03  0.91492747656E+02 0.  0.
        -11    1    3    3    0    0 -0.33913500069E+02 -0.12339787438E+02  0.13000081260E+02  0.38358805426E+02  0.00000000000E+00 0.  1.
         12    1    3    3    0    0  0.44508863460E+02  0.28556622084E+01 -0.12426136933E+00  0.44600551275E+02  0.00000000000E+00 0. -1.
        -11    1    4    4    0    0  0.19432649200E+02  0.38590824069E+02  0.41289796534E+02  0.59763926035E+02  0.00000000000E+00 0.  1.
         11    1    4    4    0    0  0.43662121492E+01 -0.42993536044E+02  0.11618360902E+03  0.12396023134E+03  0.00000000000E+00 0. -1.
         21    1    1    2  503  501 -0.20360066837E+02 -0.13509566105E+02  0.12632334294E+03  0.12866478800E+03  0.00000000000E+00 0.  1.
          1    1    1    2  501    0 -0.14034157904E+02  0.27396403309E+02  0.33832651541E+02  0.45740231882E+02  0.00000000000E+00 0. -1.
<scales pt_clust_5="13000.00000" pt_clust_6="13000.00000" pt_clust_7="13000.00000" pt_clust_8="13000.00000" pt_clust_9="24.43442" pt_clust_10="13000.00000"></scales>
<clustering>
<clus scale="   24.434">  1  9  2 -1</clus>
<clus scale="   80.711">  5  6 -1 -1</clus>
<clus scale="   81.881">  2  5  1 -1</clus>
<clus scale="   91.493">  7  8 -1 -1</clus>
<clus scale="   26.403">  7 10 -1 -1</clus>
<clus scale="   24.434">  1  5  2 -1</clus>
</clustering>
</event>
<event>
10    4  0.2565852E-005  0.5614280E+03  0.7546771E-02  0.1038855E+00
          2   -1    0    0  503    0 -0.00000000000E+00  0.00000000000E+00  0.75930097647E+03  0.75930097647E+03  0.00000000000E+00 0. -1.
         21   -1    0    0  501  502  0.00000000000E+00 -0.00000000000E+00 -0.24718243539E+03  0.24718243539E+03  0.00000000000E+00 0.  1.
         24    2    1    2    0    0  0.12715539692E+03 -0.62034424922E+02  0.29143385742E+03  0.33387723821E+03  0.80768509348E+02 0.  0.
         23    2    1    2    0    0  0.13392702671E+03 -0.32630573407E+02 -0.67552046996E+02  0.18189081477E+03  0.97569393963E+02 0.  0.
        -11    1    3    3    0    0  0.87259537568E+01 -0.23681285271E+02  0.11951076792E+02  0.27924429762E+02  0.00000000000E+00 0.  1.
         12    1    3    3    0    0  0.11842944316E+03 -0.38353139651E+02  0.27948278063E+03  0.30595280845E+03  0.00000000000E+00 0. -1.
        -11    1    4    4    0    0  0.14630596271E+02 -0.17328304234E+02  0.22264870241E+02  0.31781266836E+02  0.00000000000E+00 0. -1.
         11    1    4    4    0    0  0.11929643044E+03 -0.15302269173E+02 -0.89816917237E+02  0.15010954793E+03  0.00000000000E+00 0.  1.
         21    1    1    2  503  502  0.58577325930E+02  0.11527000987E+02  0.13773861110E+02  0.61269030633E+02  0.00000000000E+00 0.  1.
          1    1    1    2  501    0 -0.31965974956E+03  0.83137997342E+02  0.27446286954E+03  0.42944632825E+03  0.00000000000E+00 0. -1.
<scales pt_clust_5="13000.00000" pt_clust_6="13000.00000" pt_clust_7="13000.00000" pt_clust_8="13000.00000" pt_clust_9="59.70071" pt_clust_10="13000.00000"></scales>
<clustering>
<clus scale="   59.701">  2  9  1 -1</clus>
<clus scale="   80.769">  5  6 -1 -1</clus>
<clus scale="   97.569">  7  8 -1 -1</clus>
<clus scale="  166.888">  1  5  2 -1</clus>
<clus scale="  203.656">  7 10 -1 -1</clus>
<clus scale="   59.701">  2  5  1 -1</clus>
</clustering>
</event>
<event>
10    4  0.2565852E-005  0.1607538E+03  0.7546771E-02  0.1211181E+00
         21   -1    0    0  501  502  0.00000000000E+00  0.00000000000E+00  0.38560250695E+02  0.38560250695E+02  0.00000000000E+00 0. -1.
          2   -1    0    0  503    0 -0.00000000000E+00 -0.00000000000E+00 -0.12953137886E+04  0.12953137886E+04  0.00000000000E+00 0. -1.
         24    2    1    2    0    0 -0.11503999182E+02  0.52033116374E+02 -0.10420235054E+04  0.10464605825E+04  0.80168432264E+02 0.  0.
         23    2    1    2    0    0 -0.24802175615E+02 -0.63160261790E+02 -0.19342316700E+03  0.22489643022E+03  0.92528461622E+02 0.  0.
        -11    1    3    3    0    0  0.27588591888E+02  0.55151126002E+01 -0.16907151330E+03  0.17139639284E+03  0.00000000000E+00 0.  1.
         12    1    3    3    0    0 -0.39092591070E+02  0.46518003774E+02 -0.87295199214E+03  0.87506418961E+03  0.00000000000E+00 0. -1.
        -11    1    4    4    0    0 -0.50554834934E+01  0.24057694918E+02 -0.52886082721E+02  0.58320393892E+02  0.00000000000E+00 0. -1.
         11    1    4    4    0    0 -0.19746692122E+02 -0.87217956708E+02 -0.14053708428E+03  0.16657603633E+03  0.00000000000E+00 0.  1.
         21    1    1    2  503  502  0.15347987010E+02  0.18415842268E+02 -0.30246274756E+02  0.38594573302E+02  0.00000000000E+00 0. -1.
          1    1    1    2  501    0  0.20958187787E+02 -0.72886968519E+01  0.89394092510E+01  0.23922453362E+02  0.00000000000E+00 0. -1.
<scales pt_clust_5="13000.00000" pt_clust_6="13000.00000" pt_clust_7="13000.00000" pt_clust_8="13000.00000" pt_clust_9="23.97298" pt_clust_10="13000.00000"></scales>
<clustering>
<clus scale="   23.973">  1  9  2 -1</clus>
<clus scale="   80.168">  5  6 -1 -1</clus>
<clus scale="   92.528">  7  8 -1 -1</clus>
<clus scale="   28.332">  7 10 -1 -1</clus>
<clus scale="   96.799">  2  5  1 -1</clus>
<clus scale="   23.973">  1  5  2 -1</clus>
</clustering>
</event>
<event>
10    4  0.2565852E-005  0.5214464E+03  0.7546771E-02  0.1040520E+00
         21   -1    0    0  503  502  0.00000000000E+00  0.00000000000E+00  0.24628106939E+03  0.24628106939E+03  0.00000000000E+00 0.  1.
         -3   -1    0    0    0  501 -0.00000000000E+00 -0.00000000000E+00 -0.16059358155E+04  0.16059358155E+04  0.00000000000E+00 0.  1.
         24    2    1    2    0    0 -0.14039869769E+03  0.11033806040E+03 -0.56755720092E+03  0.60035731571E+03  0.80133939841E+02 0.  0.
         23    2    1    2    0    0 -0.11441993171E+03  0.98693227218E+02 -0.35444067317E+03  0.39609721618E+03  0.91828862549E+02 0.  0.
        -11    1    3    3    0    0 -0.15053991586E+03  0.99241641503E+02 -0.53299207886E+03  0.56266484323E+03  0.00000000000E+00 0.  1.
         12    1    3    3    0    0  0.10141218169E+02  0.11096418897E+02 -0.34565122066E+02  0.37692472481E+02  0.00000000000E+00 0. -1.
        -11    1    4    4    0    0 -0.54887977056E+02  0.60980961546E+01 -0.58996140737E+02  0.80811022911E+02  0.00000000000E+00 0. -1.
         11    1    4    4    0    0 -0.59531954652E+02  0.92595131064E+02 -0.29544453243E+03  0.31528619327E+03  0.00000000000E+00 0.  1.
         21    1    1    2  503  501  0.38213923340E+02  0.68663105780E+02  0.15075568831E+03  0.17000648103E+03  0.00000000000E+00 0.  1.
         -4    1    1    2    0  502  0.21660470606E+03 -0.27769439340E+03 -0.58841256033E+03  0.68575587199E+03  0.00000000000E+00 0.  1.
<scales pt_clust_5="13000.00000" pt_clust_6="13000.00000" pt_clust_7="13000.00000" pt_clust_8="13000.00000" pt_clust_9="78.58070" pt_clust_10="13000.00000"></scales>
<clustering>
<clus scale="   78.581">  1  9  2 -1</clus>
<clus scale="   80.134">  5  6 -1 -1</clus>
<clus scale="   91.829">  7  8 -1 -1</clus>
<clus scale="  198.437">  2  5  1 -1</clus>
<clus scale="  229.763">  7 10 -1 -1</clus>
<clus scale="   78.581">  1  5  2 -1</clus>
</clustering>
</event>
<event>
10    4  0.2565852E-005  0.4222654E+03  0.7546771E-02  0.1069860E+00
          2   -1    0    0  502    0 -0.00000000000E+00  0.00000000000E+00  0.31307335515E+03  0.31307335515E+03  0.00000000000E+00 0. -1.
         21   -1    0    0  503  502  0.00000000000E+00 -0.00000000000E+00 -0.30327547960E+03  0.30327547960E+03  0.00000000000E+00 0. -1.
         24    2    1    2    0    0 -0.11621605667E+03 -0.68133187622E+02 -0.30435326631E+02  0.15966306231E+03  0.80110431752E+02 0.  0.
         23    2    1    2    0    0 -0.33086070506E+01 -0.10288962188E+03 -0.86334945426E+02  0.16333876931E+03  0.92890309428E+02 0.  0.
        -13    1    3    3    0    0 -0.32345282952E+02 -0.62981156147E+02 -0.26313841010E+02  0.75533182030E+02  0.00000000000E+00 0.  1.
         14    1    3    3    0    0 -0.83870773713E+02 -0.51520314751E+01 -0.41214856208E+01  0.84129880276E+02  0.00000000000E+00 0. -1.
        -13    1    4    4    0    0  0.11239499421E+01 -0.70971164961E+02 -0.10451530364E+03  0.12633929798E+03  0.00000000000E+00 0. -1.
         13    1    4    4    0    0 -0.44325569927E+01 -0.31918456920E+02  0.18180358214E+02  0.36999471326E+02  0.00000000000E+00 0.  1.
         21    1    1    2  503  501 -0.20290413155E+02 -0.88991632906E+01 -0.13436443875E+02  0.25912043479E+02  0.00000000000E+00 0. -1.
          1    1    1    2  501    0  0.13981507687E+03  0.17992197279E+03  0.14000459148E+03  0.26743495966E+03  0.00000000000E+00 0. -1.
<scales pt_clust_5="13000.00000" pt_clust_6="13000.00000" pt_clust_7="13000.00000" pt_clust_8="13000.00000" pt_clust_9="22.15617" pt_clust_10="13000.00000"></scales>
<clustering>
<clus scale="   22.156">  2  9  1 -1</clus>
<clus scale="   80.110">  5  6 -1 -1</clus>
<clus scale="   92.890">  7  8 -1 -1</clus>
<clus scale="  163.120">  1  5  2 -1</clus>
<clus scale="  124.721">  7 10 -1 -1</clus>
<clus scale="   22.156">  2  5  1 -1</clus>
</clustering>
</event>
<event>
10    4  0.2565852E-005  0.5860222E+03  0.7546771E-02  0.1050891E+00
         21   -1    0    0  503  502  0.00000000000E+00  0.00000000000E+00  0.10244996000E+03  0.10244996000E+03  0.00000000000E+00 0. -1.
          2   -1    0    0  502    0 -0.00000000000E+00 -0.00000000000E+00 -0.16950898913E+04  0.16950898913E+04  0.00000000000E+00 0. -1.
         24    2    1    2    0    0 -0.65263288777E+02  0.18532130207E+02 -0.62547247045E+03  0.63393264328E+03  0.77794911185E+02 0.  0.
         23    2    1    2    0    0  0.97669585304E+02 -0.11794241856E+03 -0.10078277279E+04  0.10234572936E+04  0.91095229286E+02 0.  0.
        -11    1    3    3    0    0  0.87428222999E+01  0.21632184499E+02 -0.76307996333E+02  0.79795354829E+02  0.00000000000E+00 0.  1.
         12    1    3    3    0    0 -0.74006111077E+02 -0.31000542916E+01 -0.54916447412E+03  0.55413728845E+03  0.00000000000E+00 0. -1.
        -11    1    4    4    0    0  0.58030746530E+02 -0.12509289455E+03 -0.78269681165E+03  0.79475159565E+03  0.00000000000E+00 0. -1.
         11    1    4    4    0    0  0.39638838774E+02  0.71504759914E+01 -0.22513091621E+03  0.22870569796E+03  0.00000000000E+00 0.  1.
         21    1    1    2  503  501 -0.19492227815E+02 -0.11330473815E+02  0.87212856732E+01  0.24174106103E+02  0.00000000000E+00 0.  1.
          1    1    1    2  501    0 -0.12914068712E+02  0.11074076217E+03  0.31938981369E+02  0.11597580828E+03  0.00000000000E+00 0. -1.
<scales pt_clust_5="13000.00000" pt_clust_6="13000.00000" pt_clust_7="13000.00000" pt_clust_8="13000.00000" pt_clust_9="22.54610" pt_clust_10="13000.00000"></scales>
<clustering>
<clus scale="   22.546">  1  9  2 -1</clus>
<clus scale="   77.795">  5  6 -1 -1</clus>
<clus scale="   91.095">  7  8 -1 -1</clus>
<clus scale="  103.733">  2  5  1 -1</clus>
<clus scale="  106.843">  7 10 -1 -1</clus>
<clus scale="   22.546">  1  5  2 -1</clus>
</clustering>
</event>
<event>
10    4  0.2565852E-005  0.6455087E+03  0.7546771E-02  0.1012987E+00
         21   -1    0    0  501  502  0.00000000000E+00  0.00000000000E+00  0.20516547462E+03  0.20516547462E+03  0.00000000000E+00 0.  1.
          2   -1    0    0  503    0 -0.00000000000E+00 -0.00000000000E+00 -0.12627937665E+04  0.12627937665E+04  0.00000000000E+00 0. -1.
         24    2    1    2    0    0 -0.22599083012E+03  0.24855990174E+02 -0.10172973025E+03  0.26087163163E+03  0.77558975154E+02 0.  0.
         23    2    1    2    0    0 -0.15390174251E+03  0.56460138422E+02 -0.95333458595E+02  0.20808449403E+03  0.85657426713E+02 0.  0.
        -13    1    3    3    0    0 -0.10027842613E+03  0.26131664525E+02 -0.77657315579E+01  0.10391791581E+03  0.00000000000E+00 0.  1.
         14    1    3    3    0    0 -0.12571240399E+03 -0.12756743516E+01 -0.93963998692E+02  0.15695371582E+03  0.00000000000E+00 0. -1.
        -11    1    4    4    0    0 -0.44082844807E+02  0.54884188682E+02 -0.14910418309E+02  0.71957570468E+02  0.00000000000E+00 0.  1.
         11    1    4    4    0    0 -0.10981889770E+03  0.15759497395E+01 -0.80423040286E+02  0.13612692356E+03  0.00000000000E+00 0. -1.
         21    1    1    2  503  502  0.10461626043E+02  0.36375970688E+02  0.15555895695E+02  0.40922399170E+02  0.00000000000E+00 0.  1.
          1    1    1    2  501    0  0.36943094658E+03 -0.11769209928E+03 -0.87612099875E+03  0.95808071631E+03  0.00000000000E+00 0. -1.
<scales pt_clust_5="13000.00000" pt_clust_6="13000.00000" pt_clust_7="13000.00000" pt_clust_8="13000.00000" pt_clust_9="37.85045" pt_clust_10="13000.00000"></scales>
<clustering>
<clus scale="   37.850">  1  9  2 -1</clus>
<clus scale="   77.559">  5  6 -1 -1</clus>
<clus scale="   85.657">  7  8 -1 -1</clus>
<clus scale="  238.079">  2  5  1 -1</clus>
<clus scale="  197.834">  7 10 -1 -1</clus>
<clus scale="   37.850">  1  5  2 -1</clus>
</clustering>
</event>
<event>
10    4  0.2565852E-005  0.2064066E+03  0.7546771E-02  0.1158092E+00
         21   -1    0    0  501  502  0.00000000000E+00  0.00000000000E+00  0.50851600998E+02  0.50851600998E+02  0.00000000000E+00 0.  1.
          2   -1    0    0  503    0 -0.00000000000E+00 -0.00000000000E+00 -0.95921644516E+03  0.95921644516E+03  0.00000000000E+00 0. -1.
         24    2    1    2    0    0  0.11973785718E+03 -0.72707798817E+02 -0.37469791061E+03  0.40801861031E+03  0.80355981055E+02 0.  0.
         23    2    1    2    0    0 -0.83281436264E+02  0.74602896519E+02 -0.51306617846E+03  0.53289140569E+03  0.90746663759E+02 0.  0.
        -13    1    3    3    0    0  0.45704746368E+02 -0.32125469827E+02 -0.59107992252E+02  0.81330955977E+02  0.00000000000E+00 0.  1.
         14    1    3    3    0    0  0.74033110813E+02 -0.40582328990E+02 -0.31558991836E+03  0.32668765433E+03  0.00000000000E+00 0. -1.
        -11    1    4    4    0    0 -0.32750555512E+02  0.85500614561E+02 -0.30108436529E+03  0.31469786939E+03  0.00000000000E+00 0.  1.
         11    1    4    4    0    0 -0.50530880752E+02 -0.10897718042E+02 -0.21198181317E+03  0.21819353630E+03  0.00000000000E+00 0. -1.
         21    1    1    2  503  502 -0.19604754155E+02  0.23834151274E+02  0.20978157297E+01  0.30932409917E+02  0.00000000000E+00 0.  1.
          1    1    1    2  501    0 -0.16851666761E+02 -0.25729248976E+02 -0.22698570820E+02  0.38225620240E+02  0.00000000000E+00 0. -1.
<scales pt_clust_5="13000.00000" pt_clust_6="13000.00000" pt_clust_7="13000.00000" pt_clust_8="13000.00000" pt_clust_9="30.86119" pt_clust_10="13000.00000"></scales>
<clustering>
<clus scale="   30.861">  1  9  2 -1</clus>
<clus scale="   80.356">  5  6 -1 -1</clus>
<clus scale="   90.747">  7  8 -1 -1</clus>
<clus scale="   29.441">  7 10 -1 -1</clus>
<clus scale="  149.483">  2  5  1 -1</clus>
<clus scale="   30.861">  1  5  2 -1</clus>
</clustering>
</event>
<event>
10    4  0.2565852E-005  0.1624190E+03  0.7546771E-02  0.1204451E+00
          2   -1    0    0  503    0 -0.00000000000E+00  0.00000000000E+00  0.39716188821E+03  0.39716188821E+03  0.00000000000E+00 0. -1.
         21   -1    0    0  501  502  0.00000000000E+00 -0.00000000000E+00 -0.81760700499E+02  0.81760700499E+02  0.00000000000E+00 0. -1.
         24    2    1    2    0    0 -0.69011875784E+02  0.26454225824E+02  0.24348751331E+03  0.26703632861E+03  0.80992386039E+02 0.  0.
         23    2    1    2    0    0  0.35415455355E+02  0.22087020281E+01  0.76694464432E+02  0.12507742969E+03  0.92212741532E+02 0.  0.
        -13    1    3    3    0    0 -0.40828991227E+02 -0.23530756768E+02  0.70667923934E+02  0.84939145933E+02  0.00000000000E+00 0.  1.
         14    1    3    3    0    0 -0.28182884557E+02  0.49984982592E+02  0.17281958937E+03  0.18209718267E+03  0.00000000000E+00 0. -1.
        -11    1    4    4    0    0  0.17178816263E+02 -0.40628080168E+02  0.12631148296E+02  0.45883532270E+02  0.00000000000E+00 0.  1.
         11    1    4    4    0    0  0.18236639092E+02  0.42836782196E+02  0.64063316136E+02  0.79193897420E+02  0.00000000000E+00 0. -1.
         21    1    1    2  503  502 -0.63007172083E+00 -0.36584291228E+02  0.21946192970E+02  0.42666646703E+02  0.00000000000E+00 0. -1.
          1    1    1    2  501    0  0.34226492149E+02  0.79213633755E+01 -0.26726982996E+02  0.44142183710E+02  0.00000000000E+00 0. -1.
<scales pt_clust_5="13000.00000" pt_clust_6="13000.00000" pt_clust_7="13000.00000" pt_clust_8="13000.00000" pt_clust_9="36.58972" pt_clust_10="13000.00000"></scales>
<clustering>
<clus scale="   36.590">  2  9  1 -1</clus>
<clus scale="   80.992">  5  6 -1 -1</clus>
<clus scale="   92.213">  7  8 -1 -1</clus>
<clus scale="   35.425">  7 10 -1 -1</clus>
<clus scale="  108.415">  1  5  2 -1</clus>
<clus scale="   36.590">  2  5  1 -1</clus>
</clustering>
</event>
<event>
10    4  0.2565852E-005  0.2735490E+03  0.7546771E-02  0.1144907E+00
         -1   -1    0    0    0  501 -0.00000000000E+00  0.00000000000E+00  0.13725937931E+04  0.13725937931E+04  0.00000000000E+00 0.  1.
         21   -1    0    0  503  502  0.00000000000E+00 -0.00000000000E+00 -0.73743825557E+02  0.73743825557E+02  0.00000000000E+00 0. -1.
         24    2    1    2    0    0  0.36726596666E+02 -0.15409893738E+02  0.46337393178E+03  0.47159902823E+03  0.78127684247E+02 0.  0.
         23    2    1    2    0    0 -0.20048695295E+02  0.34155240597E+02  0.28850820180E+03  0.30508201077E+03  0.90936902004E+02 0.  0.
        -13    1    3    3    0    0 -0.13708599592E+02 -0.16594091520E+02  0.41790614801E+02  0.47007925519E+02  0.00000000000E+00 0.  1.
         14    1    3    3    0    0  0.50435196258E+02  0.11841977819E+01  0.42158331698E+03  0.42459110271E+03  0.00000000000E+00 0. -1.
        -13    1    4    4    0    0 -0.14586780566E+02 -0.30730134570E+02  0.94197504105E+02  0.10015131111E+03  0.00000000000E+00 0. -1.
         13    1    4    4    0    0 -0.54619147284E+01  0.64885375167E+02  0.19431069769E+03  0.20493069966E+03  0.00000000000E+00 0.  1.
         21    1    1    2  503  501 -0.16600295185E+03  0.28452168219E+02  0.99600184956E+02  0.19566988205E+03  0.00000000000E+00 0. -1.
         -2    1    1    2    0  502  0.14932505048E+03 -0.47197515078E+02  0.44736764896E+03  0.47398669756E+03  0.00000000000E+00 0.  1.
<scales pt_clust_5="13000.00000" pt_clust_6="13000.00000" pt_clust_7="13000.00000" pt_clust_8="13000.00000" pt_clust_9="162.10110" pt_clust_10="13000.00000"></scales>
<clustering>
<clus scale="   78.128">  5  6 -1 -1</clus>
<clus scale="   87.694">  1  5  2 -1</clus>
<clus scale="   90.937">  7  8 -1 -1</clus>
<clus scale="  162.101">  2  9  1 -1</clus>
<clus scale="   76.170">  7 10 -1 -1</clus>
<clus scale="  162.101">  2  5  1 -1</clus>
</clustering>
</event>
<event>
10    4  0.2565852E-005  0.1239648E+04  0.7546771E-02  0.9474118E-01
          2   -1    0    0  502    0 -0.00000000000E+00  0.00000000000E+00  0.21812724343E+04  0.21812724343E+04  0.00000000000E+00 0. -1.
         21   -1    0    0  503  502  0.00000000000E+00 -0.00000000000E+00 -0.31685895362E+03  0.31685895362E+03  0.00000000000E+00 0.  1.
         24    2    1    2    0    0 -0.86501692402E+02  0.24337549367E+03  0.18297948351E+03  0.32658951591E+03  0.80405514778E+02 0.  0.
         23    2    1    2    0    0  0.10343454706E+03  0.29933670323E+03 -0.67278113871E+01  0.32933937329E+03  0.90099899735E+02 0.  0.
        -11    1    3    3    0    0 -0.69412194523E+02  0.93066199722E+02  0.55140384310E+02  0.12852949958E+03  0.00000000000E+00 0.  1.
         12    1    3    3    0    0 -0.17089497879E+02  0.15030929395E+03  0.12783909920E+03  0.19806001633E+03  0.00000000000E+00 0. -1.
        -11    1    4    4    0    0  0.87021569902E+02  0.25872897431E+03  0.26653347912E+02  0.27426964238E+03  0.00000000000E+00 0.  1.
         11    1    4    4    0    0  0.16412977155E+02  0.40607728915E+02 -0.33381159300E+02  0.55069730914E+02  0.00000000000E+00 0. -1.
         21    1    1    2  503  501 -0.10627859526E+03  0.48131158887E+02  0.13715165434E+03  0.18006200197E+03  0.00000000000E+00 0. -1.
          1    1    1    2  501    0  0.89345740605E+02 -0.59084335579E+03  0.15510101543E+04  0.16621404968E+04  0.00000000000E+00 0. -1.
<scales pt_clust_5="13000.00000" pt_clust_6="13000.00000" pt_clust_7="13000.00000" pt_clust_8="13000.00000" pt_clust_9="116.66946" pt_clust_10="13000.00000"></scales>
<clustering>
<clus scale="   80.406">  5  6 -1 -1</clus>
<clus scale="   90.100">  7  8 -1 -1</clus>
<clus scale="  116.669">  2  9  1 -1</clus>
<clus scale="  290.082">  1  5  2 -1</clus>
<clus scale="  366.914">  7 10 -1 -1</clus>
<clus scale="  116.669">  2  5  1 -1</clus>
</clustering>
</event>
<event>
10    4  0.2565852E-005  0.3647521E+03  0.7546771E-02  0.1104193E+00
          4   -1    0    0  502    0 -0.00000000000E+00  0.00000000000E+00  0.68168444727E+03  0.68168444727E+03  0.00000000000E+00 0. -1.
         21   -1    0    0  503  502  0.00000000000E+00 -0.00000000000E+00 -0.27592592261E+03  0.27592592261E+03  0.00000000000E+00 0.  1.
         24    2    1    2    0    0 -0.43363525928E+02  0.49405327964E+02  0.12741793170E+03  0.16515173806E+03  0.81966367829E+02 0.  0.
         23    2    1    2    0    0  0.14317598144E+03  0.54890188279E+02  0.10600445270E+03  0.20776136723E+03  0.91736292115E+02 0.  0.
        -11    1    3    3    0    0 -0.41409915263E+02  0.71623097638E+02  0.10206642470E+03  0.13138570793E+03  0.00000000000E+00 0.  1.
         12    1    3    3    0    0 -0.19536106646E+01 -0.22217769674E+02  0.25351506996E+02  0.33766030132E+02  0.00000000000E+00 0. -1.
        -13    1    4    4    0    0  0.85592312701E+02  0.55874647570E+02  0.19842230685E+02  0.10412364935E+03  0.00000000000E+00 0.  1.
         13    1    4    4    0    0  0.57583668737E+02 -0.98445929128E+00  0.86162222019E+02  0.10363771789E+03  0.00000000000E+00 0. -1.
         21    1    1    2  503  501  0.31512723634E+01 -0.30593099384E+02 -0.19434768462E+03  0.19676608134E+03  0.00000000000E+00 0.  1.
          3    1    1    2  501    0 -0.10296372787E+03 -0.73702416859E+02  0.36668382488E+03  0.38793118325E+03  0.00000000000E+00 0. -1.
<scales pt_clust_5="13000.00000" pt_clust_6="13000.00000" pt_clust_7="13000.00000" pt_clust_8="13000.00000" pt_clust_9="30.75497" pt_clust_10="13000.00000"></scales>
<clustering>
<clus scale="   30.755">  2  9  1 -1</clus>
<clus scale="   81.966">  5  6 -1 -1</clus>
<clus scale="   91.736">  7  8 -1 -1</clus>
<clus scale="  101.578">  1  5  2 -1</clus>
<clus scale="  141.339">  7 10 -1 -1</clus>
<clus scale="   30.755">  2  5  1 -1</clus>
</clustering>
</event>
<event>
10    4  0.2565852E-005  0.3021452E+03  0.7546771E-02  0.1106554E+00
         21   -1    0    0  503  502  0.00000000000E+00  0.00000000000E+00  0.18469765520E+03  0.18469765520E+03  0.00000000000E+00 0.  1.
          2   -1    0    0  502    0 -0.00000000000E+00 -0.00000000000E+00 -0.16753236844E+04  0.16753236844E+04  0.00000000000E+00 0. -1.
         24    2    1    2    0    0 -0.11152644029E+03 -0.13179287196E+03 -0.72325717520E+03  0.74766372218E+03  0.78055057503E+02 0.  0.
         23    2    1    2    0    0 -0.35365323215E+02  0.13767475271E+02 -0.15635029488E+03  0.18746896465E+03  0.96223430291E+02 0.  0.
        -11    1    3    3    0    0 -0.10760872416E+03 -0.72177278552E+02 -0.50888902417E+03  0.52512592392E+03  0.00000000000E+00 0.  1.
         12    1    3    3    0    0 -0.39177161251E+01 -0.59615593403E+02 -0.21436815103E+03  0.22253779826E+03  0.00000000000E+00 0. -1.
        -11    1    4    4    0    0  0.19335760628E+02  0.24754536931E+02 -0.11162931296E+03  0.11596448702E+03  0.00000000000E+00 0.  1.
         11    1    4    4    0    0 -0.54701083843E+02 -0.10987061661E+02 -0.44720981921E+02  0.71504477633E+02  0.00000000000E+00 0. -1.
         21    1    1    2  503  501  0.13855334634E+02  0.77476723108E+02  0.14026620914E+03  0.16083911946E+03  0.00000000000E+00 0.  1.
          1    1    1    2  501    0  0.13303642887E+03  0.40548673576E+02 -0.75128476825E+03  0.76404953330E+03  0.00000000000E+00 0. -1.
<scales pt_clust_5="13000.00000" pt_clust_6="13000.00000" pt_clust_7="13000.00000" pt_clust_8="13000.00000" pt_clust_9="78.70586" pt_clust_10="13000.00000"></scales>
<clustering>
<clus scale="   78.055">  5  6 -1 -1</clus>
<clus scale="   78.706">  1  9  2 -1</clus>
<clus scale="   96.223">  7  8 -1 -1</clus>
<clus scale="  146.366">  7 10 -1 -1</clus>
<clus scale="  168.191">  2  5  1 -1</clus>
<clus scale="   78.706">  1  5  2 -1</clus>
</clustering>
</event>
<event>
10    4  0.2565852E-005  0.2473214E+03  0.7546771E-02  0.1145447E+00
         21   -1    0    0  501  502  0.00000000000E+00  0.00000000000E+00  0.35710044821E+03  0.35710044821E+03  0.00000000000E+00 0. -1.
          2   -1    0    0  503    0 -0.00000000000E+00 -0.00000000000E+00 -0.54709350334E+03  0.54709350334E+03  0.00000000000E+00 0. -1.
         24    2    1    2    0    0  0.66528860414E+02  0.41671221209E+02 -0.20354078932E+03  0.23221774561E+03  0.79584222760E+02 0.  0.
         23    2    1    2    0    0  0.31785173906E+02 -0.44734160343E+02 -0.22329618602E+03  0.24722852879E+03  0.90825747307E+02 0.  0.
        -11    1    3    3    0    0  0.23932594995E+02 -0.20696068632E+02 -0.93853806455E+02  0.99043593160E+02  0.00000000000E+00 0.  1.
         12    1    3    3    0    0  0.42596265419E+02  0.62367289840E+02 -0.10968698287E+03  0.13317415245E+03  0.00000000000E+00 0. -1.
        -13    1    4    4    0    0  0.65932890221E+01  0.28192280353E+02 -0.62348278320E+02  0.68742882840E+02  0.00000000000E+00 0.  1.
         13    1    4    4    0    0  0.25191884884E+02 -0.72926440696E+02 -0.16094790770E+03  0.17848564595E+03  0.00000000000E+00 0. -1.
         21    1    1    2  503  502  0.17408252795E+02  0.35000780079E+02  0.29059678486E+03  0.29321424461E+03  0.00000000000E+00 0. -1.
          1    1    1    2  501    0 -0.11572228712E+03 -0.31937840944E+02 -0.53752864646E+02  0.13153343254E+03  0.00000000000E+00 0. -1.
<scales pt_clust_5="13000.00000" pt_clust_6="13000.00000" pt_clust_7="13000.00000" pt_clust_8="13000.00000" pt_clust_9="39.09094" pt_clust_10="13000.00000"></scales>
<clustering>
<clus scale="   39.091">  1  9  2 -1</clus>
<clus scale="   79.584">  5  6 -1 -1</clus>
<clus scale="   90.826">  7  8 -1 -1</clus>
<clus scale="  105.917">  7 10 -1 -1</clus>
<clus scale="  117.137">  2  5  1 -1</clus>
<clus scale="   39.091">  1  5  2 -1</clus>
</clustering>
</event>
<event>
10    4  0.2565852E-005  0.1433770E+04  0.7546771E-02  0.9371684E-01
          2   -1    0    0  502    0 -0.00000000000E+00  0.00000000000E+00  0.27915093115E+04  0.27915093115E+04  0.00000000000E+00 0. -1.
         21   -1    0    0  503  502  0.00000000000E+00 -0.00000000000E+00 -0.30780989604E+03  0.30780989604E+03  0.00000000000E+00 0. -1.
         24    2    1    2    0    0 -0.20619789905E+03 -0.15445835403E+03  0.75708727171E+03  0.80394239617E+03  0.82263495394E+02 0.  0.
         23    2    1    2    0    0 -0.30415982303E+03 -0.18573507895E+03  0.15946676063E+04  0.16364213362E+04  0.88877992128E+02 0.  0.
        -13    1    3    3    0    0 -0.12207347118E+03 -0.13577186165E+03  0.47069289300E+03  0.50486407111E+03  0.00000000000E+00 0.  1.
         14    1    3    3    0    0 -0.84124427873E+02 -0.18686492378E+02  0.28639437871E+03  0.29907832505E+03  0.00000000000E+00 0. -1.
        -13    1    4    4    0    0 -0.18465127396E+03 -0.15348034508E+03  0.11529732116E+04  0.11777094446E+04  0.00000000000E+00 0. -1.
         13    1    4    4    0    0 -0.11950854907E+03 -0.32254733864E+02  0.44169439471E+03  0.45871189157E+03  0.00000000000E+00 0.  1.
         21    1    1    2  503  501  0.18893418478E+02 -0.14157245220E+02 -0.23639025802E+02  0.33409465648E+02  0.00000000000E+00 0.  1.
          1    1    1    2  501    0  0.49146430360E+03  0.35435067820E+03  0.15558356323E+03  0.62554600950E+03  0.00000000000E+00 0. -1.
<scales pt_clust_5="13000.00000" pt_clust_6="13000.00000" pt_clust_7="13000.00000" pt_clust_8="13000.00000" pt_clust_9="23.60908" pt_clust_10="13000.00000"></scales>
<clustering>
<clus scale="   23.609">  2  9  1 -1</clus>
<clus scale="   82.263">  5  6 -1 -1</clus>
<clus scale="   88.878">  7  8 -1 -1</clus>
<clus scale="  269.925">  1  5  2 -1</clus>
<clus scale="  560.815">  7 10 -1 -1</clus>
<clus scale="   23.609">  2  5  1 -1</clus>
</clustering>
</event>
<event>
10    4  0.2565852E-005  0.4708397E+03  0.7546771E-02  0.1061630E+00
         21   -1    0    0  503  502  0.00000000000E+00  0.00000000000E+00  0.78385069656E+03  0.78385069656E+03  0.00000000000E+00 0. -1.
          2   -1    0    0  502    0 -0.00000000000E+00 -0.00000000000E+00 -0.31172816115E+03  0.31172816115E+03  0.00000000000E+00 0. -1.
         24    2    1    2    0    0 -0.50671246211E+02  0.88653833611E+02  0.12051149608E+03  0.17673554618E+03  0.79280232021E+02 0.  0.
         23    2    1    2    0    0 -0.10528496123E+03 -0.75269210913E+02 -0.21473526801E+03  0.26659688663E+03  0.90621672129E+02 0.  0.
        -13    1    3    3    0    0 -0.51201222257E+02  0.12285963058E+02  0.43799895926E+02  0.68490444093E+02  0.00000000000E+00 0.  1.
         14    1    3    3    0    0  0.52997604635E+00  0.76367870553E+02  0.76711600158E+02  0.10824510209E+03  0.00000000000E+00 0. -1.
        -11    1    4    4    0    0 -0.24969083839E+02 -0.62041912038E+02 -0.14394555162E+03  0.15872295306E+03  0.00000000000E+00 0.  1.
         11    1    4    4    0    0 -0.80315877393E+02 -0.13227298875E+02 -0.70789716395E+02  0.10787393357E+03  0.00000000000E+00 0. -1.
         21    1    1    2  503  501  0.20647759442E+01  0.61090597981E+02  0.42792916074E+03  0.43227270452E+03  0.00000000000E+00 0. -1.
          1    1    1    2  501    0  0.15389143150E+03 -0.74475220678E+02  0.13841714660E+03  0.21997372038E+03  0.00000000000E+00 0. -1.
<scales pt_clust_5="13000.00000" pt_clust_6="13000.00000" pt_clust_7="13000.00000" pt_clust_8="13000.00000" pt_clust_9="61.12548" pt_clust_10="13000.00000"></scales>
<clustering>
<clus scale="   61.125">  1  9  2 -1</clus>
<clus scale="   79.280">  5  6 -1 -1</clus>
<clus scale="   90.622">  7  8 -1 -1</clus>
<clus scale="  147.766">  2  5  1 -1</clus>
<clus scale="  150.479">  7 10 -1 -1</clus>
<clus scale="   61.125">  1  5  2 -1</clus>
</clustering>
</event>
<event>
10    4  0.2565852E-005  0.4876125E+03  0.7546771E-02  0.1019698E+00
          2   -1    0    0  502    0 -0.00000000000E+00  0.00000000000E+00  0.20013296838E+04  0.20013296838E+04  0.00000000000E+00 0. -1.
         21   -1    0    0  503  502  0.00000000000E+00 -0.00000000000E+00 -0.13194530483E+03  0.13194530483E+03  0.00000000000E+00 0. -1.
         24    2    1    2    0    0 -0.30451394335E+03  0.30242188572E+03  0.10690955662E+04  0.11547351489E+04  0.79121399326E+02 0.  0.
         23    2    1    2    0    0  0.78615659922E+02 -0.47293379229E+02  0.16364427226E+03  0.20815399561E+03  0.90175120410E+02 0.  0.
        -13    1    3    3    0    0 -0.47617449612E+02  0.38862667595E+02  0.92208269488E+02  0.11081558285E+03  0.00000000000E+00 0.  1.
         14    1    3    3    0    0 -0.25689649374E+03  0.26355921812E+03  0.97688729673E+03  0.10439195661E+04  0.00000000000E+00 0. -1.
        -13    1    4    4    0    0  0.56104699900E+02 -0.54253476243E+02  0.51371980898E+02  0.93435846744E+02  0.00000000000E+00 0.  1.
         13    1    4    4    0    0  0.22510960022E+02  0.69600970139E+01  0.11227229136E+03  0.11471814887E+03  0.00000000000E+00 0. -1.
         21    1    1    2  503  501 -0.26474451783E+02  0.27955938915E+02  0.13295482747E+02  0.40733290799E+02  0.00000000000E+00 0.  1.
          1    1    1    2  501    0  0.25237273521E+03 -0.28308444540E+03  0.62334905774E+03  0.72965255327E+03  0.00000000000E+00 0. -1.
<scales pt_clust_5="13000.00000" pt_clust_6="13000.00000" pt_clust_7="13000.00000" pt_clust_8="13000.00000" pt_clust_9="38.50235" pt_clust_10="13000.00000"></scales>
<clustering>
<clus scale="   38.502">  2  9  1 -1</clus>
<clus scale="   79.121">  5  6 -1 -1</clus>
<clus scale="   90.175">  7  8 -1 -1</clus>
<clus scale="  361.946">  7 10 -1 -1</clus>
<clus scale="  450.118">  1  5  2 -1</clus>
<clus scale="   38.502">  2  5  1 -1</clus>
</clustering>
</event>
<event>
10    4  0.2565852E-005  0.2880957E+03  0.7546771E-02  0.1107843E+00
          2   -1    0    0  503    0 -0.00000000000E+00  0.00000000000E+00  0.72177528632E+03  0.72177528632E+03  0.00000000000E+00 0. -1.
         21   -1    0    0  501  502  0.00000000000E+00 -0.00000000000E+00 -0.49807647401E+03  0.49807647401E+03  0.00000000000E+00 0. -1.
         24    2    1    2    0    0 -0.14944573630E+03  0.58552850977E+02  0.33660025678E+03  0.38155918717E+03  0.80778809073E+02 0.  0.
         23    2    1    2    0    0  0.16139901249E+03 -0.41835157614E+02  0.12102896168E+03  0.22522603475E+03  0.90988655987E+02 0.  0.
        -11    1    3    3    0    0 -0.47866795294E+02 -0.77601168789E+01  0.16091029782E+03  0.16805824422E+03  0.00000000000E+00 0.  1.
         12    1    3    3    0    0 -0.10157894101E+03  0.66312967856E+02  0.17568995895E+03  0.21350094295E+03  0.00000000000E+00 0. -1.
        -13    1    4    4    0    0  0.72684128462E+02  0.20270798808E+01  0.52322754599E+01  0.72900399791E+02  0.00000000000E+00 0. -1.
         13    1    4    4    0    0  0.88714884028E+02 -0.43862237494E+02  0.11579668622E+03  0.15232563496E+03  0.00000000000E+00 0.  1.
         21    1    1    2  503  502  0.39277466338E+01  0.94099441250E+02 -0.40102539638E+03  0.41193628218E+03  0.00000000000E+00 0. -1.
          1    1    1    2  501    0 -0.15881022820E+02 -0.11081713461E+03  0.16709499024E+03  0.20113025623E+03  0.00000000000E+00 0. -1.
<scales pt_clust_5="13000.00000" pt_clust_6="13000.00000" pt_clust_7="13000.00000" pt_clust_8="13000.00000" pt_clust_9="94.18138" pt_clust_10="13000.00000"></scales>
<clustering>
<clus scale="   80.779">  5  6 -1 -1</clus>
<clus scale="   90.989">  7  8 -1 -1</clus>
<clus scale="   94.181">  2  9  1 -1</clus>
<clus scale="   94.556">  7 10 -1 -1</clus>
<clus scale="  187.719">  1  5  2 -1</clus>
<clus scale="   94.181">  2  5  1 -1</clus>
</clustering>
</event>
<event>
10    4  0.2565852E-005  0.4729237E+03  0.7546771E-02  0.1070546E+00
          4   -1    0    0  502    0 -0.00000000000E+00  0.00000000000E+00  0.70826702526E+03  0.70826702526E+03  0.00000000000E+00 0. -1.
         21   -1    0    0  503  502  0.00000000000E+00 -0.00000000000E+00 -0.19262093626E+03  0.19262093626E+03  0.00000000000E+00 0.  1.
         24    2    1    2    0    0 -0.69166848762E+02 -0.39178476174E+02  0.20098749775E+03  0.23104480674E+03  0.81650000042E+02 0.  0.
         23    2    1    2    0    0  0.21818816379E+02 -0.20178050775E+02 -0.92941547338E+02  0.13389114279E+03  0.91681472585E+02 0.  0.
        -11    1    3    3    0    0 -0.31770311633E+02  0.23500737066E+02  0.88911802668E+02  0.97298232243E+02  0.00000000000E+00 0.  1.
         12    1    3    3    0    0 -0.37396537129E+02 -0.62679213240E+02  0.11207569508E+03  0.13374657449E+03  0.00000000000E+00 0. -1.
        -13    1    4    4    0    0  0.46429062485E+02  0.18936380003E+02 -0.46900257206E+02  0.68657690442E+02  0.00000000000E+00 0.  1.
         13    1    4    4    0    0 -0.24610246105E+02 -0.39114430778E+02 -0.46041290132E+02  0.65233452350E+02  0.00000000000E+00 0. -1.
         21    1    1    2  503  501 -0.19614471484E+02  0.37339297405E+02 -0.54270679390E+02  0.68733232601E+02  0.00000000000E+00 0.  1.
          3    1    1    2  501    0  0.66962503867E+02  0.22017229544E+02  0.46187081798E+03  0.46721877940E+03  0.00000000000E+00 0. -1.
<scales pt_clust_5="13000.00000" pt_clust_6="13000.00000" pt_clust_7="13000.00000" pt_clust_8="13000.00000" pt_clust_9="42.17761" pt_clust_10="13000.00000"></scales>
<clustering>
<clus scale="   42.178">  2  9  1 -1</clus>
<clus scale="   81.650">  5  6 -1 -1</clus>
<clus scale="   91.681">  7  8 -1 -1</clus>
<clus scale="   70.352">  7 10 -1 -1</clus>
<clus scale="  113.951">  1  5  2 -1</clus>
<clus scale="   42.178">  2  5  1 -1</clus>
</clustering>
</event>
<event>
10    4  0.2565852E-005  0.4171980E+03  0.7546771E-02  0.1058431E+00
         21   -1    0    0  503  502  0.00000000000E+00  0.00000000000E+00  0.40255642553E+03  0.40255642553E+03  0.00000000000E+00 0. -1.
          2   -1    0    0  502    0 -0.00000000000E+00 -0.00000000000E+00 -0.32311168860E+03  0.32311168860E+03  0.00000000000E+00 0. -1.
         24    2    1    2    0    0  0.61335884990E+02 -0.20176976450E+03 -0.60196534298E+02  0.23341939917E+03  0.79924117227E+02 0.  0.
         23    2    1    2    0    0 -0.40866484666E+02 -0.52077589142E+02  0.10566604008E+03  0.15440206144E+03  0.91063382813E+02 0.  0.
        -11    1    3    3    0    0  0.21568790944E+02 -0.16294430086E+03 -0.66860408648E+02  0.17744399728E+03  0.00000000000E+00 0.  1.
         12    1    3    3    0    0  0.39767094045E+02 -0.38825463632E+02  0.66638743495E+01  0.55975401887E+02  0.00000000000E+00 0. -1.
        -13    1    4    4    0    0 -0.64705213484E+02 -0.46458970315E+02  0.10233770709E+03  0.12968502946E+03  0.00000000000E+00 0. -1.
         13    1    4    4    0    0  0.23838728818E+02 -0.56186188272E+01  0.33283329970E+01  0.24717031976E+02  0.00000000000E+00 0.  1.
         21    1    1    2  503  501 -0.12279916641E+02 -0.35073793923E+02  0.31630172455E+02  0.48799950639E+02  0.00000000000E+00 0. -1.
          1    1    1    2  501    0 -0.81894836827E+01  0.28892114756E+03  0.23450586924E+01  0.28904670289E+03  0.00000000000E+00 0. -1.
<scales pt_clust_5="13000.00000" pt_clust_6="13000.00000" pt_clust_7="13000.00000" pt_clust_8="13000.00000" pt_clust_9="37.16137" pt_clust_10="13000.00000"></scales>
<clustering>
<clus scale="   37.161">  1  9  2 -1</clus>
<clus scale="   79.924">  5  6 -1 -1</clus>
<clus scale="   91.063">  7  8 -1 -1</clus>
<clus scale="  232.299">  2  5  1 -1</clus>
<clus scale="  111.839">  7 10 -1 -1</clus>
<clus scale="   37.161">  1  5  2 -1</clus>
</clustering>
</event>
<event>
10    4  0.2565852E-005  0.3756579E+03  0.7546771E-02  0.1092232E+00
          2   -1    0    0  502    0 -0.00000000000E+00  0.00000000000E+00  0.47458343719E+03  0.47458343719E+03  0.00000000000E+00 0. -1.
         21   -1    0    0  503  502  0.00000000000E+00 -0.00000000000E+00 -0.23098809296E+03  0.23098809296E+03  0.00000000000E+00 0. -1.
         24    2    1    2    0    0 -0.10165115824E+03  0.50909332714E+02  0.70479966961E+02  0.15568560185E+03  0.79660923620E+02 0.  0.
         23    2    1    2    0    0 -0.10844058715E+03 -0.62133927552E+02  0.42712751668E+02  0.16082212274E+03  0.91757234668E+02 0.  0.
        -13    1    3    3    0    0 -0.51679009460E+02  0.29263005813E+02  0.80779227355E+02  0.10026129413E+03  0.00000000000E+00 0.  1.
         14    1    3    3    0    0 -0.49972148779E+02  0.21646326901E+02 -0.10299260394E+02  0.55424307723E+02  0.00000000000E+00 0. -1.
        -11    1    4    4    0    0 -0.37076594591E+02 -0.40638364174E+02  0.62943175619E+02  0.83594221489E+02  0.00000000000E+00 0.  1.
         11    1    4    4    0    0 -0.71363992559E+02 -0.21495563378E+02 -0.20230423951E+02  0.77227901254E+02  0.00000000000E+00 0. -1.
         21    1    1    2  503  501  0.27331181126E+02 -0.60965331267E+02 -0.77951204255E+02  0.10266525860E+03  0.00000000000E+00 0. -1.
          1    1    1    2  501    0  0.18276056426E+03  0.72189926105E+02  0.20835382985E+03  0.28639854695E+03  0.00000000000E+00 0. -1.
<scales pt_clust_5="13000.00000" pt_clust_6="13000.00000" pt_clust_7="13000.00000" pt_clust_8="13000.00000" pt_clust_9="66.81141" pt_clust_10="13000.00000"></scales>
<clustering>
<clus scale="   66.811">  2  9  1 -1</clus>
<clus scale="   79.661">  5  6 -1 -1</clus>
<clus scale="   91.757">  7  8 -1 -1</clus>
<clus scale="  126.954">  1  5  2 -1</clus>
<clus scale="  148.350">  7 10 -1 -1</clus>
<clus scale="   66.811">  2  5  1 -1</clus>
</clustering>
</event>
<event>
10    4  0.2565852E-005  0.4395488E+03  0.7546771E-02  0.1048074E+00
          2   -1    0    0  502    0 -0.00000000000E+00  0.00000000000E+00  0.21772893439E+04  0.21772893439E+04  0.00000000000E+00 0. -1.
         21   -1    0    0  503  502  0.00000000000E+00 -0.00000000000E+00 -0.13287020986E+03  0.13287020986E+03  0.00000000000E+00 0.  1.
         24    2    1    2    0    0  0.24933301592E+03  0.15279577363E+03  0.96280494366E+03  0.10094272346E+04  0.80227683003E+02 0.  0.
         23    2    1    2    0    0  0.57347427816E+02  0.16353918247E+02  0.13045245053E+03  0.17032459815E+03  0.91850142994E+02 0.  0.
        -13    1    3    3    0    0  0.20152958490E+03  0.92243867898E+02  0.63170232474E+03  0.66945569818E+03  0.00000000000E+00 0.  1.
         14    1    3    3    0    0  0.47803431024E+02  0.60551905732E+02  0.33110261893E+03  0.33997153640E+03  0.00000000000E+00 0. -1.
        -13    1    4    4    0    0  0.11420158807E+02  0.25783176229E+02  0.11867975463E+03  0.12198391846E+03  0.00000000000E+00 0. -1.
         13    1    4    4    0    0  0.45927269010E+02 -0.94292579826E+01  0.11772695903E+02  0.48340679697E+02  0.00000000000E+00 0.  1.
         21    1    1    2  503  501 -0.52597771898E+02 -0.11105325710E+03 -0.20339110684E+02  0.12455131852E+03  0.00000000000E+00 0.  1.
          1    1    1    2  501    0 -0.25408267184E+03 -0.58096434774E+02  0.97150085050E+03  0.10058564025E+04  0.00000000000E+00 0. -1.
<scales pt_clust_5="13000.00000" pt_clust_6="13000.00000" pt_clust_7="13000.00000" pt_clust_8="13000.00000" pt_clust_9="122.87942" pt_clust_10="13000.00000"></scales>
<clustering>
<clus scale="   80.228">  5  6 -1 -1</clus>
<clus scale="   91.850">  7  8 -1 -1</clus>
<clus scale="  122.879">  2  9  1 -1</clus>
<clus scale="  266.432">  1  5  2 -1</clus>
<clus scale="   70.232">  7 10 -1 -1</clus>
<clus scale="  122.879">  2  5  1 -1</clus>
</clustering>
</event>
<event>
10    4  0.2565852E-005  0.4673991E+03  0.7546771E-02  0.1039449E+00
          2   -1    0    0  502    0 -0.00000000000E+00  0.00000000000E+00  0.63909309191E+03  0.63909309191E+03  0.00000000000E+00 0. -1.
         21   -1    0    0  503  502  0.00000000000E+00 -0.00000000000E+00 -0.30924668894E+03  0.30924668894E+03  0.00000000000E+00 0.  1.
         24    2    1    2    0    0 -0.22598135272E+03  0.13632919482E+03  0.72158398330E+02  0.28513923420E+03  0.80276567504E+02 0.  0.
         23    2    1    2    0    0  0.27025335520E+02 -0.21596408667E+01 -0.55324903393E+02  0.11077773462E+03  0.92064264199E+02 0.  0.
        -13    1    3    3    0    0 -0.46770116874E+02  0.10273554310E+02  0.42521585808E+02  0.64039636243E+02  0.00000000000E+00 0.  1.
         14    1    3    3    0    0 -0.17921123585E+03  0.12605564051E+03  0.29636812522E+02  0.22109959795E+03  0.00000000000E+00 0. -1.
        -11    1    4    4    0    0  0.56465363160E+02  0.17087327515E+01 -0.57999808405E+02  0.80964404398E+02  0.00000000000E+00 0.  1.
         11    1    4    4    0    0 -0.29440027640E+02 -0.38683736182E+01  0.26749050119E+01  0.29813330218E+02  0.00000000000E+00 0. -1.
         21    1    1    2  503  501 -0.94267329466E+01  0.20567315730E+02 -0.79054006193E+02  0.82227815643E+02  0.00000000000E+00 0.  1.
          1    1    1    2  501    0  0.20838275015E+03 -0.15473686968E+03  0.39206691423E+03  0.47019499639E+03  0.00000000000E+00 0. -1.
<scales pt_clust_5="13000.00000" pt_clust_6="13000.00000" pt_clust_7="13000.00000" pt_clust_8="13000.00000" pt_clust_9="22.62472" pt_clust_10="13000.00000"></scales>
<clustering>
<clus scale="   22.625">  2  9  1 -1</clus>
<clus scale="   80.277">  5  6 -1 -1</clus>
<clus scale="   92.064">  7  8 -1 -1</clus>
<clus scale="  256.170">  7 10 -1 -1</clus>
<clus scale="  284.263">  1  5  2 -1</clus>
<clus scale="   22.625">  2  5  1 -1</clus>
</clustering>
</event>
<event>
10    4  0.2565852E-005  0.3443106E+03  0.7546771E-02  0.1097422E+00
          2   -1    0    0  502    0 -0.00000000000E+00  0.00000000000E+00  0.81468022474E+03  0.81468022474E+03  0.00000000000E+00 0. -1.
         21   -1    0    0  503  502  0.00000000000E+00 -0.00000000000E+00 -0.32424437772E+03  0.32424437772E+03  0.00000000000E+00 0. -1.
         24    2    1    2    0    0  0.54081306944E+02  0.97915826034E+02  0.55816345612E+03  0.57735500448E+03  0.96333071674E+02 0.  0.
         23    2    1    2    0    0 -0.50142574427E+02  0.46521572198E+02  0.16796593672E+03  0.20232156371E+03  0.89682354962E+02 0.  0.
        -11    1    3    3    0    0 -0.19952633590E+02  0.34209828045E+02  0.79378897017E+02  0.88709803369E+02  0.00000000000E+00 0.  1.
         12    1    3    3    0    0  0.74033940534E+02  0.63705997989E+02  0.47878455910E+03  0.48864520111E+03  0.00000000000E+00 0. -1.
        -11    1    4    4    0    0  0.41873544335E+01  0.25472002299E+02  0.13054905826E+03  0.13307672016E+03  0.00000000000E+00 0.  1.
         11    1    4    4    0    0 -0.54329928860E+02  0.21049569900E+02  0.37416878466E+02  0.69244843541E+02  0.00000000000E+00 0. -1.
         21    1    1    2  503  501 -0.89437166672E+02 -0.28385764882E+02 -0.18321668282E+03  0.20584730091E+03  0.00000000000E+00 0. -1.
          1    1    1    2  501    0  0.85498434155E+02 -0.11605163335E+03 -0.52476863001E+02  0.15340073336E+03  0.00000000000E+00 0. -1.
<scales pt_clust_5="13000.00000" pt_clust_6="13000.00000" pt_clust_7="13000.00000" pt_clust_8="13000.00000" pt_clust_9="93.83367" pt_clust_10="13000.00000"></scales>
<clustering>
<clus scale="   89.682">  7  8 -1 -1</clus>
<clus scale="   93.834">  2  9  1 -1</clus>
<clus scale="   96.333">  5  6 -1 -1</clus>
<clus scale="  139.337">  7 10 -1 -1</clus>
<clus scale="  143.922">  1  5  2 -1</clus>
<clus scale="   93.834">  2  5  1 -1</clus>
</clustering>
</event>
<event>
10    4  0.2565852E-005  0.2675329E+03  0.7546771E-02  0.1150443E+00
         -1   -1    0    0    0  501 -0.00000000000E+00  0.00000000000E+00  0.28482080955E+03  0.28482080955E+03  0.00000000000E+00 0.  1.
         21   -1    0    0  503  502  0.00000000000E+00 -0.00000000000E+00 -0.18659176109E+03  0.18659176109E+03  0.00000000000E+00 0. -1.
         24    2    1    2    0    0  0.19491939782E+02  0.26112176156E+02  0.63555964795E+01  0.82944127505E+02  0.76010217872E+02 0.  0.
         23    2    1    2    0    0 -0.31542353620E+02  0.62994946950E+02 -0.24632984340E+02  0.12165788960E+03  0.96075880279E+02 0.  0.
        -11    1    3    3    0    0 -0.11216327004E+01 -0.20056304857E+02 -0.17863494081E+02  0.26881552135E+02  0.00000000000E+00 0.  1.
         12    1    3    3    0    0  0.20613572482E+02  0.46168481012E+02  0.24219090561E+02  0.56062575369E+02  0.00000000000E+00 0. -1.
        -11    1    4    4    0    0  0.29486003781E+02 -0.24370597420E+01 -0.80102612494E+01  0.30651720415E+02  0.00000000000E+00 0.  1.
         11    1    4    4    0    0 -0.61028357401E+02  0.65432006692E+02 -0.16622723091E+02  0.91006169185E+02  0.00000000000E+00 0. -1.
         21    1    1    2  503  501  0.23965944188E+02 -0.33746719755E+02 -0.64786239001E+02  0.76879544347E+02  0.00000000000E+00 0.  1.
         -2    1    1    2    0  502 -0.11915530349E+02 -0.55360403350E+02  0.18129267532E+03  0.18993100918E+03  0.00000000000E+00 0.  1.
<scales pt_clust_5="13000.00000" pt_clust_6="13000.00000" pt_clust_7="13000.00000" pt_clust_8="13000.00000" pt_clust_9="41.39091" pt_clust_10="13000.00000"></scales>
<clustering>
<clus scale="   41.391">  2  9  1 -1</clus>
<clus scale="   76.010">  5  6 -1 -1</clus>
<clus scale="   82.176">  1  5  2 -1</clus>
<clus scale="   96.076">  7  8 -1 -1</clus>
<clus scale="   45.880">  7 10 -1 -1</clus>
<clus scale="   41.391">  2  5  1 -1</clus>
</clustering>
</event>
<event>
10    4  0.2565852E-005  0.3800695E+03  0.7546771E-02  0.1090607E+00
         21   -1    0    0  501  502  0.00000000000E+00  0.00000000000E+00  0.23168132712E+03  0.23168132712E+03  0.00000000000E+00 0.  1.
          2   -1    0    0  503    0 -0.00000000000E+00 -0.00000000000E+00 -0.41595814070E+03  0.41595814070E+03  0.00000000000E+00 0. -1.
         24    2    1    2    0    0  0.73638949084E+02  0.61218997921E+02 -0.17740667960E+03  0.21778552321E+03  0.82382908571E+02 0.  0.
         23    2    1    2    0    0 -0.10850732261E+03  0.10664939497E+03 -0.62948670364E+02  0.18794522405E+03  0.90625270410E+02 0.  0.
        -11    1    3    3    0    0  0.27583024007E+02  0.33621576070E+02 -0.15253488698E+03  0.15861313104E+03  0.00000000000E+00 0.  1.
         12    1    3    3    0    0  0.46055925076E+02  0.27597421852E+02 -0.24871792618E+02  0.59172392173E+02  0.00000000000E+00 0. -1.
        -11    1    4    4    0    0 -0.56548550068E+02  0.64569764805E+00 -0.35407738599E+02  0.66722285579E+02  0.00000000000E+00 0.  1.
         11    1    4    4    0    0 -0.51958772540E+02  0.10600369732E+03 -0.27540931765E+02  0.12122293847E+03  0.00000000000E+00 0. -1.
         21    1    1    2  503  502  0.34648187219E+01  0.27766661858E+02  0.31686883366E+02  0.42273526668E+02  0.00000000000E+00 0.  1.
          1    1    1    2  501    0  0.31403554802E+02 -0.19563505475E+03  0.24391653016E+02  0.19963519389E+03  0.00000000000E+00 0. -1.
<scales pt_clust_5="13000.00000" pt_clust_6="13000.00000" pt_clust_7="13000.00000" pt_clust_8="13000.00000" pt_clust_9="27.98200" pt_clust_10="13000.00000"></scales>
<clustering>
<clus scale="   27.982">  1  9  2 -1</clus>
<clus scale="   82.383">  5  6 -1 -1</clus>
<clus scale="   90.625">  7  8 -1 -1</clus>
<clus scale="  127.950">  2  5  1 -1</clus>
<clus scale="  167.512">  7 10 -1 -1</clus>
<clus scale="   27.982">  1  5  2 -1</clus>
</clustering>
</event>
<event>
10    4  0.2565852E-005  0.2073302E+03  0.7546771E-02  0.1176005E+00
          2   -1    0    0  502    0 -0.00000000000E+00  0.00000000000E+00  0.17290740405E+04  0.17290740405E+04  0.00000000000E+00 0. -1.
         21   -1    0    0  503  502  0.00000000000E+00 -0.00000000000E+00 -0.63109777562E+02  0.63109777562E+02  0.00000000000E+00 0.  1.
         24    2    1    2    0    0  0.46321652431E+02 -0.45676843896E+02  0.13161377440E+04  0.13197851271E+04  0.73363144060E+02 0.  0.
         23    2    1    2    0    0  0.42797693675E+02  0.13842777662E+02  0.91509484225E+02  0.13527300090E+03  0.88890573133E+02 0.  0.
        -11    1    3    3    0    0  0.85973831662E+00 -0.29871658080E+02  0.16787824573E+03  0.17051733195E+03  0.00000000000E+00 0.  1.
         12    1    3    3    0    0  0.45461914114E+02 -0.15805185815E+02  0.11482594983E+04  0.11492677951E+04  0.00000000000E+00 0. -1.
        -13    1    4    4    0    0  0.13712781408E+02 -0.34120760897E+02  0.61503634876E+02  0.71658661731E+02  0.00000000000E+00 0.  1.
         13    1    4    4    0    0  0.29084912266E+02  0.47963538559E+02  0.30005849350E+02  0.63614339169E+02  0.00000000000E+00 0. -1.
         21    1    1    2  503  501 -0.32195665949E+02 -0.19742617021E+02 -0.23865172583E+02  0.44675253722E+02  0.00000000000E+00 0.  1.
          1    1    1    2  501    0 -0.56923680157E+02  0.51576683254E+02  0.28218220731E+03  0.29245043638E+03  0.00000000000E+00 0. -1.
<scales pt_clust_5="13000.00000" pt_clust_6="13000.00000" pt_clust_7="13000.00000" pt_clust_8="13000.00000" pt_clust_9="37.76681" pt_clust_10="13000.00000"></scales>
<clustering>
<clus scale="   37.767">  2  9  1 -1</clus>
<clus scale="   73.363">  5  6 -1 -1</clus>
<clus scale="   88.891">  7  8 -1 -1</clus>
<clus scale="   78.966">  7 10 -1 -1</clus>
<clus scale="   97.700">  1  5  2 -1</clus>
<clus scale="   37.767">  2  5  1 -1</clus>
</clustering>
</event>
<event>
10    4  0.2565852E-005  0.2151237E+03  0.7546771E-02  0.1157134E+00
          2   -1    0    0  503    0 -0.00000000000E+00  0.00000000000E+00  0.43915538949E+03  0.43915538949E+03  0.00000000000E+00 0. -1.
         21   -1    0    0  501  502  0.00000000000E+00 -0.00000000000E+00 -0.93668224954E+02  0.93668224954E+02  0.00000000000E+00 0.  1.
         24    2    1    2    0    0  0.34218313934E+02  0.83091395825E+02  0.37533074397E+02  0.12587214205E+03  0.79749554238E+02 0.  0.
         23    2    1    2    0    0 -0.69551989974E+02 -0.50803853269E+02  0.88122075498E+02  0.15345919440E+03  0.91464273572E+02 0.  0.
        -13    1    3    3    0    0  0.35922264378E+01  0.44715571245E+02 -0.20950937978E+02  0.49510889759E+02  0.00000000000E+00 0.  1.
         14    1    3    3    0    0  0.30626087496E+02  0.38375824580E+02  0.58484012375E+02  0.76361252288E+02  0.00000000000E+00 0. -1.
        -13    1    4    4    0    0 -0.78046050285E+02 -0.69740982083E+02  0.76773334546E+02  0.12980421967E+03  0.00000000000E+00 0.  1.
         13    1    4    4    0    0  0.84940603112E+01  0.18937128815E+02  0.11348740952E+02  0.23654974730E+02  0.00000000000E+00 0. -1.
         21    1    1    2  503  502  0.16312281737E+02  0.31676184253E+02  0.16079006864E+02  0.39089712790E+02  0.00000000000E+00 0. -1.
          1    1    1    2  501    0  0.19021394303E+02 -0.63963726809E+02  0.20375300778E+03  0.21440256520E+03  0.00000000000E+00 0. -1.
<scales pt_clust_5="13000.00000" pt_clust_6="13000.00000" pt_clust_7="13000.00000" pt_clust_8="13000.00000" pt_clust_9="35.62964" pt_clust_10="13000.00000"></scales>
<clustering>
<clus scale="   35.630">  2  9  1 -1</clus>
<clus scale="   79.750">  5  6 -1 -1</clus>
<clus scale="   91.464">  7  8 -1 -1</clus>
<clus scale="   65.085">  7 10 -1 -1</clus>
<clus scale="  135.026">  1  5  2 -1</clus>
<clus scale="   35.630">  2  5  1 -1</clus>
</clustering>
</event>
<event>
10    4  0.2565852E-005  0.3831605E+03  0.7546771E-02  0.1058995E+00
         21   -1    0    0  503  502  0.00000000000E+00  0.00000000000E+00  0.49409193409E+03  0.49409193409E+03  0.00000000000E+00 0. -1.
          2   -1    0    0  502    0 -0.00000000000E+00 -0.00000000000E+00 -0.10202980569E+04  0.10202980569E+04  0.00000000000E+00 0. -1.
         24    2    1    2    0    0 -0.23869931565E+03 -0.16537514421E+02 -0.86773965813E+02  0.26780629945E+03  0.83304502923E+02 0.  0.
         23    2    1    2    0    0  0.45435189643E+02  0.14565276836E+02 -0.11260382331E+03  0.15909884770E+03  0.10176599908E+03 0.  0.
        -11    1    3    3    0    0 -0.77279152585E+02 -0.25922673952E+02  0.53941902263E+01  0.81689348983E+02  0.00000000000E+00 0.  1.
         12    1    3    3    0    0 -0.16142016306E+03  0.93851595315E+01 -0.92168156040E+02  0.18611695047E+03  0.00000000000E+00 0. -1.
        -13    1    4    4    0    0  0.53504538261E+02  0.37843182495E+02 -0.28505575675E+02  0.71466145275E+02  0.00000000000E+00 0.  1.
         13    1    4    4    0    0 -0.80693486176E+01 -0.23277905659E+02 -0.84098247633E+02  0.87632702423E+02  0.00000000000E+00 0. -1.
         21    1    1    2  503  501  0.38461669610E+01 -0.22563194631E+03  0.31101491260E+03  0.38425882430E+03  0.00000000000E+00 0. -1.
          1    1    1    2  501    0  0.18941795904E+03  0.22760418389E+03 -0.63784324623E+03  0.70322601950E+03  0.00000000000E+00 0. -1.
<scales pt_clust_5="13000.00000" pt_clust_6="13000.00000" pt_clust_7="13000.00000" pt_clust_8="13000.00000" pt_clust_9="225.66473" pt_clust_10="13000.00000"></scales>
<clustering>
<clus scale="   83.305">  5  6 -1 -1</clus>
<clus scale="  101.766">  7  8 -1 -1</clus>
<clus scale="  225.665">  1  9  2 -1</clus>
<clus scale="  260.036">  7 10 -1 -1</clus>
<clus scale="  295.162">  2  5  1 -1</clus>
<clus scale="  225.665">  1  5  2 -1</clus>
</clustering>
</event>
<event>
10    4  0.2565852E-005  0.2148787E+03  0.7546771E-02  0.1154479E+00
         21   -1    0    0  501  502  0.00000000000E+00  0.00000000000E+00  0.79067507472E+02  0.79067507472E+02  0.00000000000E+00 0.  1.
          2   -1    0    0  503    0 -0.00000000000E+00 -0.00000000000E+00 -0.56079680581E+03  0.56079680581E+03  0.00000000000E+00 0. -1.
         24    2    1    2    0    0 -0.60561905510E+02 -0.11747380179E+03 -0.29620913871E+03  0.33355462311E+03  0.77788136900E+02 0.  0.
         23    2    1    2    0    0  0.58821277028E+02  0.11304614528E+03 -0.98084797382E+02  0.18439792666E+03  0.90236324653E+02 0.  0.
        -11    1    3    3    0    0 -0.62261867396E+02 -0.42121595265E+02 -0.17972604164E+03  0.19481329257E+03  0.00000000000E+00 0.  1.
         12    1    3    3    0    0  0.16999618869E+01 -0.75352206525E+02 -0.11648309707E+03  0.13874133055E+03  0.00000000000E+00 0. -1.
        -13    1    4    4    0    0  0.65454779582E+02  0.47115421672E+02 -0.22188511360E+02  0.83645210059E+02  0.00000000000E+00 0.  1.
         13    1    4    4    0    0 -0.66335025540E+01  0.65930723604E+02 -0.75896286021E+02  0.10075271660E+03  0.00000000000E+00 0. -1.
         21    1    1    2  503  502  0.31256651539E+01  0.42273795142E+02 -0.25958122238E+02  0.49705811014E+02  0.00000000000E+00 0.  1.
          1    1    1    2  501    0 -0.13850366720E+01 -0.37846138628E+02 -0.61477240010E+02  0.72205952489E+02  0.00000000000E+00 0. -1.
<scales pt_clust_5="13000.00000" pt_clust_6="13000.00000" pt_clust_7="13000.00000" pt_clust_8="13000.00000" pt_clust_9="42.38919" pt_clust_10="13000.00000"></scales>
<clustering>
<clus scale="   42.389">  1  9  2 -1</clus>
<clus scale="   77.788">  5  6 -1 -1</clus>
<clus scale="   90.236">  7  8 -1 -1</clus>
<clus scale="   34.490">  7 10 -1 -1</clus>
<clus scale="  144.195">  2  5  1 -1</clus>
<clus scale="   42.389">  1  5  2 -1</clus>
</clustering>
</event>
<event>
10    4  0.2565852E-005  0.3722483E+03  0.7546771E-02  0.1066620E+00
         21   -1    0    0  501  502  0.00000000000E+00  0.00000000000E+00  0.33808612155E+03  0.33808612155E+03  0.00000000000E+00 0. -1.
         -1   -1    0    0    0  501 -0.00000000000E+00 -0.00000000000E+00 -0.47694658980E+03  0.47694658980E+03  0.00000000000E+00 0.  1.
         24    2    1    2    0    0  0.22353261457E+03 -0.84716687221E+02 -0.13673217469E+03  0.28712711520E+03  0.81256050955E+02 0.  0.
         23    2    1    2    0    0 -0.14441292137E+03 -0.60018594268E+02 -0.61500196201E+02  0.19113644103E+03  0.91068882934E+02 0.  0.
        -13    1    3    3    0    0  0.42216215743E+02  0.48384970682E+01 -0.53796554544E+02  0.68554279271E+02  0.00000000000E+00 0.  1.
         14    1    3    3    0    0  0.18131639883E+03 -0.89555184289E+02 -0.82935620148E+02  0.21857283593E+03  0.00000000000E+00 0. -1.
        -11    1    4    4    0    0 -0.35427132488E+02 -0.54830228781E+02  0.12077988553E+01  0.65290845319E+02  0.00000000000E+00 0.  1.
         11    1    4    4    0    0 -0.10898578889E+03 -0.51883654871E+01 -0.62707995057E+02  0.12584559571E+03  0.00000000000E+00 0. -1.
         21    1    1    2  503  502  0.10805706297E+02 -0.36581875997E+02  0.11965689196E+03  0.12558968403E+03  0.00000000000E+00 0. -1.
         -2    1    1    2    0  503 -0.89925399496E+02  0.18131715749E+03 -0.60284989321E+02  0.21117947109E+03  0.00000000000E+00 0.  1.
<scales pt_clust_5="13000.00000" pt_clust_6="13000.00000" pt_clust_7="13000.00000" pt_clust_8="13000.00000" pt_clust_9="38.14442" pt_clust_10="13000.00000"></scales>
<clustering>
<clus scale="   38.144">  1  9  2 -1</clus>
<clus scale="   81.256">  5  6 -1 -1</clus>
<clus scale="   91.069">  7  8 -1 -1</clus>
<clus scale="  189.249">  7 10 -1 -1</clus>
<clus scale="  260.332">  2  5  1 -1</clus>
<clus scale="   38.144">  1  5  2 -1</clus>
</clustering>
</event>
<event>
10    4  0.2565852E-005  0.3272710E+03  0.7546771E-02  0.1102985E+00
         -1   -1    0    0    0  501 -0.00000000000E+00  0.00000000000E+00  0.84763954074E+03  0.84763954074E+03  0.00000000000E+00 0.  1.
         21   -1    0    0  503  502  0.00000000000E+00 -0.00000000000E+00 -0.20265498675E+03  0.20265498675E+03  0.00000000000E+00 0. -1.
         24    2    1    2    0    0  0.92739985623E+02 -0.81084059822E+02  0.32850493025E+03  0.36002417929E+03  0.80787318209E+02 0.  0.
         23    2    1    2    0    0  0.38565277480E+02 -0.51965032742E+02  0.31130762180E+03  0.32902246771E+03  0.84591392092E+02 0.  0.
        -13    1    3    3    0    0  0.57400376357E+02 -0.42538004403E+02  0.85331027284E+02  0.11129092165E+03  0.00000000000E+00 0.  1.
         14    1    3    3    0    0  0.35339609266E+02 -0.38546055419E+02  0.24317390297E+03  0.24873325764E+03  0.00000000000E+00 0. -1.
        -13    1    4    4    0    0 -0.12572640283E+02 -0.27982700438E+02  0.33062605252E+02  0.45102535112E+02  0.00000000000E+00 0. -1.
         13    1    4    4    0    0  0.51137917763E+02 -0.23982332303E+02  0.27824501655E+03  0.28391993260E+03  0.00000000000E+00 0.  1.
         21    1    1    2  503  501 -0.24883582204E+02 -0.99214979110E+01 -0.13303791823E+03  0.13570820340E+03  0.00000000000E+00 0. -1.
         -2    1    1    2    0  502 -0.10642168090E+03  0.14297059047E+03  0.13820992017E+03  0.22553967709E+03  0.00000000000E+00 0.  1.
<scales pt_clust_5="13000.00000" pt_clust_6="13000.00000" pt_clust_7="13000.00000" pt_clust_8="13000.00000" pt_clust_9="26.78859" pt_clust_10="13000.00000"></scales>
<clustering>
<clus scale="   26.789">  2  9  1 -1</clus>
<clus scale="   80.787">  5  6 -1 -1</clus>
<clus scale="   84.591">  7  8 -1 -1</clus>
<clus scale="  145.073">  1  5  2 -1</clus>
<clus scale="  137.951">  7 10 -1 -1</clus>
<clus scale="   26.789">  2  5  1 -1</clus>
</clustering>
</event>
<event>
10    4  0.2565852E-005  0.2897199E+03  0.7546771E-02  0.1116811E+00
          2   -1    0    0  502    0 -0.00000000000E+00  0.00000000000E+00  0.16649917236E+03  0.16649917236E+03  0.00000000000E+00 0. -1.
         21   -1    0    0  503  502  0.00000000000E+00 -0.00000000000E+00 -0.51343554770E+03  0.51343554770E+03  0.00000000000E+00 0. -1.
         24    2    1    2    0    0  0.79733333445E+02  0.13640397754E+03 -0.17857835614E+03  0.25123176118E+03  0.79143660482E+02 0.  0.
         23    2    1    2    0    0 -0.63373149800E+02  0.20554301831E+02  0.67884123986E+02  0.13077243289E+03  0.89747086161E+02 0.  0.
        -13    1    3    3    0    0  0.38910049952E+02  0.25063711459E+02 -0.96452321112E+02  0.10698239045E+03  0.00000000000E+00 0.  1.
         14    1    3    3    0    0  0.40823283493E+02  0.11134026608E+03 -0.82126035025E+02  0.14424937073E+03  0.00000000000E+00 0. -1.
        -11    1    4    4    0    0 -0.17981118155E+02 -0.14333816220E+02 -0.16851866238E+02  0.28509021261E+02  0.00000000000E+00 0.  1.
         11    1    4    4    0    0 -0.45392031645E+02  0.34888118051E+02  0.84735990225E+02  0.10226341163E+03  0.00000000000E+00 0. -1.
         21    1    1    2  503  501 -0.36508146107E+02 -0.47381486729E+02 -0.13387212429E+03  0.14662740425E+03  0.00000000000E+00 0. -1.
          1    1    1    2  501    0  0.20147962462E+02 -0.10957679264E+03 -0.10237001891E+03  0.15130312174E+03  0.00000000000E+00 0. -1.
<scales pt_clust_5="13000.00000" pt_clust_6="13000.00000" pt_clust_7="13000.00000" pt_clust_8="13000.00000" pt_clust_9="59.81513" pt_clust_10="13000.00000"></scales>
<clustering>
<clus scale="   59.815">  2  9  1 -1</clus>
<clus scale="   79.144">  5  6 -1 -1</clus>
<clus scale="   89.747">  7  8 -1 -1</clus>
<clus scale="  125.919">  7 10 -1 -1</clus>
<clus scale="  147.029">  1  5  2 -1</clus>
<clus scale="   59.815">  2  5  1 -1</clus>
</clustering>
</event>
<event>
10    4  0.2565852E-005  0.2178726E+03  0.7546771E-02  0.1176404E+00
          2   -1    0    0  503    0 -0.00000000000E+00  0.00000000000E+00  0.93870883872E+03  0.93870883872E+03  0.00000000000E+00 0. -1.
         21   -1    0    0  501  502  0.00000000000E+00 -0.00000000000E+00 -0.62304679384E+02  0.62304679384E+02  0.00000000000E+00 0. -1.
         24    2    1    2    0    0 -0.21698215246E+02  0.43517219257E+01  0.17429227694E+03  0.19323421644E+03  0.80448210498E+02 0.  0.
         23    2    1    2    0    0  0.19671307662E+02  0.55860982826E+02  0.22124037701E+03  0.24628633990E+03  0.90566257803E+02 0.  0.
        -13    1    3    3    0    0 -0.36372050177E+01  0.41368412633E+02  0.74826267203E+02  0.85577713733E+02  0.00000000000E+00 0.  1.
         14    1    3    3    0    0 -0.18061010229E+02 -0.37016690708E+02  0.99466009739E+02  0.10765650271E+03  0.00000000000E+00 0. -1.
        -11    1    4    4    0    0 -0.33381291875E+02  0.44718323696E+01  0.82510824828E+02  0.89119830261E+02  0.00000000000E+00 0.  1.
         11    1    4    4    0    0  0.53052599537E+02  0.51389150456E+02  0.13872955218E+03  0.15716650964E+03  0.00000000000E+00 0. -1.
         21    1    1    2  503  502 -0.95521529286E+02 -0.17281645432E+02  0.35203261920E+02  0.10325835306E+03  0.00000000000E+00 0. -1.
          1    1    1    2  501    0  0.97548436871E+02 -0.42931059319E+02  0.44566824346E+03  0.45823460871E+03  0.00000000000E+00 0. -1.
<scales pt_clust_5="13000.00000" pt_clust_6="13000.00000" pt_clust_7="13000.00000" pt_clust_8="13000.00000" pt_clust_9="98.96201" pt_clust_10="13000.00000"></scales>
<clustering>
<clus scale="   80.448">  5  6 -1 -1</clus>
<clus scale="   83.437">  1  5  2 -1</clus>
<clus scale="   90.566">  7  8 -1 -1</clus>
<clus scale="   93.682">  7 10 -1 -1</clus>
<clus scale="   98.962">  2  9  1 -1</clus>
<clus scale="   98.962">  2  5  1 -1</clus>
</clustering>
</event>
<event>
10    4  0.2565852E-005  0.2824580E+03  0.7546771E-02  0.1142919E+00
          2   -1    0    0  503    0 -0.00000000000E+00  0.00000000000E+00  0.34190348256E+03  0.34190348256E+03  0.00000000000E+00 0. -1.
         21   -1    0    0  501  502  0.00000000000E+00 -0.00000000000E+00 -0.51196328779E+03  0.51196328779E+03  0.00000000000E+00 0. -1.
         24    2    1    2    0    0 -0.18471941070E+02 -0.16535397033E+02  0.26985614028E+03  0.28256678394E+03  0.80043856578E+02 0.  0.
         23    2    1    2    0    0 -0.60824225332E+02 -0.30263022938E+02 -0.21556620905E+02  0.11552430362E+03  0.90916114504E+02 0.  0.
        -13    1    3    3    0    0  0.28184040065E+02  0.10137906936E+02  0.10331501013E+03  0.10756908752E+03  0.00000000000E+00 0.  1.
         14    1    3    3    0    0 -0.46655981134E+02 -0.26673303969E+02  0.16654113015E+03  0.17499769642E+03  0.00000000000E+00 0. -1.
        -13    1    4    4    0    0 -0.78452385183E+02 -0.78710240258E+01 -0.32111109497E+02  0.85134323943E+02  0.00000000000E+00 0. -1.
         13    1    4    4    0    0  0.17628159852E+02 -0.22391998912E+02  0.10554488592E+02  0.30389979672E+02  0.00000000000E+00 0.  1.
         21    1    1    2  503  502  0.87506549120E+01  0.76082409630E+02 -0.87804282049E+02  0.11651051010E+03  0.00000000000E+00 0.  1.
          1    1    1    2  501    0  0.70545511489E+02 -0.29283989658E+02 -0.33055504257E+03  0.33926517270E+03  0.00000000000E+00 0. -1.
<scales pt_clust_5="13000.00000" pt_clust_6="13000.00000" pt_clust_7="13000.00000" pt_clust_8="13000.00000" pt_clust_9="76.58399" pt_clust_10="13000.00000"></scales>
<clustering>
<clus scale="   76.584">  2  9  1 -1</clus>
<clus scale="   80.044">  5  6 -1 -1</clus>
<clus scale="   83.541">  1  5  2 -1</clus>
<clus scale="   90.916">  7  8 -1 -1</clus>
<clus scale="   77.788">  7 10 -1 -1</clus>
<clus scale="   76.584">  2  5  1 -1</clus>
</clustering>
</event>
<event>
10    4  0.2565852E-005  0.5704042E+03  0.7546771E-02  0.1055418E+00
          2   -1    0    0  502    0 -0.00000000000E+00  0.00000000000E+00  0.61631305705E+03  0.61631305705E+03  0.00000000000E+00 0. -1.
         21   -1    0    0  503  502  0.00000000000E+00 -0.00000000000E+00 -0.35420563027E+03  0.35420563027E+03  0.00000000000E+00 0. -1.
         24    2    1    2    0    0  0.57141674067E+02 -0.13526959045E+02  0.32465796492E+03  0.33946725424E+03  0.79919165299E+02 0.  0.
         23    2    1    2    0    0 -0.22246560673E+03  0.82972914151E+02  0.15908653031E+03  0.29935457665E+03  0.89045986846E+02 0.  0.
        -11    1    3    3    0    0 -0.13128849265E+02 -0.19470564793E+02  0.41740775633E+02  0.47893234667E+02  0.00000000000E+00 0.  1.
         12    1    3    3    0    0  0.70270523332E+02  0.59436057480E+01  0.28291718929E+03  0.29157401958E+03  0.00000000000E+00 0. -1.
        -13    1    4    4    0    0 -0.92648691798E+02  0.35195122969E+02  0.16101792903E+02  0.10040789066E+03  0.00000000000E+00 0.  1.
         13    1    4    4    0    0 -0.12981691493E+03  0.47777791183E+02  0.14298473741E+03  0.19894668599E+03  0.00000000000E+00 0. -1.
         21    1    1    2  503  501 -0.27588048875E+02 -0.42158695328E+02 -0.31250592984E+02  0.59287904284E+02  0.00000000000E+00 0. -1.
          1    1    1    2  501    0  0.19291198154E+03 -0.27287259777E+02 -0.19038647548E+03  0.27240895215E+03  0.00000000000E+00 0. -1.
<scales pt_clust_5="13000.00000" pt_clust_6="13000.00000" pt_clust_7="13000.00000" pt_clust_8="13000.00000" pt_clust_9="50.38309" pt_clust_10="13000.00000"></scales>
<clustering>
<clus scale="   50.383">  2  9  1 -1</clus>
<clus scale="   79.919">  5  6 -1 -1</clus>
<clus scale="   89.046">  7  8 -1 -1</clus>
<clus scale="   98.937">  1  5  2 -1</clus>
<clus scale="  191.983">  7 10 -1 -1</clus>
<clus scale="   50.383">  2  5  1 -1</clus>
</clustering>
</event>
<event>
10    4  0.2565852E-005  0.3193655E+03  0.7546771E-02  0.1121938E+00
          2   -1    0    0  502    0 -0.00000000000E+00  0.00000000000E+00  0.24967934854E+03  0.24967934854E+03  0.00000000000E+00 0. -1.
         21   -1    0    0  503  502  0.00000000000E+00 -0.00000000000E+00 -0.31312051688E+03  0.31312051688E+03  0.00000000000E+00 0. -1.
         24    2    1    2    0    0  0.52674132871E+02 -0.26972651257E+02  0.32746894709E+02  0.10525584990E+03  0.80649529667E+02 0.  0.
         23    2    1    2    0    0 -0.68993334808E+02 -0.14619692003E+03 -0.11890052167E+01  0.18388754255E+03  0.87633297882E+02 0.  0.
        -13    1    3    3    0    0  0.52392902209E+02 -0.51184817698E+02  0.13855631673E+02  0.74544485334E+02  0.00000000000E+00 0.  1.
         14    1    3    3    0    0  0.28123066245E+00  0.24212166440E+02  0.18891263036E+02  0.30711364566E+02  0.00000000000E+00 0. -1.
        -11    1    4    4    0    0 -0.82774092189E+01 -0.74263321738E+02 -0.36738532293E+02  0.83266296988E+02  0.00000000000E+00 0. -1.
         11    1    4    4    0    0 -0.60715925589E+02 -0.71933598297E+02  0.35549527077E+02  0.10062124557E+03  0.00000000000E+00 0.  1.
         21    1    1    2  503  501 -0.13306250716E+02  0.45267151687E+02 -0.12956937884E+03  0.13789269474E+03  0.00000000000E+00 0. -1.
          1    1    1    2  501    0  0.29625452652E+02  0.12790241960E+03  0.34570321009E+02  0.13576377823E+03  0.00000000000E+00 0. -1.
<scales pt_clust_5="13000.00000" pt_clust_6="13000.00000" pt_clust_7="13000.00000" pt_clust_8="13000.00000" pt_clust_9="47.18232" pt_clust_10="13000.00000"></scales>
<clustering>
<clus scale="   47.182">  2  9  1 -1</clus>
<clus scale="   80.650">  5  6 -1 -1</clus>
<clus scale="   87.633">  7  8 -1 -1</clus>
<clus scale="   96.543">  1  5  2 -1</clus>
<clus scale="  141.356">  7 10 -1 -1</clus>
<clus scale="   47.182">  2  5  1 -1</clus>
</clustering>
</event>
<event>
10    4  0.2565852E-005  0.6365360E+03  0.7546771E-02  0.1034552E+00
          2   -1    0    0  502    0 -0.00000000000E+00  0.00000000000E+00  0.82215699411E+03  0.82215699411E+03  0.00000000000E+00 0. -1.
         21   -1    0    0  503  502  0.00000000000E+00 -0.00000000000E+00 -0.20118082020E+03  0.20118082020E+03  0.00000000000E+00 0. -1.
         24    2    1    2    0    0  0.10856981482E+03 -0.31204177700E+00  0.99725368374E+02  0.16799929209E+03  0.80567431296E+02 0.  0.
         23    2    1    2    0    0  0.21458462441E+03 -0.19107662676E+03  0.24289790960E+03  0.38675810374E+03  0.89585701949E+02 0.  0.
        -11    1    3    3    0    0  0.67337122612E+02  0.30981883772E+01  0.10653437398E+03  0.12606926545E+03  0.00000000000E+00 0.  1.
         12    1    3    3    0    0  0.41232692206E+02 -0.34102301542E+01 -0.68090056066E+01  0.41930026635E+02  0.00000000000E+00 0. -1.
        -11    1    4    4    0    0  0.49628507928E+02 -0.99796266443E+02  0.10557167919E+03  0.15351763105E+03  0.00000000000E+00 0. -1.
         11    1    4    4    0    0  0.16495611648E+03 -0.91280360319E+02  0.13732623041E+03  0.23324047269E+03  0.00000000000E+00 0.  1.
         21    1    1    2  503  501 -0.37121795539E+02  0.23263796390E+02  0.20440280213E+02  0.48342910357E+02  0.00000000000E+00 0.  1.
          1    1    1    2  501    0 -0.28603264368E+03  0.16812487215E+03  0.25791261573E+03  0.42023750813E+03  0.00000000000E+00 0. -1.
<scales pt_clust_5="13000.00000" pt_clust_6="13000.00000" pt_clust_7="13000.00000" pt_clust_8="13000.00000" pt_clust_9="43.80904" pt_clust_10="13000.00000"></scales>
<clustering>
<clus scale="   43.809">  2  9  1 -1</clus>
<clus scale="   80.567">  5  6 -1 -1</clus>
<clus scale="   89.586">  7  8 -1 -1</clus>
<clus scale="  129.885">  1  5  2 -1</clus>
<clus scale="  303.879">  7 10 -1 -1</clus>
<clus scale="   43.809">  2  5  1 -1</clus>
</clustering>
</event>
<event>
10    4  0.2565852E-005  0.1734684E+03  0.7546771E-02  0.1207781E+00
          2   -1    0    0  502    0 -0.00000000000E+00  0.00000000000E+00  0.95165663615E+03  0.95165663615E+03  0.00000000000E+00 0. -1.
         21   -1    0    0  503  502  0.00000000000E+00 -0.00000000000E+00 -0.20794614989E+03  0.20794614989E+03  0.00000000000E+00 0. -1.
         24    2    1    2    0    0 -0.66844106867E+01 -0.67129580321E+01  0.24185274002E+03  0.25489311326E+03  0.79925003449E+02 0.  0.
         23    2    1    2    0    0 -0.79932876726E+00  0.29365353703E+02  0.21680676783E+03  0.23617044314E+03  0.88928851961E+02 0.  0.
        -11    1    3    3    0    0 -0.11719744961E+02  0.29871513265E+02  0.49244466824E+02  0.58776502443E+02  0.00000000000E+00 0.  1.
         12    1    3    3    0    0  0.50353342744E+01 -0.36584471297E+02  0.19260827320E+03  0.19611661081E+03  0.00000000000E+00 0. -1.
        -13    1    4    4    0    0 -0.24382667373E+02 -0.12998772663E+02  0.15585725517E+03  0.15828760706E+03  0.00000000000E+00 0.  1.
         13    1    4    4    0    0  0.23583338606E+02  0.42364126366E+02  0.60949512658E+02  0.77882836080E+02  0.00000000000E+00 0. -1.
         21    1    1    2  503  501  0.78597940940E+02 -0.44387646069E+01 -0.18066581823E+03  0.19707226296E+03  0.00000000000E+00 0. -1.
          1    1    1    2  501    0 -0.71114201486E+02 -0.18213631064E+02  0.46571679664E+03  0.47146696669E+03  0.00000000000E+00 0. -1.
<scales pt_clust_5="13000.00000" pt_clust_6="13000.00000" pt_clust_7="13000.00000" pt_clust_8="13000.00000" pt_clust_9="78.72318" pt_clust_10="13000.00000"></scales>
<clustering>
<clus scale="   78.723">  2  9  1 -1</clus>
<clus scale="   79.925">  5  6 -1 -1</clus>
<clus scale="   82.843">  1  5  2 -1</clus>
<clus scale="   88.929">  7  8 -1 -1</clus>
<clus scale="   53.885">  7 10 -1 -1</clus>
<clus scale="   78.723">  2  5  1 -1</clus>
</clustering>
</event>
<event>
10    4  0.2565852E-005  0.1312206E+03  0.7546771E-02  0.1249063E+00
         21   -1    0    0  501  502  0.00000000000E+00  0.00000000000E+00  0.64884546429E+02  0.64884546429E+02  0.00000000000E+00 0. -1.
          2   -1    0    0  503    0 -0.00000000000E+00 -0.00000000000E+00 -0.27052078366E+03  0.27052078366E+03  0.00000000000E+00 0. -1.
         24    2    1    2    0    0  0.25250314071E+02 -0.21515740408E+01 -0.25913801611E+02  0.87995382311E+02  0.80183879692E+02 0.  0.
         23    2    1    2    0    0  0.24992797360E+01  0.43758412835E+02 -0.90887037683E+02  0.13616332104E+03  0.91427300543E+02 0.  0.
        -13    1    3    3    0    0  0.11431796564E+02 -0.28640809394E+02 -0.43503711152E+02  0.53324992447E+02  0.00000000000E+00 0.  1.
         14    1    3    3    0    0  0.13818517506E+02  0.26489235353E+02  0.17589909541E+02  0.34670389864E+02  0.00000000000E+00 0. -1.
        -13    1    4    4    0    0 -0.35150290562E+02  0.86886955896E+00 -0.89016351176E+01  0.36270331797E+02  0.00000000000E+00 0.  1.
         13    1    4    4    0    0  0.37649570298E+02  0.42889543276E+02 -0.81985402565E+02  0.99892989243E+02  0.00000000000E+00 0. -1.
         21    1    1    2  503  502 -0.32575526959E+02 -0.17818072042E+02 -0.30459631796E+02  0.48025387215E+02  0.00000000000E+00 0. -1.
          1    1    1    2  501    0  0.48259331528E+01 -0.23788766752E+02 -0.58375766141E+02  0.63221239523E+02  0.00000000000E+00 0. -1.
<scales pt_clust_5="13000.00000" pt_clust_6="13000.00000" pt_clust_7="13000.00000" pt_clust_8="13000.00000" pt_clust_9="37.13018" pt_clust_10="13000.00000"></scales>
<clustering>
<clus scale="   37.130">  1  9  2 -1</clus>
<clus scale="   80.184">  5  6 -1 -1</clus>
<clus scale="   81.400">  2  5  1 -1</clus>
<clus scale="   91.427">  7  8 -1 -1</clus>
<clus scale="   29.302">  7 10 -1 -1</clus>
<clus scale="   37.130">  1  5  2 -1</clus>
</clustering>
</event>
<event>
10    4  0.2565852E-005  0.3422824E+03  0.7546771E-02  0.1082180E+00
          2   -1    0    0  502    0 -0.00000000000E+00  0.00000000000E+00  0.40743886228E+03  0.40743886228E+03  0.00000000000E+00 0. -1.
         21   -1    0    0  503  502  0.00000000000E+00 -0.00000000000E+00 -0.30854927273E+03  0.30854927273E+03  0.00000000000E+00 0. -1.
         24    2    1    2    0    0 -0.13566691876E+03  0.19111308022E+03 -0.21641294360E+02  0.24862390813E+03  0.80098563015E+02 0.  0.
         23    2    1    2    0    0 -0.50410188975E+02  0.33368236335E+01  0.98849272959E+02  0.14280648830E+03  0.89834251778E+02 0.  0.
        -11    1    3    3    0    0 -0.76454344015E+02  0.59973375171E+02 -0.36874719382E+02  0.10393179195E+03  0.00000000000E+00 0.  1.
         12    1    3    3    0    0 -0.59212574741E+02  0.13113970505E+03  0.15233425022E+02  0.14469211618E+03  0.00000000000E+00 0. -1.
        -11    1    4    4    0    0 -0.51402946001E+02 -0.35781665330E+02  0.71574902554E+02  0.95108133758E+02  0.00000000000E+00 0. -1.
         11    1    4    4    0    0  0.99275702583E+00  0.39118488964E+02  0.27274370406E+02  0.47698354546E+02  0.00000000000E+00 0.  1.
         21    1    1    2  503  501  0.22600266087E+02 -0.47531019167E+02 -0.69008418589E+02  0.86787854256E+02  0.00000000000E+00 0.  1.
          1    1    1    2  501    0  0.16347684164E+03 -0.14691888468E+03  0.90690029540E+02  0.23776988432E+03  0.00000000000E+00 0. -1.
<scales pt_clust_5="13000.00000" pt_clust_6="13000.00000" pt_clust_7="13000.00000" pt_clust_8="13000.00000" pt_clust_9="52.63050" pt_clust_10="13000.00000"></scales>
<clustering>
<clus scale="   52.631">  2  9  1 -1</clus>
<clus scale="   80.099">  5  6 -1 -1</clus>
<clus scale="   89.834">  7  8 -1 -1</clus>
<clus scale="  219.225">  1  5  2 -1</clus>
<clus scale="  114.390">  7 10 -1 -1</clus>
<clus scale="   52.631">  2  5  1 -1</clus>
</clustering>
</event>
<event>
10    4  0.2565852E-005  0.3373816E+03  0.7546771E-02  0.1099153E+00
         21   -1    0    0  503  502  0.00000000000E+00  0.00000000000E+00  0.31826466361E+03  0.31826466361E+03  0.00000000000E+00 0.  1.
          4   -1    0    0  502    0 -0.00000000000E+00 -0.00000000000E+00 -0.35737898700E+03  0.35737898700E+03  0.00000000000E+00 0. -1.
         24    2    1    2    0    0  0.64277642559E+02  0.90224893566E+02  0.29159141504E+02  0.14003630855E+03  0.80546666147E+02 0.  0.
         23    2    1    2    0    0 -0.67465632467E+02  0.84384631353E+02 -0.10917736413E+03  0.17904946348E+03  0.92014324766E+02 0.  0.
        -11    1    3    3    0    0  0.26615625349E+02  0.90528826746E+02  0.34278611551E+01  0.94422509058E+02  0.00000000000E+00 0.  1.
         12    1    3    3    0    0  0.37662017210E+02 -0.30393318083E+00  0.25731280349E+02  0.45613799492E+02  0.00000000000E+00 0. -1.
        -11    1    4    4    0    0 -0.85496354344E+02  0.61490995294E+02 -0.58184665257E+02  0.12031718239E+03  0.00000000000E+00 0.  1.
         11    1    4    4    0    0  0.18030721877E+02  0.22893636059E+02 -0.50992698871E+02  0.58732281086E+02  0.00000000000E+00 0. -1.
         21    1    1    2  503  501  0.91849020452E+01  0.23144803794E+02  0.13514072668E+03  0.13741564823E+03  0.00000000000E+00 0.  1.
          3    1    1    2  501    0 -0.59969121373E+01 -0.19775432871E+03 -0.94236827451E+02  0.21914223036E+03  0.00000000000E+00 0. -1.
<scales pt_clust_5="13000.00000" pt_clust_6="13000.00000" pt_clust_7="13000.00000" pt_clust_8="13000.00000" pt_clust_9="24.90069" pt_clust_10="13000.00000"></scales>
<clustering>
<clus scale="   24.901">  1  9  2 -1</clus>
<clus scale="   80.547">  5  6 -1 -1</clus>
<clus scale="   92.014">  7  8 -1 -1</clus>
<clus scale="  146.234">  2  5  1 -1</clus>
<clus scale="  143.367">  7 10 -1 -1</clus>
<clus scale="   24.901">  1  5  2 -1</clus>
</clustering>
</event>
<event>
10    4  0.2565852E-005  0.4398758E+03  0.7546771E-02  0.1039702E+00
          2   -1    0    0  502    0 -0.00000000000E+00  0.00000000000E+00  0.13192868247E+04  0.13192868247E+04  0.00000000000E+00 0. -1.
         21   -1    0    0  503  502  0.00000000000E+00 -0.00000000000E+00 -0.14439066807E+03  0.14439066807E+03  0.00000000000E+00 0. -1.
         24    2    1    2    0    0  0.33598839876E+03 -0.42694536480E+02  0.57761951588E+03  0.67447896737E+03  0.81034219634E+02 0.  0.
         23    2    1    2    0    0 -0.57171946704E+02  0.10689747252E+03  0.12943951701E+03  0.19919206768E+03  0.90703859576E+02 0.  0.
        -13    1    3    3    0    0  0.19157607386E+02 -0.19674893601E+02  0.25388366978E+02  0.37398991119E+02  0.00000000000E+00 0.  1.
         14    1    3    3    0    0  0.31683079137E+03 -0.23019642879E+02  0.55223114890E+03  0.63707997625E+03  0.00000000000E+00 0. -1.
        -11    1    4    4    0    0 -0.81276080469E+02  0.77685674333E+02  0.85935523350E+02  0.14151247092E+03  0.00000000000E+00 0. -1.
         11    1    4    4    0    0  0.24104133765E+02  0.29211798184E+02  0.43503993662E+02  0.57679596759E+02  0.00000000000E+00 0.  1.
         21    1    1    2  503  501 -0.25124401734E+02 -0.77906685704E+01 -0.22785821499E+02  0.34801203149E+02  0.00000000000E+00 0. -1.
          1    1    1    2  501    0 -0.25369205032E+03 -0.56412267466E+02  0.49062294526E+03  0.55520525460E+03  0.00000000000E+00 0. -1.
<scales pt_clust_5="13000.00000" pt_clust_6="13000.00000" pt_clust_7="13000.00000" pt_clust_8="13000.00000" pt_clust_9="26.30456" pt_clust_10="13000.00000"></scales>
<clustering>
<clus scale="   26.305">  2  9  1 -1</clus>
<clus scale="   81.034">  5  6 -1 -1</clus>
<clus scale="   90.704">  7  8 -1 -1</clus>
<clus scale="  267.213">  7 10 -1 -1</clus>
<clus scale="  338.533">  1  5  2 -1</clus>
<clus scale="   26.305">  2  5  1 -1</clus>
</clustering>
</event>
<event>
10    4  0.2565852E-005  0.4343770E+03  0.7546771E-02  0.1090685E+00
          2   -1    0    0  503    0 -0.00000000000E+00  0.00000000000E+00  0.20394140014E+03  0.20394140014E+03  0.00000000000E+00 0. -1.
         21   -1    0    0  501  502  0.00000000000E+00 -0.00000000000E+00 -0.47915074874E+03  0.47915074874E+03  0.00000000000E+00 0. -1.
         24    2    1    2    0    0  0.24038488403E+02  0.13054379384E+02 -0.60931523457E+02  0.10530556794E+03  0.81414656802E+02 0.  0.
         23    2    1    2    0    0  0.10668095547E+03 -0.15264176883E+03 -0.64369577194E+02  0.21753522739E+03  0.92183495465E+02 0.  0.
        -13    1    3    3    0    0  0.41545546887E+02  0.29028611776E+02 -0.13762819192E+02  0.52517691875E+02  0.00000000000E+00 0.  1.
         14    1    3    3    0    0 -0.17507058483E+02 -0.15974232392E+02 -0.47168704265E+02  0.52787876063E+02  0.00000000000E+00 0. -1.
        -11    1    4    4    0    0  0.26719193870E+02  0.66593857451E+01 -0.19467229542E+02  0.33722926409E+02  0.00000000000E+00 0.  1.
         11    1    4    4    0    0  0.79961761601E+02 -0.15930115458E+03 -0.44902347651E+02  0.18381230098E+03  0.00000000000E+00 0. -1.
         21    1    1    2  503  502  0.78859111494E+01 -0.38077866551E+02 -0.12808872991E+03  0.13386124998E+03  0.00000000000E+00 0. -1.
          1    1    1    2  501    0 -0.13860535502E+03  0.17766525600E+03 -0.21819518040E+02  0.22639010358E+03  0.00000000000E+00 0. -1.
<scales pt_clust_5="13000.00000" pt_clust_6="13000.00000" pt_clust_7="13000.00000" pt_clust_8="13000.00000" pt_clust_9="38.88588" pt_clust_10="13000.00000"></scales>
<clustering>
<clus scale="   38.886">  2  9  1 -1</clus>
<clus scale="   81.415">  5  6 -1 -1</clus>
<clus scale="   85.533">  1  5  2 -1</clus>
<clus scale="   92.183">  7  8 -1 -1</clus>
<clus scale="  206.414">  7 10 -1 -1</clus>
<clus scale="   38.886">  2  5  1 -1</clus>
</clustering>
</event>
<event>
10    4  0.2565852E-005  0.4409904E+03  0.7546771E-02  0.1062216E+00
         21   -1    0    0  501  502  0.00000000000E+00  0.00000000000E+00  0.36655527556E+03  0.36655527556E+03  0.00000000000E+00 0.  1.
          2   -1    0    0  503    0 -0.00000000000E+00 -0.00000000000E+00 -0.61680830998E+03  0.61680830998E+03  0.00000000000E+00 0. -1.
         24    2    1    2    0    0  0.12299666070E+03 -0.14971047587E+03 -0.34098122517E+02  0.21258132425E+03  0.80540252894E+02 0.  0.
         23    2    1    2    0    0  0.14533740922E+03  0.78324435136E+02 -0.10118692917E+03  0.21000767377E+03  0.81281909119E+02 0.  0.
        -11    1    3    3    0    0  0.10899610387E+03 -0.13976722803E+03 -0.32464855332E+01  0.17727258209E+03  0.00000000000E+00 0.  1.
         12    1    3    3    0    0  0.14000556827E+02 -0.99432478306E+01 -0.30851636984E+02  0.35308742168E+02  0.00000000000E+00 0. -1.
        -13    1    4    4    0    0  0.28904225432E+02  0.57431828724E+02 -0.23352411866E+02  0.68404709913E+02  0.00000000000E+00 0.  1.
         13    1    4    4    0    0  0.11643318378E+03  0.20892606413E+02 -0.77834517301E+02  0.14160296385E+03  0.00000000000E+00 0. -1.
         21    1    1    2  503  502 -0.37785799784E+02  0.65885814951E+02  0.17471255177E+03  0.19050769807E+03  0.00000000000E+00 0.  1.
          1    1    1    2  501    0 -0.23054827013E+03  0.55002257782E+01 -0.28968053451E+03  0.37026688944E+03  0.00000000000E+00 0. -1.
<scales pt_clust_5="13000.00000" pt_clust_6="13000.00000" pt_clust_7="13000.00000" pt_clust_8="13000.00000" pt_clust_9="75.95201" pt_clust_10="13000.00000"></scales>
<clustering>
<clus scale="   75.952">  1  9  2 -1</clus>
<clus scale="   80.540">  5  6 -1 -1</clus>
<clus scale="   81.282">  7  8 -1 -1</clus>
<clus scale="  176.934">  2  5  1 -1</clus>
<clus scale="  177.625">  7 10 -1 -1</clus>
<clus scale="   75.952">  1  5  2 -1</clus>
</clustering>
</event>
<event>
10    4  0.2565852E-005  0.1405726E+03  0.7546771E-02  0.1233537E+00
         21   -1    0    0  503  502  0.00000000000E+00  0.00000000000E+00  0.11259307173E+03  0.11259307173E+03  0.00000000000E+00 0.  1.
         -1   -1    0    0    0  501 -0.00000000000E+00 -0.00000000000E+00 -0.20742535457E+03  0.20742535457E+03  0.00000000000E+00 0.  1.
         24    2    1    2    0    0  0.38647815679E+02 -0.23163072504E+02 -0.43564267715E+02  0.10110913894E+03  0.79341231219E+02 0.  0.
         23    2    1    2    0    0 -0.29331322174E+02 -0.19247749542E+02 -0.85148224958E+02  0.12933101285E+03  0.90804671397E+02 0.  0.
        -13    1    3    3    0    0  0.61021658191E+02 -0.28309537815E+02 -0.38818593334E+02  0.77665667371E+02  0.00000000000E+00 0.  1.
         14    1    3    3    0    0 -0.22373842512E+02  0.51464653106E+01 -0.47456743803E+01  0.23443471571E+02  0.00000000000E+00 0. -1.
        -11    1    4    4    0    0 -0.56808877665E+02 -0.20634057472E+02 -0.29504525753E+02  0.67257192547E+02  0.00000000000E+00 0.  1.
         11    1    4    4    0    0  0.27477555491E+02  0.13863079300E+01 -0.55643699204E+02  0.62073820299E+02  0.00000000000E+00 0. -1.
         21    1    1    2  503  501  0.13755408578E+02  0.53991822847E+02  0.15322948074E+02  0.57785127301E+02  0.00000000000E+00 0.  1.
         -2    1    1    2    0  502 -0.23071902082E+02 -0.11581000801E+02  0.18557261758E+02  0.31793147205E+02  0.00000000000E+00 0.  1.
<scales pt_clust_5="13000.00000" pt_clust_6="13000.00000" pt_clust_7="13000.00000" pt_clust_8="13000.00000" pt_clust_9="55.71650" pt_clust_10="13000.00000"></scales>
<clustering>
<clus scale="   55.716">  1  9  2 -1</clus>
<clus scale="   79.341">  5  6 -1 -1</clus>
<clus scale="   90.695">  2  5  1 -1</clus>
<clus scale="   90.805">  7  8 -1 -1</clus>
<clus scale="   15.113">  7 10 -1 -1</clus>
<clus scale="   55.716">  1  5  2 -1</clus>
</clustering>
</event>
<event>
10    4  0.2565852E-005  0.4335736E+03  0.7546771E-02  0.1057017E+00
         21   -1    0    0  501  502  0.00000000000E+00  0.00000000000E+00  0.44514629794E+03  0.44514629794E+03  0.00000000000E+00 0. -1.
          2   -1    0    0  503    0 -0.00000000000E+00 -0.00000000000E+00 -0.13542308392E+04  0.13542308392E+04  0.00000000000E+00 0. -1.
         24    2    1    2    0    0  0.86366683392E+02  0.17993310067E+03 -0.23200196263E+03  0.31654577525E+03  0.80877638722E+02 0.  0.
         23    2    1    2    0    0  0.14508293518E+03  0.15869061460E+03 -0.75039519710E+03  0.78612523875E+03  0.93103007098E+02 0.  0.
        -11    1    3    3    0    0  0.35109757828E+02  0.22463260480E+02 -0.16650091156E+02  0.44883390042E+02  0.00000000000E+00 0.  1.
         12    1    3    3    0    0  0.51256925564E+02  0.15746984019E+03 -0.21535187148E+03  0.27166238521E+03  0.00000000000E+00 0. -1.
        -13    1    4    4    0    0  0.87852579525E+02  0.83820824226E+02 -0.56788373024E+03  0.58072018854E+03  0.00000000000E+00 0. -1.
         13    1    4    4    0    0  0.57230355654E+02  0.74869790371E+02 -0.18251146686E+03  0.20540505022E+03  0.00000000000E+00 0.  1.
         21    1    1    2  503  502 -0.17591336988E+03 -0.25829595314E+03  0.31029421901E+03  0.44039166143E+03  0.00000000000E+00 0. -1.
          1    1    1    2  501    0 -0.55536248689E+02 -0.80327762134E+02 -0.23698160050E+03  0.25631446167E+03  0.00000000000E+00 0. -1.
<scales pt_clust_5="13000.00000" pt_clust_6="13000.00000" pt_clust_7="13000.00000" pt_clust_8="13000.00000" pt_clust_9="300.62909" pt_clust_10="13000.00000"></scales>
<clustering>
<clus scale="   80.878">  5  6 -1 -1</clus>
<clus scale="   93.103">  7  8 -1 -1</clus>
<clus scale="   97.657">  7 10 -1 -1</clus>
<clus scale="  215.352">  2  5  1 -1</clus>
<clus scale="  300.629">  1  9  2 -1</clus>
<clus scale="  300.629">  1  5  2 -1</clus>
</clustering>
</event>
<event>
10    4  0.2565852E-005  0.3735172E+03  0.7546771E-02  0.1079300E+00
         21   -1    0    0  501  502  0.00000000000E+00  0.00000000000E+00  0.18749540643E+03  0.18749540643E+03  0.00000000000E+00 0. -1.
         -1   -1    0    0    0  501 -0.00000000000E+00 -0.00000000000E+00 -0.69493733559E+03  0.69493733559E+03  0.00000000000E+00 0.  1.
         24    2    1    2    0    0  0.11591997275E+03  0.13304316755E+03 -0.59853840864E+02  0.20296992123E+03  0.80475972470E+02 0.  0.
         23    2    1    2    0    0 -0.11154155398E+02  0.60567007326E+02 -0.37587943638E+03  0.39183993350E+03  0.91980461131E+02 0.  0.
        -11    1    3    3    0    0  0.97384927111E+02  0.90213318722E+02 -0.76747730992E+02  0.15333780067E+03  0.00000000000E+00 0.  1.
         12    1    3    3    0    0  0.18535045641E+02  0.42829848828E+02  0.16893890128E+02  0.49632120560E+02  0.00000000000E+00 0. -1.
        -13    1    4    4    0    0  0.28366087124E+02  0.64070357955E+02 -0.21447137500E+03  0.22562716228E+03  0.00000000000E+00 0.  1.
         13    1    4    4    0    0 -0.39520242522E+02 -0.35033506286E+01 -0.16140806139E+03  0.16621277122E+03  0.00000000000E+00 0. -1.
         21    1    1    2  503  502 -0.21580393558E+01 -0.30531076523E+02  0.50793948843E+02  0.59302858334E+02  0.00000000000E+00 0.  1.
         -2    1    1    2    0  503 -0.10260777800E+03 -0.16307909835E+03 -0.12250260076E+03  0.22832002895E+03  0.00000000000E+00 0.  1.
<scales pt_clust_5="13000.00000" pt_clust_6="13000.00000" pt_clust_7="13000.00000" pt_clust_8="13000.00000" pt_clust_9="30.60725" pt_clust_10="13000.00000"></scales>
<clustering>
<clus scale="   30.607">  1  9  2 -1</clus>
<clus scale="   80.476">  5  6 -1 -1</clus>
<clus scale="   91.980">  7  8 -1 -1</clus>
<clus scale="  182.286">  2  5  1 -1</clus>
<clus scale="  149.770">  7 10 -1 -1</clus>
<clus scale="   30.607">  1  5  2 -1</clus>
</clustering>
</event>
<event>
10    4  0.2565852E-005  0.8909614E+03  0.7546771E-02  0.1008821E+00
          2   -1    0    0  502    0 -0.00000000000E+00  0.00000000000E+00  0.27242453196E+04  0.27242453196E+04  0.00000000000E+00 0. -1.
         21   -1    0    0  503  502  0.00000000000E+00 -0.00000000000E+00 -0.24904443676E+03  0.24904443676E+03  0.00000000000E+00 0. -1.
         24    2    1    2    0    0 -0.48138235221E+02 -0.50566556463E+02  0.17867212831E+03  0.20802234061E+03  0.80469239057E+02 0.  0.
         23    2    1    2    0    0 -0.41291138856E+03  0.12110432105E+03  0.11823183519E+04  0.12613330678E+04  0.89007591028E+02 0.  0.
        -11    1    3    3    0    0 -0.30347575091E+02 -0.68857542121E+02  0.15864169897E+03  0.17558338496E+03  0.00000000000E+00 0.  1.
         12    1    3    3    0    0 -0.17790660129E+02  0.18290985658E+02  0.20030429340E+02  0.32438955651E+02  0.00000000000E+00 0. -1.
        -11    1    4    4    0    0 -0.18439492470E+03  0.44857754484E+02  0.64805115812E+03  0.67526588092E+03  0.00000000000E+00 0.  1.
         11    1    4    4    0    0 -0.22851646387E+03  0.76246566567E+02  0.53426719381E+03  0.58606718690E+03  0.00000000000E+00 0. -1.
         21    1    1    2  503  501  0.22250317675E+02  0.27789646377E+02 -0.15415580491E+03  0.15821299969E+03  0.00000000000E+00 0. -1.
          1    1    1    2  501    0  0.43879930611E+03 -0.98327410966E+02  0.12683662076E+04  0.13457213483E+04  0.00000000000E+00 0. -1.
<scales pt_clust_5="13000.00000" pt_clust_6="13000.00000" pt_clust_7="13000.00000" pt_clust_8="13000.00000" pt_clust_9="35.59973" pt_clust_10="13000.00000"></scales>
<clustering>
<clus scale="   35.600">  2  9  1 -1</clus>
<clus scale="   80.469">  5  6 -1 -1</clus>
<clus scale="   89.008">  7  8 -1 -1</clus>
<clus scale="  102.949">  1  5  2 -1</clus>
<clus scale="  438.741">  7 10 -1 -1</clus>
<clus scale="   35.600">  2  5  1 -1</clus>
</clustering>
</event>
<event>
10    4  0.2565852E-005  0.3793840E+03  0.7546771E-02  0.1090322E+00
          2   -1    0    0  503    0 -0.00000000000E+00  0.00000000000E+00  0.10262977865E+04  0.10262977865E+04  0.00000000000E+00 0. -1.
         21   -1    0    0  501  502  0.00000000000E+00 -0.00000000000E+00 -0.10548350591E+03  0.10548350591E+03  0.00000000000E+00 0.  1.
         24    2    1    2    0    0 -0.62752966366E+02  0.78682237084E+02  0.51730780248E+03  0.53269832763E+03  0.77661551150E+02 0.  0.
         23    2    1    2    0    0  0.24840135690E+02  0.10716240490E+03  0.73781677126E+02  0.17290028306E+03  0.11113036777E+03 0.  0.
        -13    1    3    3    0    0 -0.45058397339E+02 -0.12972590054E+01  0.17216652154E+03  0.17796980978E+03  0.00000000000E+00 0.  1.
         14    1    3    3    0    0 -0.17694569027E+02  0.79979496090E+02  0.34514128094E+03  0.35472851785E+03  0.00000000000E+00 0. -1.
        -13    1    4    4    0    0  0.47894535370E+02  0.89671315438E+02  0.91324593496E+01  0.10206974647E+03  0.00000000000E+00 0.  1.
         13    1    4    4    0    0 -0.23054399680E+02  0.17491089460E+02  0.64649217777E+02  0.70830536594E+02  0.00000000000E+00 0. -1.
         21    1    1    2  503  502 -0.32076384409E+02  0.26790526579E+02  0.83715060693E+02  0.93567292031E+02  0.00000000000E+00 0. -1.
          1    1    1    2  501    0  0.69989215085E+02 -0.21263516856E+03  0.24600974029E+03  0.33261538969E+03  0.00000000000E+00 0. -1.
<scales pt_clust_5="13000.00000" pt_clust_6="13000.00000" pt_clust_7="13000.00000" pt_clust_8="13000.00000" pt_clust_9="41.79268" pt_clust_10="13000.00000"></scales>
<clustering>
<clus scale="   41.793">  2  9  1 -1</clus>
<clus scale="   77.662">  5  6 -1 -1</clus>
<clus scale="  111.130">  7  8 -1 -1</clus>
<clus scale="  129.619">  1  5  2 -1</clus>
<clus scale="  154.659">  7 10 -1 -1</clus>
<clus scale="   41.793">  2  5  1 -1</clus>
</clustering>
</event>
<event>
10    4  0.2565852E-005  0.2210049E+03  0.7546771E-02  0.1142154E+00
          2   -1    0    0  503    0 -0.00000000000E+00  0.00000000000E+00  0.12761616941E+04  0.12761616941E+04  0.00000000000E+00 0. -1.
         21   -1    0    0  501  502  0.00000000000E+00 -0.00000000000E+00 -0.71622370982E+02  0.71622370982E+02  0.00000000000E+00 0. -1.
         24    2    1    2    0    0  0.15967703874E+03  0.66753883870E+01  0.10363647901E+04  0.10516601495E+04  0.79973585210E+02 0.  0.
         23    2    1    2    0    0 -0.55998382348E+02  0.56577819148E+01  0.11476175518E+03  0.15524831831E+03  0.88113282564E+02 0.  0.
        -13    1    3    3    0    0  0.51890140472E+01 -0.20747715687E+02  0.10268639965E+03  0.10488989583E+03  0.00000000000E+00 0.  1.
         14    1    3    3    0    0  0.15448802469E+03  0.27423104074E+02  0.93367839047E+03  0.94677025367E+03  0.00000000000E+00 0. -1.
        -13    1    4    4    0    0 -0.26103442283E+02 -0.35159030286E+02  0.87336313718E+02  0.97699430927E+02  0.00000000000E+00 0.  1.
         13    1    4    4    0    0 -0.29894940065E+02  0.40816812200E+02  0.27425441465E+02  0.57548887385E+02  0.00000000000E+00 0. -1.
         21    1    1    2  503  502 -0.10145338956E+02 -0.19381896640E+02  0.40716873219E+02  0.46221743635E+02  0.00000000000E+00 0.  1.
          1    1    1    2  501    0 -0.93533317437E+02  0.70487263384E+01  0.12695904589E+02  0.94653853631E+02  0.00000000000E+00 0. -1.
<scales pt_clust_5="13000.00000" pt_clust_6="13000.00000" pt_clust_7="13000.00000" pt_clust_8="13000.00000" pt_clust_9="21.87660" pt_clust_10="13000.00000"></scales>
<clustering>
<clus scale="   21.877">  2  9  1 -1</clus>
<clus scale="   79.974">  5  6 -1 -1</clus>
<clus scale="   88.113">  7  8 -1 -1</clus>
<clus scale="   99.671">  7 10 -1 -1</clus>
<clus scale="  177.636">  1  5  2 -1</clus>
<clus scale="   21.877">  2  5  1 -1</clus>
</clustering>
</event>
<event>
10    4  0.2565852E-005  0.3011047E+03  0.7546771E-02  0.1093871E+00
         21   -1    0    0  501  502  0.00000000000E+00  0.00000000000E+00  0.27125752535E+03  0.27125752535E+03  0.00000000000E+00 0. -1.
          2   -1    0    0  503    0 -0.00000000000E+00 -0.00000000000E+00 -0.71562852111E+03  0.71562852111E+03  0.00000000000E+00 0. -1.
         24    2    1    2    0    0 -0.37779842014E+02 -0.22072363372E+03 -0.49080110916E+03  0.54549798640E+03  0.80846060332E+02 0.  0.
         23    2    1    2    0    0 -0.26689725777E+02  0.24185423342E+03 -0.26340765518E+02  0.26120865902E+03  0.91270564430E+02 0.  0.
        -11    1    3    3    0    0 -0.16585292591E+02 -0.10564899867E+03 -0.32811337717E+03  0.34510168231E+03  0.00000000000E+00 0.  1.
         12    1    3    3    0    0 -0.21194549423E+02 -0.11507463504E+03 -0.16268773199E+03  0.20039630410E+03  0.00000000000E+00 0. -1.
        -13    1    4    4    0    0  0.92736228868E+01  0.16472069642E+03  0.16725312781E+02  0.16582715097E+03  0.00000000000E+00 0. -1.
         13    1    4    4    0    0 -0.35963348664E+02  0.77133536998E+02 -0.43066078299E+02  0.95381508045E+02  0.00000000000E+00 0.  1.
         21    1    1    2  503  502  0.69032776056E+02  0.14590335990E+01  0.11380669777E+03  0.13311505326E+03  0.00000000000E+00 0. -1.
          1    1    1    2  501    0 -0.45632082657E+01 -0.22589633306E+02 -0.41035818850E+02  0.47064347773E+02  0.00000000000E+00 0. -1.
<scales pt_clust_5="13000.00000" pt_clust_6="13000.00000" pt_clust_7="13000.00000" pt_clust_8="13000.00000" pt_clust_9="69.04819" pt_clust_10="13000.00000"></scales>
<clustering>
<clus scale="   69.048">  1  9  2 -1</clus>
<clus scale="   80.846">  5  6 -1 -1</clus>
<clus scale="   91.271">  7  8 -1 -1</clus>
<clus scale="   22.779">  7 10 -1 -1</clus>
<clus scale="  236.138">  2  5  1 -1</clus>
<clus scale="   69.048">  1  5  2 -1</clus>
</clustering>
</event>
<event>
10    4  0.2565852E-005  0.8921144E+03  0.7546771E-02  0.9846745E-01
          2   -1    0    0  503    0 -0.00000000000E+00  0.00000000000E+00  0.85238866611E+03  0.85238866611E+03  0.00000000000E+00 0. -1.
         21   -1    0    0  501  502  0.00000000000E+00 -0.00000000000E+00 -0.45971563688E+03  0.45971563688E+03  0.00000000000E+00 0. -1.
         24    2    1    2    0    0  0.16288369977E+03 -0.14192358275E+03  0.21069896965E+03  0.31325697954E+03  0.84038541294E+02 0.  0.
         23    2    1    2    0    0  0.35194926210E+03  0.16325169129E+03  0.12460636883E+03  0.41746055146E+03  0.90703732396E+02 0.  0.
        -13    1    3    3    0    0  0.57347423333E+02 -0.97740337517E+01  0.82924969432E+02  0.10129565269E+03  0.00000000000E+00 0.  1.
         14    1    3    3    0    0  0.10553627644E+03 -0.13214954900E+03  0.12777400022E+03  0.21196132685E+03  0.00000000000E+00 0. -1.
        -13    1    4    4    0    0  0.23141622415E+03  0.13512100809E+03  0.48988323352E+02  0.27241698085E+03  0.00000000000E+00 0.  1.
         13    1    4    4    0    0  0.12053303795E+03  0.28130683197E+02  0.75618045482E+02  0.14504357062E+03  0.00000000000E+00 0. -1.
         21    1    1    2  503  502 -0.56921468986E+02  0.86341380952E+02  0.39327550284E+02  0.11064151078E+03  0.00000000000E+00 0. -1.
          1    1    1    2  501    0 -0.45791149289E+03 -0.10766948949E+03  0.18040140458E+02  0.47074526121E+03  0.00000000000E+00 0. -1.
<scales pt_clust_5="13000.00000" pt_clust_6="13000.00000" pt_clust_7="13000.00000" pt_clust_8="13000.00000" pt_clust_9="103.41614" pt_clust_10="13000.00000"></scales>
<clustering>
<clus scale="   84.039">  5  6 -1 -1</clus>
<clus scale="   90.704">  7  8 -1 -1</clus>
<clus scale="  103.416">  2  9  1 -1</clus>
<clus scale="  220.650">  1  5  2 -1</clus>
<clus scale="  429.451">  7 10 -1 -1</clus>
<clus scale="  103.416">  2  5  1 -1</clus>
</clustering>
</event>
<event>
10    4  0.2565852E-005  0.2442892E+03  0.7546771E-02  0.1129739E+00
         21   -1    0    0  501  502  0.00000000000E+00  0.00000000000E+00  0.80790350467E+02  0.80790350467E+02  0.00000000000E+00 0.  1.
          2   -1    0    0  503    0 -0.00000000000E+00 -0.00000000000E+00 -0.14488200359E+04  0.14488200359E+04  0.00000000000E+00 0. -1.
         24    2    1    2    0    0  0.72720897851E+02  0.11349623115E+03 -0.34522834801E+03  0.38116224942E+03  0.89063598906E+02 0.  0.
         23    2    1    2    0    0 -0.72465680334E+02 -0.40067972827E+02 -0.35108155048E+03  0.37167892585E+03  0.89611670873E+02 0.  0.
        -11    1    3    3    0    0 -0.14867977202E+02  0.23922119134E+02 -0.26404927468E+02  0.38607573409E+02  0.00000000000E+00 0.  1.
         12    1    3    3    0    0  0.87588875054E+02  0.89574112014E+02 -0.31882342054E+03  0.34255467601E+03  0.00000000000E+00 0. -1.
        -13    1    4    4    0    0  0.20165988861E+02 -0.21304731152E+01 -0.85169239688E+02  0.87550016627E+02  0.00000000000E+00 0.  1.
         13    1    4    4    0    0 -0.92631669194E+02 -0.37937499712E+02 -0.26591231079E+03  0.28412890922E+03  0.00000000000E+00 0. -1.
         21    1    1    2  503  502 -0.67556154765E+01  0.44419826848E+02  0.37051958157E+02  0.58237504762E+02  0.00000000000E+00 0.  1.
          1    1    1    2  501    0  0.65003979590E+01 -0.11784808517E+03 -0.70877174508E+03  0.71853170631E+03  0.00000000000E+00 0. -1.
<scales pt_clust_5="13000.00000" pt_clust_6="13000.00000" pt_clust_7="13000.00000" pt_clust_8="13000.00000" pt_clust_9="44.93061" pt_clust_10="13000.00000"></scales>
<clustering>
<clus scale="   44.931">  1  9  2 -1</clus>
<clus scale="   89.064">  5  6 -1 -1</clus>
<clus scale="   89.612">  7  8 -1 -1</clus>
<clus scale="  111.444">  7 10 -1 -1</clus>
<clus scale="  177.843">  2  5  1 -1</clus>
<clus scale="   44.931">  1  5  2 -1</clus>
</clustering>
</event>
<event>
10    4  0.2565852E-005  0.3245043E+03  0.7546771E-02  0.1107699E+00
          2   -1    0    0  502    0 -0.00000000000E+00  0.00000000000E+00  0.20051780636E+04  0.20051780636E+04  0.00000000000E+00 0. -1.
         21   -1    0    0  503  502  0.00000000000E+00 -0.00000000000E+00 -0.39099799442E+02  0.39099799442E+02  0.00000000000E+00 0.  1.
         24    2    1    2    0    0  0.10707802893E+03  0.26691009114E+02  0.68986234623E+03  0.70329591981E+03  0.80851591366E+02 0.  0.
         23    2    1    2    0    0  0.41850690447E+02 -0.40234345793E+02  0.16832913413E+03  0.19949744479E+03  0.89968051029E+02 0.  0.
        -11    1    3    3    0    0  0.58106675540E+02 -0.12838084806E+02  0.18040849564E+03  0.18996954351E+03  0.00000000000E+00 0.  1.
         12    1    3    3    0    0  0.48971353390E+02  0.39529093920E+02  0.50945385059E+03  0.51332637629E+03  0.00000000000E+00 0. -1.
        -13    1    4    4    0    0  0.58428903972E+02  0.30214558718E+01  0.73368190318E+02  0.93840062689E+02  0.00000000000E+00 0. -1.
         13    1    4    4    0    0 -0.16578213525E+02 -0.43255801665E+02  0.94960943816E+02  0.10565738210E+03  0.00000000000E+00 0.  1.
         21    1    1    2  503  501 -0.15870016554E+02 -0.52102711249E+02  0.52263732064E+02  0.75485413387E+02  0.00000000000E+00 0.  1.
          1    1    1    2  501    0 -0.13305870282E+03  0.65646047928E+02  0.10556230518E+04  0.10659990851E+04  0.00000000000E+00 0. -1.
<scales pt_clust_5="13000.00000" pt_clust_6="13000.00000" pt_clust_7="13000.00000" pt_clust_8="13000.00000" pt_clust_9="54.46604" pt_clust_10="13000.00000"></scales>
<clustering>
<clus scale="   54.466">  2  9  1 -1</clus>
<clus scale="   80.852">  5  6 -1 -1</clus>
<clus scale="   89.968">  7  8 -1 -1</clus>
<clus scale="  131.841">  1  5  2 -1</clus>
<clus scale="   86.344">  7 10 -1 -1</clus>
<clus scale="   54.466">  2  5  1 -1</clus>
</clustering>
</event>
<event>
10    4  0.2565852E-005  0.3772433E+03  0.7546771E-02  0.1072518E+00
          2   -1    0    0  503    0 -0.00000000000E+00  0.00000000000E+00  0.11623743653E+04  0.11623743653E+04  0.00000000000E+00 0. -1.
         21   -1    0    0  501  502  0.00000000000E+00 -0.00000000000E+00 -0.12701024838E+03  0.12701024838E+03  0.00000000000E+00 0. -1.
         24    2    1    2    0    0 -0.16228385978E+03  0.10448635784E+03  0.68084686009E+03  0.71251578589E+03  0.82902642466E+02 0.  0.
         23    2    1    2    0    0  0.25369602635E+03 -0.13496767211E+03  0.31116656971E+03  0.43291758636E+03  0.89526846118E+02 0.  0.
        -13    1    3    3    0    0 -0.34200794261E+02  0.68324440330E+02  0.22363909094E+03  0.23633105270E+03  0.00000000000E+00 0.  1.
         14    1    3    3    0    0 -0.12808306552E+03  0.36161917512E+02  0.45720776915E+03  0.47618473319E+03  0.00000000000E+00 0. -1.
        -11    1    4    4    0    0  0.11463689504E+02 -0.30864630832E+02  0.61761415112E+02  0.69989384982E+02  0.00000000000E+00 0.  1.
         11    1    4    4    0    0  0.24223233685E+03 -0.10410304128E+03  0.24940515460E+03  0.36292820138E+03  0.00000000000E+00 0. -1.
         21    1    1    2  503  502 -0.87108992243E+01  0.18589408806E+02 -0.27559226078E+02  0.34365052408E+02  0.00000000000E+00 0. -1.
          1    1    1    2  501    0 -0.82701267349E+02  0.11891905461E+02  0.70909913247E+02  0.10958618906E+03  0.00000000000E+00 0. -1.
<scales pt_clust_5="13000.00000" pt_clust_6="13000.00000" pt_clust_7="13000.00000" pt_clust_8="13000.00000" pt_clust_9="20.52915" pt_clust_10="13000.00000"></scales>
<clustering>
<clus scale="   20.529">  2  9  1 -1</clus>
<clus scale="   82.903">  5  6 -1 -1</clus>
<clus scale="   89.527">  7  8 -1 -1</clus>
<clus scale="   85.890">  7 10 -1 -1</clus>
<clus scale="  212.707">  1  5  2 -1</clus>
<clus scale="   20.529">  2  5  1 -1</clus>
</clustering>
</event>
<event>
10    4  0.2565852E-005  0.2755452E+03  0.7546771E-02  0.1111814E+00
         21   -1    0    0  501  502  0.00000000000E+00  0.00000000000E+00  0.61427796176E+02  0.61427796176E+02  0.00000000000E+00 0.  1.
          2   -1    0    0  503    0 -0.00000000000E+00 -0.00000000000E+00 -0.11784025049E+04  0.11784025049E+04  0.00000000000E+00 0. -1.
         24    2    1    2    0    0  0.17751646327E+03 -0.47233998796E+02 -0.70671027971E+03  0.73442718696E+03  0.78744702219E+02 0.  0.
         23    2    1    2    0    0 -0.14392275972E+02 -0.11204041211E+02 -0.47015813390E+02  0.10104443607E+03  0.87560397465E+02 0.  0.
        -13    1    3    3    0    0  0.18002972641E+03 -0.57424395329E+02 -0.67868655557E+03  0.70450245158E+03  0.00000000000E+00 0.  1.
         14    1    3    3    0    0 -0.25132631377E+01  0.10190396532E+02 -0.28023724136E+02  0.29924735379E+02  0.00000000000E+00 0. -1.
        -13    1    4    4    0    0 -0.25524114618E+02  0.15591455536E+02  0.14343127512E+02  0.33170758502E+02  0.00000000000E+00 0.  1.
         13    1    4    4    0    0  0.11131838646E+02 -0.26795496748E+02 -0.61358940902E+02  0.67873677565E+02  0.00000000000E+00 0. -1.
         21    1    1    2  503  502 -0.29500680181E+02 -0.46027064540E+01 -0.64155840222E+02  0.70763315866E+02  0.00000000000E+00 0.  1.
          1    1    1    2  501    0 -0.13362350712E+03  0.63040746462E+02 -0.29909277536E+03  0.33359536214E+03  0.00000000000E+00 0. -1.
<scales pt_clust_5="13000.00000" pt_clust_6="13000.00000" pt_clust_7="13000.00000" pt_clust_8="13000.00000" pt_clust_9="29.85759" pt_clust_10="13000.00000"></scales>
<clustering>
<clus scale="   29.858">  1  9  2 -1</clus>
<clus scale="   78.745">  5  6 -1 -1</clus>
<clus scale="   87.560">  7  8 -1 -1</clus>
<clus scale="  155.163">  7 10 -1 -1</clus>
<clus scale="  193.910">  2  5  1 -1</clus>
<clus scale="   29.858">  1  5  2 -1</clus>
</clustering>
</event>
<event>
10    4  0.2565852E-005  0.2469891E+03  0.7546771E-02  0.1118017E+00
         21   -1    0    0  501  502  0.00000000000E+00  0.00000000000E+00  0.12881774749E+03  0.12881774749E+03  0.00000000000E+00 0.  1.
          2   -1    0    0  503    0 -0.00000000000E+00 -0.00000000000E+00 -0.10361842788E+04  0.10361842788E+04  0.00000000000E+00 0. -1.
         24    2    1    2    0    0 -0.41609556440E+02 -0.19809908544E+03 -0.50278472458E+03  0.54878553809E+03  0.86014444768E+02 0.  0.
         23    2    1    2    0    0  0.59752378334E+02  0.16589024609E+03 -0.41312533039E+03  0.45843542758E+03  0.91654689932E+02 0.  0.
        -13    1    3    3    0    0 -0.26955307570E+02 -0.19231668497E+03 -0.49388275285E+03  0.53069055907E+03  0.00000000000E+00 0.  1.
         14    1    3    3    0    0 -0.14654248871E+02 -0.57824004755E+01 -0.89019717326E+01  0.18094979026E+02  0.00000000000E+00 0. -1.
        -13    1    4    4    0    0 -0.20752570320E+01  0.12368435482E+03 -0.26622104451E+03  0.29355709983E+03  0.00000000000E+00 0. -1.
         13    1    4    4    0    0  0.61827635366E+02  0.42205891272E+02 -0.14690428587E+03  0.16487832775E+03  0.00000000000E+00 0.  1.
         21    1    1    2  503  502 -0.18688078228E+02 -0.23904405384E+02  0.68950250351E+02  0.75331280940E+02  0.00000000000E+00 0.  1.
          1    1    1    2  501    0  0.54525633372E+00  0.56113244738E+02 -0.60406726707E+02  0.82449779690E+02  0.00000000000E+00 0. -1.
<scales pt_clust_5="13000.00000" pt_clust_6="13000.00000" pt_clust_7="13000.00000" pt_clust_8="13000.00000" pt_clust_9="30.34246" pt_clust_10="13000.00000"></scales>
<clustering>
<clus scale="   30.342">  1  9  2 -1</clus>
<clus scale="   86.014">  5  6 -1 -1</clus>
<clus scale="   91.655">  7  8 -1 -1</clus>
<clus scale="   51.557">  7 10 -1 -1</clus>
<clus scale="  230.216">  2  5  1 -1</clus>
<clus scale="   30.342">  1  5  2 -1</clus>
</clustering>
</event>
<event>
10    4  0.2565852E-005  0.4808284E+03  0.7546771E-02  0.1048927E+00
          2   -1    0    0  503    0 -0.00000000000E+00  0.00000000000E+00  0.11956508358E+04  0.11956508358E+04  0.00000000000E+00 0. -1.
         21   -1    0    0  501  502  0.00000000000E+00 -0.00000000000E+00 -0.11759082508E+03  0.11759082508E+03  0.00000000000E+00 0.  1.
         24    2    1    2    0    0  0.12293386954E+03 -0.13711954003E+03  0.45073614986E+03  0.49324832819E+03  0.78843718430E+02 0.  0.
         23    2    1    2    0    0  0.56918311587E+02 -0.87582698984E+02  0.30369637734E+02  0.14129662285E+03  0.90177588003E+02 0.  0.
        -13    1    3    3    0    0  0.13984439036E+02 -0.71665923703E+02  0.17546670158E+03  0.19005297292E+03  0.00000000000E+00 0.  1.
         14    1    3    3    0    0  0.10894943050E+03 -0.65453616324E+02  0.27526944828E+03  0.30319535527E+03  0.00000000000E+00 0. -1.
        -13    1    4    4    0    0  0.66848665566E+02 -0.59643894326E+02 -0.11146201660E+02  0.90279433039E+02  0.00000000000E+00 0.  1.
         13    1    4    4    0    0 -0.99303539788E+01 -0.27938804657E+02  0.41515839394E+02  0.51017189813E+02  0.00000000000E+00 0. -1.
         21    1    1    2  503  502 -0.34951270930E+02 -0.17032380492E+02  0.10148128425E+03  0.10867448816E+03  0.00000000000E+00 0. -1.
          1    1    1    2  501    0 -0.14490091020E+03  0.24173461950E+03  0.49547293884E+03  0.57002222164E+03  0.00000000000E+00 0. -1.
<scales pt_clust_5="13000.00000" pt_clust_6="13000.00000" pt_clust_7="13000.00000" pt_clust_8="13000.00000" pt_clust_9="38.88052" pt_clust_10="13000.00000"></scales>
<clustering>
<clus scale="   38.881">  2  9  1 -1</clus>
<clus scale="   78.844">  5  6 -1 -1</clus>
<clus scale="   90.178">  7  8 -1 -1</clus>
<clus scale="  198.625">  1  5  2 -1</clus>
<clus scale="  142.346">  7 10 -1 -1</clus>
<clus scale="   38.881">  2  5  1 -1</clus>
</clustering>
</event>
<event>
10    4  0.3396195E-005  0.8477057E+03  0.7546771E-02  0.9713212E-01
          2   -1    0    0  503    0 -0.00000000000E+00  0.00000000000E+00  0.11890155745E+04  0.11890155745E+04  0.00000000000E+00 0. -1.
         21   -1    0    0  501  502  0.00000000000E+00 -0.00000000000E+00 -0.41572986611E+03  0.41572986611E+03  0.00000000000E+00 0. -1.
         24    2    1    2    0    0  0.39475798592E+03  0.46543273971E+02 -0.31018711337E+02  0.40703332331E+03  0.81937915750E+02 0.  0.
         23    2    1    2    0    0  0.18091313169E+03  0.11339026810E+03  0.35608524200E+03  0.42505356752E+03  0.91032530287E+02 0.  0.
        -13    1    3    3    0    0  0.27246069237E+03 -0.39709360917E+01 -0.34523539226E+02  0.27466793038E+03  0.00000000000E+00 0.  1.
         14    1    3    3    0    0  0.12229729355E+03  0.50514210063E+02  0.35048278888E+01  0.13236539293E+03  0.00000000000E+00 0. -1.
        -11    1    4    4    0    0  0.15121903728E+03  0.12588413186E+03  0.27800928552E+03  0.34059238794E+03  0.00000000000E+00 0. -1.
         11    1    4    4    0    0  0.29694094407E+02 -0.12493863759E+02  0.78075956486E+02  0.84461179577E+02  0.00000000000E+00 0.  1.
         21    1    1    2  503  502 -0.16150957865E+02  0.29440926277E+02  0.45272758537E+01  0.33883887124E+02  0.00000000000E+00 0. -1.
          1    1    1    2  501    0 -0.55952015974E+03 -0.18937446835E+03  0.44369190191E+03  0.73877466270E+03  0.00000000000E+00 0. -1.
<scales pt_clust_5="13000.00000" pt_clust_6="13000.00000" pt_clust_7="13000.00000" pt_clust_8="13000.00000" pt_clust_9="33.58008" pt_clust_10="13000.00000"></scales>
<clustering>
<clus scale="   33.580">  2  9  1 -1</clus>
<clus scale="   81.938">  5  6 -1 -1</clus>
<clus scale="   91.033">  7  8 -1 -1</clus>
<clus scale="  399.479">  1  5  2 -1</clus>
<clus scale="  361.635">  7 10 -1 -1</clus>
<clus scale="   33.580">  2  5  1 -1</clus>
</clustering>
</event>
<event>
10    4  0.2565852E-005  0.2096112E+03  0.7546771E-02  0.1172514E+00
         21   -1    0    0  503  502  0.00000000000E+00  0.00000000000E+00  0.64006329296E+02  0.64006329296E+02  0.00000000000E+00 0.  1.
          2   -1    0    0  502    0 -0.00000000000E+00 -0.00000000000E+00 -0.13535931549E+04  0.13535931549E+04  0.00000000000E+00 0. -1.
         24    2    1    2    0    0  0.50380795233E+02 -0.27783794530E+02 -0.65391155376E+03  0.66198783514E+03  0.85541860858E+02 0.  0.
         23    2    1    2    0    0 -0.53327398477E+02 -0.82098744714E+01 -0.22718183312E+03  0.25213569010E+03  0.95129424752E+02 0.  0.
        -13    1    3    3    0    0 -0.14721830843E+01  0.23609088870E+02 -0.79180393026E+02  0.82638314601E+02  0.00000000000E+00 0.  1.
         14    1    3    3    0    0  0.51852978318E+02 -0.51392883400E+02 -0.57473116073E+03  0.57934952053E+03  0.00000000000E+00 0. -1.
        -11    1    4    4    0    0 -0.92899872806E+01 -0.34291240801E+02 -0.24660998611E+02  0.43247634754E+02  0.00000000000E+00 0.  1.
         11    1    4    4    0    0 -0.44037411196E+02  0.26081366330E+02 -0.20252083451E+03  0.20888805534E+03  0.00000000000E+00 0. -1.
         21    1    1    2  503  501 -0.37621632004E+02 -0.42661155777E+02  0.24207505240E+02  0.61817187876E+02  0.00000000000E+00 0.  1.
          1    1    1    2  501    0  0.40568235248E+02  0.78654824778E+02 -0.43270094399E+03  0.44165877111E+03  0.00000000000E+00 0. -1.
<scales pt_clust_5="13000.00000" pt_clust_6="13000.00000" pt_clust_7="13000.00000" pt_clust_8="13000.00000" pt_clust_9="56.88024" pt_clust_10="13000.00000"></scales>
<clustering>
<clus scale="   56.880">  1  9  2 -1</clus>
<clus scale="   85.542">  5  6 -1 -1</clus>
<clus scale="   95.129">  7  8 -1 -1</clus>
<clus scale="   76.790">  7 10 -1 -1</clus>
<clus scale="  102.343">  2  5  1 -1</clus>
<clus scale="   56.880">  1  5  2 -1</clus>
</clustering>
</event>
<event>
10    4  0.2565852E-005  0.2539217E+03  0.7546771E-02  0.1156467E+00
         21   -1    0    0  503  502  0.00000000000E+00  0.00000000000E+00  0.28659649995E+03  0.28659649995E+03  0.00000000000E+00 0. -1.
          2   -1    0    0  502    0 -0.00000000000E+00 -0.00000000000E+00 -0.57326977266E+03  0.57326977266E+03  0.00000000000E+00 0. -1.
         24    2    1    2    0    0 -0.20145713551E+02  0.72112208508E+01 -0.47794878184E+03  0.48519577322E+03  0.80759202646E+02 0.  0.
         23    2    1    2    0    0 -0.10929142632E+03  0.34747083618E+02  0.88179834630E+02  0.16933639060E+03  0.88017920104E+02 0.  0.
        -11    1    3    3    0    0  0.83404961200E+01 -0.26577142472E+02 -0.78228161207E+02  0.83039470033E+02  0.00000000000E+00 0.  1.
         12    1    3    3    0    0 -0.28486209671E+02  0.33788363323E+02 -0.39972062063E+03  0.40215630319E+03  0.00000000000E+00 0. -1.
        -11    1    4    4    0    0 -0.65958960960E+01  0.33128774306E+02 -0.28756430103E+00  0.33780234244E+02  0.00000000000E+00 0.  1.
         11    1    4    4    0    0 -0.10269553022E+03  0.16183093123E+01  0.88467398931E+02  0.13555615635E+03  0.00000000000E+00 0. -1.
         21    1    1    2  503  501  0.47317740804E+02  0.32265488782E+02  0.68657390979E+02  0.89408431913E+02  0.00000000000E+00 0. -1.
          1    1    1    2  501    0  0.82119399062E+02 -0.74223793251E+02  0.34438283522E+02  0.11592567687E+03  0.00000000000E+00 0. -1.
<scales pt_clust_5="13000.00000" pt_clust_6="13000.00000" pt_clust_7="13000.00000" pt_clust_8="13000.00000" pt_clust_9="57.27155" pt_clust_10="13000.00000"></scales>
<clustering>
<clus scale="   57.272">  1  9  2 -1</clus>
<clus scale="   80.759">  5  6 -1 -1</clus>
<clus scale="   83.401">  2  5  1 -1</clus>
<clus scale="   88.018">  7  8 -1 -1</clus>
<clus scale="  106.299">  7 10 -1 -1</clus>
<clus scale="   57.272">  1  5  2 -1</clus>
</clustering>
</event>
<event>
10    4  0.2565852E-005  0.2609456E+03  0.7546771E-02  0.1152956E+00
          2   -1    0    0  502    0 -0.00000000000E+00  0.00000000000E+00  0.92891431834E+03  0.92891431834E+03  0.00000000000E+00 0. -1.
         21   -1    0    0  503  502  0.00000000000E+00 -0.00000000000E+00 -0.90253175597E+02  0.90253175597E+02  0.00000000000E+00 0.  1.
         24    2    1    2    0    0 -0.59310266445E+01  0.21780823186E+02  0.16444829044E+03  0.18441150087E+03  0.80341646060E+02 0.  0.
         23    2    1    2    0    0 -0.20505879387E+02  0.10331647532E+03  0.24696737179E+03  0.28364649535E+03  0.91474949767E+02 0.  0.
        -13    1    3    3    0    0  0.26232614457E+02 -0.12741815157E+02  0.29628198817E+02  0.41573237544E+02  0.00000000000E+00 0.  1.
         14    1    3    3    0    0 -0.32163641102E+02  0.34522638343E+02  0.13482009162E+03  0.14283826333E+03  0.00000000000E+00 0. -1.
        -11    1    4    4    0    0  0.27886722909E+02  0.77303205521E+02  0.12155883642E+03  0.14673106559E+03  0.00000000000E+00 0. -1.
         11    1    4    4    0    0 -0.48392602296E+02  0.26013269801E+02  0.12540853537E+03  0.13691542976E+03  0.00000000000E+00 0.  1.
         21    1    1    2  503  501  0.80154363331E+02 -0.51821748704E+02 -0.17620577400E+02  0.97060292332E+02  0.00000000000E+00 0.  1.
          1    1    1    2  501    0 -0.53717457299E+02 -0.73275549804E+02  0.44486605792E+03  0.45404920538E+03  0.00000000000E+00 0. -1.
<scales pt_clust_5="13000.00000" pt_clust_6="13000.00000" pt_clust_7="13000.00000" pt_clust_8="13000.00000" pt_clust_9="94.56601" pt_clust_10="13000.00000"></scales>
<clustering>
<clus scale="   80.342">  5  6 -1 -1</clus>
<clus scale="   83.453">  1  5  2 -1</clus>
<clus scale="   91.475">  7  8 -1 -1</clus>
<clus scale="   83.149">  7 10 -1 -1</clus>
<clus scale="   94.566">  2  9  1 -1</clus>
<clus scale="   94.566">  2  5  1 -1</clus>
</clustering>
</event>
<event>
10    4  0.2565852E-005  0.4010303E+03  0.7546771E-02  0.1094928E+00
          2   -1    0    0  502    0 -0.00000000000E+00  0.00000000000E+00  0.14039357719E+04  0.14039357719E+04  0.00000000000E+00 0. -1.
         21   -1    0    0  503  502  0.00000000000E+00 -0.00000000000E+00 -0.59644171153E+02  0.59644171153E+02  0.00000000000E+00 0.  1.
         24    2    1    2    0    0  0.93789357614E+01 -0.42155128176E+02  0.24244800901E+03  0.25909072270E+03  0.80510535031E+02 0.  0.
         23    2    1    2    0    0  0.15857472041E+03 -0.16078693870E+02  0.32257931652E+03  0.37155108372E+03  0.92673221664E+02 0.  0.
        -11    1    3    3    0    0 -0.88695326006E+01 -0.61182948690E+02  0.13543544442E+03  0.14887841155E+03  0.00000000000E+00 0.  1.
         12    1    3    3    0    0  0.18248468362E+02  0.19027820513E+02  0.10701256459E+03  0.11021231116E+03  0.00000000000E+00 0. -1.
        -11    1    4    4    0    0  0.86278305558E+02 -0.49234941666E+02  0.22285874001E+03  0.24399599073E+03  0.00000000000E+00 0.  1.
         11    1    4    4    0    0  0.72296414850E+02  0.33156247796E+02  0.99720576512E+02  0.12755509299E+03  0.00000000000E+00 0. -1.
         21    1    1    2  503  501  0.12678086364E+02 -0.70959304267E+02  0.18908429324E+03  0.20235816436E+03  0.00000000000E+00 0.  1.
          1    1    1    2  501    0 -0.18063174253E+03  0.12919312631E+03  0.59017998197E+03  0.63057997226E+03  0.00000000000E+00 0. -1.
<scales pt_clust_5="13000.00000" pt_clust_6="13000.00000" pt_clust_7="13000.00000" pt_clust_8="13000.00000" pt_clust_9="72.08302" pt_clust_10="13000.00000"></scales>
<clustering>
<clus scale="   72.083">  2  9  1 -1</clus>
<clus scale="   80.511">  5  6 -1 -1</clus>
<clus scale="   92.673">  7  8 -1 -1</clus>
<clus scale="   97.219">  1  5  2 -1</clus>
<clus scale="  184.899">  7 10 -1 -1</clus>
<clus scale="   72.083">  2  5  1 -1</clus>
</clustering>
</event>
<event>
10    4  0.2565852E-005  0.1825621E+03  0.7546771E-02  0.1185102E+00
         21   -1    0    0  501  502  0.00000000000E+00  0.00000000000E+00  0.56879156119E+03  0.56879156119E+03  0.00000000000E+00 0.  1.
          2   -1    0    0  503    0 -0.00000000000E+00 -0.00000000000E+00 -0.97683051995E+02  0.97683051995E+02  0.00000000000E+00 0. -1.
         24    2    1    2    0    0 -0.49024642647E+02 -0.87882926006E+02  0.77824153868E+02  0.14951404050E+03  0.78555872541E+02 0.  0.
         23    2    1    2    0    0 -0.18288710098E+02  0.46412374013E+02  0.33368902280E+02  0.10886902106E+03  0.90831683508E+02 0.  0.
        -13    1    3    3    0    0 -0.63507912104E+02 -0.38915756054E+02  0.32607164324E+02  0.81307552751E+02  0.00000000000E+00 0.  1.
         14    1    3    3    0    0  0.14483269458E+02 -0.48967169953E+02  0.45216989544E+02  0.68206487747E+02  0.00000000000E+00 0. -1.
        -11    1    4    4    0    0 -0.50831382629E+02  0.15930091666E+02  0.15549178450E+00  0.53269329432E+02  0.00000000000E+00 0. -1.
         11    1    4    4    0    0  0.32542672531E+02  0.30482282347E+02  0.33213410495E+02  0.55599691629E+02  0.00000000000E+00 0.  1.
         21    1    1    2  503  502 -0.50660598699E+01  0.39673415665E+02  0.32546183616E+03  0.32791012743E+03  0.00000000000E+00 0.  1.
          1    1    1    2  501    0  0.72379412615E+02  0.17971363286E+01  0.34453616884E+02  0.80181424194E+02  0.00000000000E+00 0. -1.
<scales pt_clust_5="13000.00000" pt_clust_6="13000.00000" pt_clust_7="13000.00000" pt_clust_8="13000.00000" pt_clust_9="39.99556" pt_clust_10="13000.00000"></scales>
<clustering>
<clus scale="   39.996">  1  9  2 -1</clus>
<clus scale="   78.556">  5  6 -1 -1</clus>
<clus scale="   90.832">  7  8 -1 -1</clus>
<clus scale="   72.054">  7 10 -1 -1</clus>
<clus scale="  116.661">  2  5  1 -1</clus>
<clus scale="   39.996">  1  5  2 -1</clus>
</clustering>
</event>
<event>
10    4  0.2565852E-005  0.3835990E+03  0.7546771E-02  0.1098589E+00
         21   -1    0    0  501  502  0.00000000000E+00  0.00000000000E+00  0.43030555246E+03  0.43030555246E+03  0.00000000000E+00 0. -1.
          2   -1    0    0  503    0 -0.00000000000E+00 -0.00000000000E+00 -0.31770153401E+03  0.31770153401E+03  0.00000000000E+00 0. -1.
         24    2    1    2    0    0  0.39821883418E+02  0.44213197464E+02 -0.20017155013E+03  0.22398158817E+03  0.80984647486E+02 0.  0.
         23    2    1    2    0    0 -0.18270088890E+01  0.74247263737E+02 -0.46051040637E+02  0.12631713877E+03  0.91210345182E+02 0.  0.
        -11    1    3    3    0    0  0.58551393371E+02  0.19521356238E+02 -0.87175528606E+02  0.10681255452E+03  0.00000000000E+00 0.  1.
         12    1    3    3    0    0 -0.18729509954E+02  0.24691841225E+02 -0.11299602153E+03  0.11716903365E+03  0.00000000000E+00 0. -1.
        -13    1    4    4    0    0  0.40581559580E+02  0.58250824687E+02 -0.18837277121E+02  0.73449741756E+02  0.00000000000E+00 0. -1.
         13    1    4    4    0    0 -0.42408568469E+02  0.15996439050E+02 -0.27213763516E+02  0.52867397010E+02  0.00000000000E+00 0.  1.
         21    1    1    2  503  502  0.19882239102E+02  0.15657040529E+02  0.47694467160E+02  0.53992671239E+02  0.00000000000E+00 0.  1.
          1    1    1    2  501    0 -0.57877113631E+02 -0.13411750173E+03  0.31113214206E+03  0.34371568829E+03  0.00000000000E+00 0. -1.
<scales pt_clust_5="13000.00000" pt_clust_6="13000.00000" pt_clust_7="13000.00000" pt_clust_8="13000.00000" pt_clust_9="25.30704" pt_clust_10="13000.00000"></scales>
<clustering>
<clus scale="   25.307">  1  9  2 -1</clus>
<clus scale="   80.985">  5  6 -1 -1</clus>
<clus scale="   91.210">  7  8 -1 -1</clus>
<clus scale="  100.960">  2  5  1 -1</clus>
<clus scale="  119.254">  7 10 -1 -1</clus>
<clus scale="   25.307">  1  5  2 -1</clus>
</clustering>
</event>
<event>
10    4  0.2565852E-005  0.1337243E+03  0.7546771E-02  0.1244190E+00
         21   -1    0    0  503  502  0.00000000000E+00  0.00000000000E+00  0.23922274369E+02  0.23922274369E+02  0.00000000000E+00 0.  1.
          2   -1    0    0  502    0 -0.00000000000E+00 -0.00000000000E+00 -0.71260452406E+03  0.71260452406E+03  0.00000000000E+00 0. -1.
         24    2    1    2    0    0 -0.14753423601E+02 -0.25150561958E+02 -0.14199003958E+03  0.16654786650E+03  0.82017109318E+02 0.  0.
         23    2    1    2    0    0 -0.40965164611E+02  0.22609956367E+02 -0.37462856031E+03  0.38786020081E+03  0.88879819635E+02 0.  0.
        -13    1    3    3    0    0  0.21710944185E+02 -0.38084131201E+02 -0.48542372634E+02  0.65407400863E+02  0.00000000000E+00 0.  1.
         14    1    3    3    0    0 -0.36464367786E+02  0.12933569244E+02 -0.93447666950E+02  0.10114046564E+03  0.00000000000E+00 0. -1.
        -13    1    4    4    0    0 -0.34762708002E+02  0.52273869931E+02 -0.31239151050E+03  0.31863687668E+03  0.00000000000E+00 0.  1.
         13    1    4    4    0    0 -0.62024566089E+01 -0.29663913564E+02 -0.62237049810E+02  0.69223324140E+02  0.00000000000E+00 0. -1.
         21    1    1    2  503  501  0.22791356593E+02  0.61030522969E+01 -0.45008250364E+02  0.50817671961E+02  0.00000000000E+00 0. -1.
          1    1    1    2  501    0  0.32927231619E+02 -0.35624467062E+01 -0.12705539943E+03  0.13130105915E+03  0.00000000000E+00 0. -1.
<scales pt_clust_5="13000.00000" pt_clust_6="13000.00000" pt_clust_7="13000.00000" pt_clust_8="13000.00000" pt_clust_9="23.59435" pt_clust_10="13000.00000"></scales>
<clustering>
<clus scale="   23.594">  1  9  2 -1</clus>
<clus scale="   82.017">  5  6 -1 -1</clus>
<clus scale="   84.822">  2  5  1 -1</clus>
<clus scale="   88.880">  7  8 -1 -1</clus>
<clus scale="   35.994">  7 10 -1 -1</clus>
<clus scale="   23.594">  1  5  2 -1</clus>
</clustering>
</event>
<event>
10    4  0.2565852E-005  0.2645727E+03  0.7546771E-02  0.1130467E+00
         21   -1    0    0  501  502  0.00000000000E+00  0.00000000000E+00  0.14808366325E+03  0.14808366325E+03  0.00000000000E+00 0. -1.
          2   -1    0    0  503    0 -0.00000000000E+00 -0.00000000000E+00 -0.45488228644E+03  0.45488228644E+03  0.00000000000E+00 0. -1.
         24    2    1    2    0    0  0.23444868423E+02 -0.10809991424E+03 -0.28103472459E+03  0.31252619474E+03  0.80354543493E+02 0.  0.
         23    2    1    2    0    0 -0.12040401755E+02 -0.47276870493E+02 -0.35610651867E+01  0.10536192339E+03  0.93318701002E+02 0.  0.
        -11    1    3    3    0    0 -0.50883495852E+01 -0.66136278660E+02 -0.74063455270E+02  0.99424816133E+02  0.00000000000E+00 0.  1.
         12    1    3    3    0    0  0.28533218008E+02 -0.41963635582E+02 -0.20697126932E+03  0.21310137861E+03  0.00000000000E+00 0. -1.
        -13    1    4    4    0    0 -0.20932928054E+02 -0.17064147855E+02 -0.45501672759E+02  0.52912898643E+02  0.00000000000E+00 0.  1.
         13    1    4    4    0    0  0.88925262989E+01 -0.30212722638E+02  0.41940607572E+02  0.52449024745E+02  0.00000000000E+00 0. -1.
         21    1    1    2  503  502  0.19847056349E+02 -0.42194809121E+01  0.29935524033E+01  0.20510266231E+02  0.00000000000E+00 0. -1.
          1    1    1    2  501    0 -0.31251523017E+02  0.15959626565E+03 -0.25196385815E+02  0.16456756533E+03  0.00000000000E+00 0. -1.
<scales pt_clust_5="13000.00000" pt_clust_6="13000.00000" pt_clust_7="13000.00000" pt_clust_8="13000.00000" pt_clust_9="20.29063" pt_clust_10="13000.00000"></scales>
<clustering>
<clus scale="   20.291">  1  9  2 -1</clus>
<clus scale="   80.355">  5  6 -1 -1</clus>
<clus scale="   93.319">  7  8 -1 -1</clus>
<clus scale="  137.515">  2  5  1 -1</clus>
<clus scale="   91.781">  7 10 -1 -1</clus>
<clus scale="   20.291">  1  5  2 -1</clus>
</clustering>
</event>
<event>
10    4  0.2565852E-005  0.5547108E+03  0.7546771E-02  0.1027038E+00
         21   -1    0    0  501  502  0.00000000000E+00  0.00000000000E+00  0.24635376049E+03  0.24635376049E+03  0.00000000000E+00 0. -1.
          2   -1    0    0  503    0 -0.00000000000E+00 -0.00000000000E+00 -0.11819448196E+04  0.11819448196E+04  0.00000000000E+00 0. -1.
         24    2    1    2    0    0  0.41376767100E+02 -0.22835696550E+03 -0.32168074621E+03  0.40478965602E+03  0.80729316826E+02 0.  0.
         23    2    1    2    0    0 -0.94318388646E+01 -0.15342902621E+03 -0.22963598868E+03  0.29120103736E+03  0.91847325474E+02 0.  0.
        -11    1    3    3    0    0  0.21987038732E+02 -0.32816621488E+02 -0.18789641790E+02  0.43742555443E+02  0.00000000000E+00 0.  1.
         12    1    3    3    0    0  0.19389728369E+02 -0.19554034401E+03 -0.30289110442E+03  0.36104710058E+03  0.00000000000E+00 0. -1.
        -13    1    4    4    0    0 -0.28313652091E+02 -0.95080185916E+02 -0.73543766733E+02  0.12349328028E+03  0.00000000000E+00 0. -1.
         13    1    4    4    0    0  0.18881813226E+02 -0.58348840290E+02 -0.15609222194E+03  0.16770775708E+03  0.00000000000E+00 0.  1.
         21    1    1    2  503  502  0.63849913912E+02  0.16293841825E+02  0.98961051009E+02  0.11889318906E+03  0.00000000000E+00 0. -1.
          1    1    1    2  501    0 -0.95794842148E+02  0.36549214988E+03 -0.48323537520E+03  0.61341469762E+03  0.00000000000E+00 0. -1.
<scales pt_clust_5="13000.00000" pt_clust_6="13000.00000" pt_clust_7="13000.00000" pt_clust_8="13000.00000" pt_clust_9="65.89614" pt_clust_10="13000.00000"></scales>
<clustering>
<clus scale="   65.896">  1  9  2 -1</clus>
<clus scale="   80.729">  5  6 -1 -1</clus>
<clus scale="   91.847">  7  8 -1 -1</clus>
<clus scale="  245.195">  2  5  1 -1</clus>
<clus scale="  222.105">  7 10 -1 -1</clus>
<clus scale="   65.896">  1  5  2 -1</clus>
</clustering>
</event>
<event>
10    4  0.2565852E-005  0.2254132E+03  0.7546771E-02  0.1166304E+00
         21   -1    0    0  503  502  0.00000000000E+00  0.00000000000E+00  0.26822376062E+03  0.26822376062E+03  0.00000000000E+00 0. -1.
          4   -1    0    0  502    0 -0.00000000000E+00 -0.00000000000E+00 -0.27492852806E+03  0.27492852806E+03  0.00000000000E+00 0. -1.
         24    2    1    2    0    0  0.13481378414E+02  0.58081307935E+02 -0.60640644383E+02  0.11540311732E+03  0.78009011285E+02 0.  0.
         23    2    1    2    0    0 -0.87947460593E+01  0.59564727252E+02 -0.11614976226E+03  0.15959960963E+03  0.91410961211E+02 0.  0.
        -11    1    3    3    0    0  0.22586270773E+02  0.57633582851E+02 -0.75707852261E+02  0.97792885189E+02  0.00000000000E+00 0.  1.
         12    1    3    3    0    0 -0.91048923596E+01  0.44772508354E+00  0.15067207878E+02  0.17610232135E+02  0.00000000000E+00 0. -1.
        -13    1    4    4    0    0 -0.50123090981E+02  0.27805669900E+02 -0.62285242656E+02  0.84645915322E+02  0.00000000000E+00 0.  1.
         13    1    4    4    0    0  0.41328344922E+02  0.31759057352E+02 -0.53864519604E+02  0.74953694305E+02  0.00000000000E+00 0. -1.
         21    1    1    2  503  501  0.38817084154E+02 -0.35275726952E+02  0.16689398272E+03  0.17494211729E+03  0.00000000000E+00 0. -1.
          3    1    1    2  501    0 -0.43503716509E+02 -0.82370308234E+02  0.31916564848E+01  0.93207444444E+02  0.00000000000E+00 0. -1.
<scales pt_clust_5="13000.00000" pt_clust_6="13000.00000" pt_clust_7="13000.00000" pt_clust_8="13000.00000" pt_clust_9="52.45134" pt_clust_10="13000.00000"></scales>
<clustering>
<clus scale="   52.451">  1  9  2 -1</clus>
<clus scale="   78.009">  5  6 -1 -1</clus>
<clus scale="   91.411">  7  8 -1 -1</clus>
<clus scale="   94.868">  2  5  1 -1</clus>
<clus scale="   86.513">  7 10 -1 -1</clus>
<clus scale="   52.451">  1  5  2 -1</clus>
</clustering>
</event>
<event>
10    4  0.2757225E-005  0.3907210E+03  0.7546771E-02  0.1067949E+00
         21   -1    0    0  503  502  0.00000000000E+00  0.00000000000E+00  0.55251264450E+02  0.55251264450E+02  0.00000000000E+00 0. -1.
          2   -1    0    0  502    0 -0.00000000000E+00 -0.00000000000E+00 -0.22095692828E+04  0.22095692828E+04  0.00000000000E+00 0. -1.
         24    2    1    2    0    0 -0.15927387016E+03 -0.11466094432E+03 -0.12045370410E+04  0.12232678497E+04  0.83423324296E+02 0.  0.
         23    2    1    2    0    0  0.27044284988E+02 -0.94694380830E+02 -0.18939172233E+03  0.22585127706E+03  0.73764190187E+02 0.  0.
        -13    1    3    3    0    0 -0.19628772776E+02 -0.28815515611E+02 -0.86248344173E+02  0.93029025219E+02  0.00000000000E+00 0.  1.
         14    1    3    3    0    0 -0.13964509738E+03 -0.85845428707E+02 -0.11182886969E+04  0.11302388245E+04  0.00000000000E+00 0. -1.
        -11    1    4    4    0    0  0.56180984296E+01 -0.30065946859E+02 -0.13580208251E+03  0.13920391448E+03  0.00000000000E+00 0.  1.
         11    1    4    4    0    0  0.21426186558E+02 -0.64628433971E+02 -0.53589639813E+02  0.86647362586E+02  0.00000000000E+00 0. -1.
         21    1    1    2  503  501 -0.17915885346E+02 -0.15260276815E+02 -0.87175313606E+02  0.90296125600E+02  0.00000000000E+00 0.  1.
          1    1    1    2  501    0  0.15014547052E+03  0.22461560196E+03 -0.67321394136E+03  0.72540529486E+03  0.00000000000E+00 0. -1.
<scales pt_clust_5="13000.00000" pt_clust_6="13000.00000" pt_clust_7="13000.00000" pt_clust_8="13000.00000" pt_clust_9="23.53414" pt_clust_10="13000.00000"></scales>
<clustering>
<clus scale="   23.534">  1  9  2 -1</clus>
<clus scale="   73.764">  7  8 -1 -1</clus>
<clus scale="   83.423">  5  6 -1 -1</clus>
<clus scale="  217.020">  2  5  1 -1</clus>
<clus scale="  135.675">  7 10 -1 -1</clus>
<clus scale="   23.534">  1  5  2 -1</clus>
</clustering>
</event>
<event>
10    4  0.2565852E-005  0.3717349E+03  0.7546771E-02  0.1077260E+00
         21   -1    0    0  501  502  0.00000000000E+00  0.00000000000E+00  0.21351309102E+03  0.21351309102E+03  0.00000000000E+00 0. -1.
          2   -1    0    0  503    0 -0.00000000000E+00 -0.00000000000E+00 -0.10294990040E+04  0.10294990040E+04  0.00000000000E+00 0. -1.
         24    2    1    2    0    0  0.15154272094E+03 -0.82586231525E+02 -0.63097433750E+03  0.65912524502E+03  0.80819503421E+02 0.  0.
         23    2    1    2    0    0  0.26646846260E+02 -0.19487525353E+02  0.19005775501E+02  0.97469818380E+02  0.89718046862E+02 0.  0.
        -13    1    3    3    0    0  0.52198927410E+02 -0.19527783764E+02 -0.92897388274E+02  0.10833276102E+03  0.00000000000E+00 0.  1.
         14    1    3    3    0    0  0.99343793532E+02 -0.63058447760E+02 -0.53807694923E+03  0.55079248400E+03  0.00000000000E+00 0. -1.
        -11    1    4    4    0    0 -0.25122953732E+02 -0.30041941248E+02  0.21310297943E+02  0.44584861069E+02  0.00000000000E+00 0. -1.
         11    1    4    4    0    0  0.51769799992E+02  0.10554415895E+02 -0.23045224421E+01  0.52884957311E+02  0.00000000000E+00 0.  1.
         21    1    1    2  503  502 -0.64625115422E+01 -0.11085090226E+03  0.41802802983E+02  0.11864721204E+03  0.00000000000E+00 0. -1.
          1    1    1    2  501    0 -0.17172705566E+03  0.21292465914E+03 -0.24582015400E+03  0.36776981963E+03  0.00000000000E+00 0. -1.
<scales pt_clust_5="13000.00000" pt_clust_6="13000.00000" pt_clust_7="13000.00000" pt_clust_8="13000.00000" pt_clust_9="111.03912" pt_clust_10="13000.00000"></scales>
<clustering>
<clus scale="   80.820">  5  6 -1 -1</clus>
<clus scale="   89.718">  7  8 -1 -1</clus>
<clus scale="  111.039">  1  9  2 -1</clus>
<clus scale="  195.401">  2  5  1 -1</clus>
<clus scale="  115.246">  7 10 -1 -1</clus>
<clus scale="  111.039">  1  5  2 -1</clus>
</clustering>
</event>
<event>
10    4  0.2565852E-005  0.4935047E+03  0.7546771E-02  0.1028410E+00
          2   -1    0    0  503    0 -0.00000000000E+00  0.00000000000E+00  0.57609354278E+03  0.57609354278E+03  0.00000000000E+00 0. -1.
         21   -1    0    0  501  502  0.00000000000E+00 -0.00000000000E+00 -0.73735712406E+03  0.73735712406E+03  0.00000000000E+00 0. -1.
         24    2    1    2    0    0  0.16519931593E+03 -0.31124649531E+03  0.89464127706E+02  0.37236075375E+03  0.80520220811E+02 0.  0.
         23    2    1    2    0    0  0.58266278260E+02 -0.42069097185E+01  0.90730266768E+02  0.15279369441E+03  0.10817242935E+03 0.  0.
        -11    1    3    3    0    0  0.79151453528E+02 -0.21341268393E+03  0.81708959667E+02  0.24183936889E+03  0.00000000000E+00 0.  1.
         12    1    3    3    0    0  0.86047862398E+02 -0.97833811385E+02  0.77551680391E+01  0.13052138486E+03  0.00000000000E+00 0. -1.
        -11    1    4    4    0    0  0.20275556285E+02 -0.39602936275E+02  0.90526150599E+02  0.10086860109E+03  0.00000000000E+00 0. -1.
         11    1    4    4    0    0  0.37990721975E+02  0.35396026557E+02  0.20411616868E+00  0.51925093313E+02  0.00000000000E+00 0.  1.
         21    1    1    2  503  502  0.44075344152E+02  0.98425817990E+02 -0.42111812461E+03  0.43470766324E+03  0.00000000000E+00 0. -1.
          1    1    1    2  501    0 -0.26754093834E+03  0.21702758704E+03  0.79660148857E+02  0.35358855544E+03  0.00000000000E+00 0. -1.
<scales pt_clust_5="13000.00000" pt_clust_6="13000.00000" pt_clust_7="13000.00000" pt_clust_8="13000.00000" pt_clust_9="107.84376" pt_clust_10="13000.00000"></scales>
<clustering>
<clus scale="   80.520">  5  6 -1 -1</clus>
<clus scale="  107.844">  2  9  1 -1</clus>
<clus scale="  108.172">  7  8 -1 -1</clus>
<clus scale="  334.259">  1  5  2 -1</clus>
<clus scale="  155.720">  7 10 -1 -1</clus>
<clus scale="  107.844">  2  5  1 -1</clus>
</clustering>
</event>
<event>
10    4  0.2565852E-005  0.1546995E+03  0.7546771E-02  0.1212483E+00
         21   -1    0    0  503  502  0.00000000000E+00  0.00000000000E+00  0.76497003220E+02  0.76497003220E+02  0.00000000000E+00 0.  1.
          2   -1    0    0  502    0 -0.00000000000E+00 -0.00000000000E+00 -0.58871392566E+03  0.58871392566E+03  0.00000000000E+00 0. -1.
         24    2    1    2    0    0  0.42216684499E+02 -0.41367221001E+02 -0.28937215553E+03  0.30708689069E+03  0.84098862128E+02 0.  0.
         23    2    1    2    0    0 -0.14162949355E+02  0.53537680405E+02 -0.10051525677E+03  0.14725459888E+03  0.92269863393E+02 0.  0.
        -11    1    3    3    0    0  0.25740497936E+02  0.22636626366E+02 -0.13247741033E+03  0.13684025115E+03  0.00000000000E+00 0.  1.
         12    1    3    3    0    0  0.16476186563E+02 -0.64003847368E+02 -0.15689474521E+03  0.17024663954E+03  0.00000000000E+00 0. -1.
        -13    1    4    4    0    0  0.27337567206E+02  0.24748351443E+02 -0.24630660726E+01  0.36957951436E+02  0.00000000000E+00 0.  1.
         13    1    4    4    0    0 -0.41500516561E+02  0.28789328962E+02 -0.98052190702E+02  0.11029664745E+03  0.00000000000E+00 0. -1.
         21    1    1    2  503  501 -0.26202898632E+02 -0.45710773678E+02  0.26020856619E+02  0.58763523602E+02  0.00000000000E+00 0.  1.
          1    1    1    2  501    0 -0.18508365120E+01  0.33540314274E+02 -0.14835036675E+03  0.15210591571E+03  0.00000000000E+00 0. -1.
<scales pt_clust_5="13000.00000" pt_clust_6="13000.00000" pt_clust_7="13000.00000" pt_clust_8="13000.00000" pt_clust_9="52.68839" pt_clust_10="13000.00000"></scales>
<clustering>
<clus scale="   52.688">  1  9  2 -1</clus>
<clus scale="   84.099">  5  6 -1 -1</clus>
<clus scale="   92.270">  7  8 -1 -1</clus>
<clus scale="   31.198">  7 10 -1 -1</clus>
<clus scale="  105.645">  2  5  1 -1</clus>
<clus scale="   52.688">  1  5  2 -1</clus>
</clustering>
</event>
<event>
10    4  0.2565852E-005  0.2071047E+03  0.7546771E-02  0.1169765E+00
         21   -1    0    0  501  502  0.00000000000E+00  0.00000000000E+00  0.34560412185E+03  0.34560412185E+03  0.00000000000E+00 0.  1.
          4   -1    0    0  503    0 -0.00000000000E+00 -0.00000000000E+00 -0.11577099950E+03  0.11577099950E+03  0.00000000000E+00 0. -1.
         24    2    1    2    0    0 -0.44103458808E+02  0.60917223793E+02 -0.58241063746E+01  0.11037056688E+03  0.80571201959E+02 0.  0.
         23    2    1    2    0    0 -0.12806137615E+01 -0.80976808409E+02  0.13755019163E+03  0.18233330678E+03  0.88127725887E+02 0.  0.
        -11    1    3    3    0    0  0.14668882813E+02  0.18007201369E+02  0.22448622541E+02  0.32301332451E+02  0.00000000000E+00 0.  1.
         12    1    3    3    0    0 -0.58772341621E+02  0.42910022424E+02 -0.28272728916E+02  0.78069234430E+02  0.00000000000E+00 0. -1.
        -11    1    4    4    0    0  0.41866034722E+02 -0.35938084944E+02  0.47572715101E+02  0.72852412691E+02  0.00000000000E+00 0.  1.
         11    1    4    4    0    0 -0.43146648484E+02 -0.45038723465E+02  0.89977476534E+02  0.10948089409E+03  0.00000000000E+00 0. -1.
         21    1    1    2  503  502 -0.40455155578E+02 -0.46105473281E+01  0.57754804702E+02  0.70664660373E+02  0.00000000000E+00 0. -1.
          3    1    1    2  501    0  0.85839228148E+02  0.24670131944E+02  0.40352232384E+02  0.98006587317E+02  0.00000000000E+00 0. -1.
<scales pt_clust_5="13000.00000" pt_clust_6="13000.00000" pt_clust_7="13000.00000" pt_clust_8="13000.00000" pt_clust_9="40.71703" pt_clust_10="13000.00000"></scales>
<clustering>
<clus scale="   40.717">  1  9  2 -1</clus>
<clus scale="   80.571">  5  6 -1 -1</clus>
<clus scale="   88.128">  7  8 -1 -1</clus>
<clus scale="   79.459">  7 10 -1 -1</clus>
<clus scale="  112.976">  2  5  1 -1</clus>
<clus scale="   40.717">  1  5  2 -1</clus>
</clustering>
</event>
<event>
10    4  0.2565852E-005  0.4876808E+03  0.7546771E-02  0.1075176E+00
         21   -1    0    0  501  502  0.00000000000E+00  0.00000000000E+00  0.11460309238E+03  0.11460309238E+03  0.00000000000E+00 0.  1.
          2   -1    0    0  503    0 -0.00000000000E+00 -0.00000000000E+00 -0.10133752306E+04  0.10133752306E+04  0.00000000000E+00 0. -1.
         24    2    1    2    0    0 -0.35098432312E+02 -0.11190276702E+02 -0.57655669816E+02  0.10597812833E+03  0.80932472956E+02 0.  0.
         23    2    1    2    0    0 -0.12014753206E+03 -0.39738062984E+01 -0.33062392907E+02  0.15262318764E+03  0.88031215969E+02 0.  0.
        -13    1    3    3    0    0  0.20171391872E+02  0.16706677699E+02 -0.10781210608E+02  0.28323711479E+02  0.00000000000E+00 0.  1.
         14    1    3    3    0    0 -0.55269824184E+02 -0.27896954401E+02 -0.46874459209E+02  0.77654416850E+02  0.00000000000E+00 0. -1.
        -11    1    4    4    0    0 -0.17407341139E+02 -0.36278924488E+02 -0.17204007749E+02  0.43762469881E+02  0.00000000000E+00 0. -1.
         11    1    4    4    0    0 -0.10274019092E+03  0.32305118189E+02 -0.15858385158E+02  0.10886071776E+03  0.00000000000E+00 0.  1.
         21    1    1    2  503  502  0.94096107373E+01 -0.63485637080E+02 -0.24824283673E+02  0.68812876336E+02  0.00000000000E+00 0. -1.
          1    1    1    2  501    0  0.14583635363E+03  0.78649720080E+02 -0.78322979184E+03  0.80056413068E+03  0.00000000000E+00 0. -1.
<scales pt_clust_5="13000.00000" pt_clust_6="13000.00000" pt_clust_7="13000.00000" pt_clust_8="13000.00000" pt_clust_9="64.17918" pt_clust_10="13000.00000"></scales>
<clustering>
<clus scale="   64.179">  1  9  2 -1</clus>
<clus scale="   80.932">  5  6 -1 -1</clus>
<clus scale="   88.031">  7  8 -1 -1</clus>
<clus scale="   91.575">  2  5  1 -1</clus>
<clus scale="  128.610">  7 10 -1 -1</clus>
<clus scale="   64.179">  1  5  2 -1</clus>
</clustering>
</event>
<event>
10    4  0.2565852E-005  0.2312096E+03  0.7546771E-02  0.1165857E+00
         21   -1    0    0  501  502  0.00000000000E+00  0.00000000000E+00  0.20138451166E+03  0.20138451166E+03  0.00000000000E+00 0. -1.
          2   -1    0    0  503    0 -0.00000000000E+00 -0.00000000000E+00 -0.35982173814E+03  0.35982173814E+03  0.00000000000E+00 0. -1.
         24    2    1    2    0    0 -0.18408077661E+02 -0.18240085608E+02 -0.79648089936E+02  0.11697699027E+03  0.81659292039E+02 0.  0.
         23    2    1    2    0    0 -0.23240934968E+02 -0.36197867116E+02 -0.28411500933E+02  0.10806369478E+03  0.94974323389E+02 0.  0.
        -11    1    3    3    0    0  0.18736725633E+02 -0.28387679547E+02 -0.69154676655E+02  0.77066818676E+02  0.00000000000E+00 0.  1.
         12    1    3    3    0    0 -0.37144803294E+02  0.10147593939E+02 -0.10493413281E+02  0.39910171596E+02  0.00000000000E+00 0. -1.
        -11    1    4    4    0    0 -0.44674342847E+02  0.14071252827E+02 -0.81920634392E+00  0.46845150912E+02  0.00000000000E+00 0.  1.
         11    1    4    4    0    0  0.21433407878E+02 -0.50269119943E+02 -0.27592294589E+02  0.61218543872E+02  0.00000000000E+00 0. -1.
         21    1    1    2  503  502 -0.20056131943E+02 -0.29460522931E+02  0.12621476890E+03  0.13115006187E+03  0.00000000000E+00 0. -1.
          1    1    1    2  501    0  0.61705144572E+02  0.83898475656E+02 -0.17659240452E+03  0.20501550287E+03  0.00000000000E+00 0. -1.
<scales pt_clust_5="13000.00000" pt_clust_6="13000.00000" pt_clust_7="13000.00000" pt_clust_8="13000.00000" pt_clust_9="35.63946" pt_clust_10="13000.00000"></scales>
<clustering>
<clus scale="   35.639">  1  9  2 -1</clus>
<clus scale="   81.659">  5  6 -1 -1</clus>
<clus scale="   88.820">  2  5  1 -1</clus>
<clus scale="   94.974">  7  8 -1 -1</clus>
<clus scale="   74.228">  7 10 -1 -1</clus>
<clus scale="   35.639">  1  5  2 -1</clus>
</clustering>
</event>
<event>
10    4  0.2565852E-005  0.5367644E+03  0.7546771E-02  0.1034395E+00
         21   -1    0    0  503  502  0.00000000000E+00  0.00000000000E+00  0.19855818057E+03  0.19855818057E+03  0.00000000000E+00 0. -1.
          2   -1    0    0  502    0 -0.00000000000E+00 -0.00000000000E+00 -0.92579347767E+03  0.92579347767E+03  0.00000000000E+00 0. -1.
         24    2    1    2    0    0 -0.18661728724E+03  0.35451090880E+02 -0.10303215786E+03  0.23425898634E+03  0.90437024411E+02 0.  0.
         23    2    1    2    0    0  0.93688900001E+02  0.17280273852E+03 -0.55315422936E+03  0.59430930414E+03  0.92658248979E+02 0.  0.
        -11    1    3    3    0    0 -0.14547650166E+03  0.14551834452E+00 -0.10594774294E+03  0.17996765806E+03  0.00000000000E+00 0.  1.
         12    1    3    3    0    0 -0.41140785574E+02  0.35305572535E+02  0.29155850821E+01  0.54291328277E+02  0.00000000000E+00 0. -1.
        -13    1    4    4    0    0  0.33734906693E+02  0.11548418732E+03 -0.42462325547E+03  0.44133836286E+03  0.00000000000E+00 0. -1.
         13    1    4    4    0    0  0.59953993307E+02  0.57318551198E+02 -0.12853097389E+03  0.15297094127E+03  0.00000000000E+00 0.  1.
         21    1    1    2  503  501 -0.20554384959E+02 -0.24463407174E+01  0.32844044001E+02  0.38822655116E+02  0.00000000000E+00 0.  1.
          1    1    1    2  501    0  0.11348277220E+03 -0.20580748868E+03 -0.10389295387E+03  0.25696071265E+03  0.00000000000E+00 0. -1.
<scales pt_clust_5="13000.00000" pt_clust_6="13000.00000" pt_clust_7="13000.00000" pt_clust_8="13000.00000" pt_clust_9="20.69945" pt_clust_10="13000.00000"></scales>
<clustering>
<clus scale="   20.699">  1  9  2 -1</clus>
<clus scale="   90.437">  5  6 -1 -1</clus>
<clus scale="   92.658">  7  8 -1 -1</clus>
<clus scale="  217.611">  2  5  1 -1</clus>
<clus scale="  206.943">  7 10 -1 -1</clus>
<clus scale="   20.699">  1  5  2 -1</clus>
</clustering>
</event>
<event>
10    4  0.2565852E-005  0.2538619E+03  0.7546771E-02  0.1141816E+00
         21   -1    0    0  503  502  0.00000000000E+00  0.00000000000E+00  0.56764080988E+03  0.56764080988E+03  0.00000000000E+00 0. -1.
          4   -1    0    0  502    0 -0.00000000000E+00 -0.00000000000E+00 -0.28307571494E+03  0.28307571494E+03  0.00000000000E+00 0. -1.
         24    2    1    2    0    0 -0.51086351279E+02  0.68683021762E+02 -0.18589200140E+03  0.22026793557E+03  0.81455229987E+02 0.  0.
         23    2    1    2    0    0 -0.86514547672E+02  0.11528075690E+03  0.14472838046E+03  0.22504691633E+03  0.94474285219E+02 0.  0.
        -11    1    3    3    0    0 -0.26930804534E+02 -0.14215307493E+02 -0.64183844352E+02  0.71041601022E+02  0.00000000000E+00 0.  1.
         12    1    3    3    0    0 -0.24155546745E+02  0.82898329255E+02 -0.12170815704E+03  0.14922633455E+03  0.00000000000E+00 0. -1.
        -11    1    4    4    0    0  0.86075022224E+01  0.31340796216E+02 -0.11503156277E+00  0.32501505107E+02  0.00000000000E+00 0.  1.
         11    1    4    4    0    0 -0.95122049894E+02  0.83939960686E+02  0.14484341202E+03  0.19254541122E+03  0.00000000000E+00 0. -1.
         21    1    1    2  503  501  0.94887027715E+02 -0.16609313313E+03  0.23066103918E+03  0.29965812503E+03  0.00000000000E+00 0. -1.
          3    1    1    2  501    0  0.42713871236E+02 -0.17870645536E+02  0.95067676700E+02  0.10574354789E+03  0.00000000000E+00 0. -1.
<scales pt_clust_5="13000.00000" pt_clust_6="13000.00000" pt_clust_7="13000.00000" pt_clust_8="13000.00000" pt_clust_9="154.70275" pt_clust_10="13000.00000"></scales>
<clustering>
<clus scale="   81.455">  5  6 -1 -1</clus>
<clus scale="   94.474">  7  8 -1 -1</clus>
<clus scale="   46.302">  7 10 -1 -1</clus>
<clus scale="  118.161">  2  5  1 -1</clus>
<clus scale="  154.703">  1  9  2 -1</clus>
<clus scale="  154.703">  1  5  2 -1</clus>
</clustering>
</event>
<event>
10    4  0.2565852E-005  0.5163816E+03  0.7546771E-02  0.1031298E+00
          2   -1    0    0  503    0 -0.00000000000E+00  0.00000000000E+00  0.10455245595E+04  0.10455245595E+04  0.00000000000E+00 0. -1.
         21   -1    0    0  501  502  0.00000000000E+00 -0.00000000000E+00 -0.17767550839E+03  0.17767550839E+03  0.00000000000E+00 0. -1.
         24    2    1    2    0    0 -0.19447799130E+03 -0.15642791798E+03  0.40448138717E+03  0.48187218126E+03  0.79399142813E+02 0.  0.
         23    2    1    2    0    0  0.24865440912E+02  0.24637374712E+03  0.40585375410E+03  0.48408304951E+03  0.91108812342E+02 0.  0.
        -11    1    3    3    0    0 -0.33045117799E+02 -0.57856750006E+02  0.64041238989E+02  0.92415710909E+02  0.00000000000E+00 0.  1.
         12    1    3    3    0    0 -0.16143287350E+03 -0.98571167972E+02  0.34044014818E+03  0.38945647035E+03  0.00000000000E+00 0. -1.
        -13    1    4    4    0    0 -0.21008470940E+02  0.12421122124E+03  0.25641497964E+03  0.28568938572E+03  0.00000000000E+00 0.  1.
         13    1    4    4    0    0  0.45873911852E+02  0.12216252588E+03  0.14943877446E+03  0.19839366379E+03  0.00000000000E+00 0. -1.
         21    1    1    2  503  502 -0.27472866211E+02 -0.52200197456E+01 -0.13790272525E+02  0.31179778708E+02  0.00000000000E+00 0. -1.
          1    1    1    2  501    0  0.19708541660E+03 -0.84725809398E+02  0.71304182378E+02  0.22606505842E+03  0.00000000000E+00 0. -1.
<scales pt_clust_5="13000.00000" pt_clust_6="13000.00000" pt_clust_7="13000.00000" pt_clust_8="13000.00000" pt_clust_9="27.96439" pt_clust_10="13000.00000"></scales>
<clustering>
<clus scale="   27.964">  2  9  1 -1</clus>
<clus scale="   79.399">  5  6 -1 -1</clus>
<clus scale="   91.109">  7  8 -1 -1</clus>
<clus scale="  203.118">  7 10 -1 -1</clus>
<clus scale="  267.798">  1  5  2 -1</clus>
<clus scale="   27.964">  2  5  1 -1</clus>
</clustering>
</event>
<event>
10    4  0.2565852E-005  0.1825231E+03  0.7546771E-02  0.1181260E+00
         21   -1    0    0  503  502  0.00000000000E+00  0.00000000000E+00  0.57819339861E+03  0.57819339861E+03  0.00000000000E+00 0.  1.
         -1   -1    0    0    0  501 -0.00000000000E+00 -0.00000000000E+00 -0.20396161459E+03  0.20396161459E+03  0.00000000000E+00 0.  1.
         24    2    1    2    0    0 -0.17736940535E+02 -0.98329888260E+02 -0.13894996032E+03  0.18674714936E+03  0.74726436655E+02 0.  0.
         23    2    1    2    0    0  0.33454720410E+02  0.40319165562E+02  0.11865681062E+03  0.16375171360E+03  0.99951646166E+02 0.  0.
        -13    1    3    3    0    0 -0.35618671754E+02 -0.83605688979E+02 -0.13575418106E+03  0.16336400669E+03  0.00000000000E+00 0.  1.
         14    1    3    3    0    0  0.17881731219E+02 -0.14724199281E+02 -0.31957792614E+01  0.23383142666E+02  0.00000000000E+00 0. -1.
        -13    1    4    4    0    0  0.68676264381E+02  0.23469064844E+02  0.88275427131E+02  0.11427938278E+03  0.00000000000E+00 0. -1.
         13    1    4    4    0    0 -0.35221543971E+02  0.16850100718E+02  0.30381383491E+02  0.49472330820E+02  0.00000000000E+00 0.  1.
         21    1    1    2  503  501 -0.22751838985E+02 -0.32368915379E+02  0.29254708129E+03  0.29521041247E+03  0.00000000000E+00 0.  1.
         -2    1    1    2    0  502  0.70340591100E+01  0.90379638077E+02  0.10197785243E+03  0.13644573776E+03  0.00000000000E+00 0.  1.
<scales pt_clust_5="13000.00000" pt_clust_6="13000.00000" pt_clust_7="13000.00000" pt_clust_8="13000.00000" pt_clust_9="39.56505" pt_clust_10="13000.00000"></scales>
<clustering>
<clus scale="   39.565">  1  9  2 -1</clus>
<clus scale="   74.726">  5  6 -1 -1</clus>
<clus scale="   99.952">  7  8 -1 -1</clus>
<clus scale="   76.848">  7 10 -1 -1</clus>
<clus scale="  127.206">  2  5  1 -1</clus>
<clus scale="   39.565">  1  5  2 -1</clus>
</clustering>
</event>
<event>
10    4  0.2565852E-005  0.7616665E+03  0.7546771E-02  0.9853435E-01
         21   -1    0    0  503  502  0.00000000000E+00  0.00000000000E+00  0.35009487305E+03  0.35009487305E+03  0.00000000000E+00 0. -1.
          2   -1    0    0  502    0 -0.00000000000E+00 -0.00000000000E+00 -0.23551361438E+04  0.23551361438E+04  0.00000000000E+00 0. -1.
         24    2    1    2    0    0  0.18405887201E+03  0.24676365490E+03 -0.44152326292E+02  0.32123443178E+03  0.80449751366E+02 0.  0.
         23    2    1    2    0    0 -0.35635980930E+03 -0.36616275455E+03 -0.15531898702E+04  0.16376083997E+04  0.91077007694E+02 0.  0.
        -11    1    3    3    0    0  0.56102340782E+02  0.36774586444E+02  0.14052159273E+02  0.68536895389E+02  0.00000000000E+00 0.  1.
         12    1    3    3    0    0  0.12795653123E+03  0.20998906846E+03 -0.58204485565E+02  0.25269753639E+03  0.00000000000E+00 0. -1.
        -13    1    4    4    0    0 -0.23843554109E+03 -0.29670619882E+03 -0.10853296874E+04  0.11501419938E+04  0.00000000000E+00 0. -1.
         13    1    4    4    0    0 -0.11792426821E+03 -0.69456555736E+02 -0.46786018286E+03  0.48746640589E+03  0.00000000000E+00 0.  1.
         21    1    1    2  503  501 -0.70285033789E+02  0.92279439179E+02  0.11881092255E+03  0.16604672893E+03  0.00000000000E+00 0. -1.
          1    1    1    2  501    0  0.24258597107E+03  0.27119660474E+02 -0.52650999676E+03  0.58034145642E+03  0.00000000000E+00 0. -1.
<scales pt_clust_5="13000.00000" pt_clust_6="13000.00000" pt_clust_7="13000.00000" pt_clust_8="13000.00000" pt_clust_9="115.99776" pt_clust_10="13000.00000"></scales>
<clustering>
<clus scale="   80.450">  5  6 -1 -1</clus>
<clus scale="   91.077">  7  8 -1 -1</clus>
<clus scale="  115.998">  1  9  2 -1</clus>
<clus scale="  236.724">  7 10 -1 -1</clus>
<clus scale="  346.919">  2  5  1 -1</clus>
<clus scale="  115.998">  1  5  2 -1</clus>
</clustering>
</event>
<event>
10    4  0.2565852E-005  0.4024083E+03  0.7546771E-02  0.1086287E+00
         21   -1    0    0  501  502  0.00000000000E+00  0.00000000000E+00  0.93613425353E+03  0.93613425353E+03  0.00000000000E+00 0.  1.
         -3   -1    0    0    0  501 -0.00000000000E+00 -0.00000000000E+00 -0.38301272534E+03  0.38301272534E+03  0.00000000000E+00 0.  1.
         24    2    1    2    0    0 -0.92334844508E+02 -0.87806064094E+01 -0.17299479524E+03  0.21104664888E+03  0.77528486782E+02 0.  0.
         23    2    1    2    0    0  0.36940518694E+02  0.10271891102E+03 -0.63294482978E+02  0.15907037624E+03  0.96857712237E+02 0.  0.
        -13    1    3    3    0    0 -0.21166205187E+02  0.31168715909E+02 -0.71392769532E+02  0.80724374478E+02  0.00000000000E+00 0.  1.
         14    1    3    3    0    0 -0.71168639321E+02 -0.39949322318E+02 -0.10160202571E+03  0.13032227440E+03  0.00000000000E+00 0. -1.
        -13    1    4    4    0    0 -0.22898133107E+02 -0.43180708560E+01 -0.95780678451E+01  0.25193443975E+02  0.00000000000E+00 0. -1.
         13    1    4    4    0    0  0.59838651800E+02  0.10703698188E+03 -0.53716415133E+02  0.13387693227E+03  0.00000000000E+00 0.  1.
         21    1    1    2  503  502 -0.14930911478E+03 -0.20438553757E+03  0.59240511566E+03  0.64421307095E+03  0.00000000000E+00 0.  1.
         -4    1    1    2    0  503  0.20470344059E+03  0.11044723296E+03  0.19700569075E+03  0.30481688281E+03  0.00000000000E+00 0.  1.
<scales pt_clust_5="13000.00000" pt_clust_6="13000.00000" pt_clust_7="13000.00000" pt_clust_8="13000.00000" pt_clust_9="261.63216" pt_clust_10="13000.00000"></scales>
<clustering>
<clus scale="   77.528">  5  6 -1 -1</clus>
<clus scale="   96.858">  7  8 -1 -1</clus>
<clus scale="  120.886">  2  5  1 -1</clus>
<clus scale="  208.736">  7 10 -1 -1</clus>
<clus scale="  261.632">  1  9  2 -1</clus>
<clus scale="  261.632">  1  5  2 -1</clus>
</clustering>
</event>
<event>
10    4  0.2565852E-005  0.2772373E+03  0.7546771E-02  0.1134508E+00
          2   -1    0    0  503    0 -0.00000000000E+00  0.00000000000E+00  0.18410841718E+04  0.18410841718E+04  0.00000000000E+00 0. -1.
         21   -1    0    0  501  502  0.00000000000E+00 -0.00000000000E+00 -0.16540624184E+03  0.16540624184E+03  0.00000000000E+00 0. -1.
         24    2    1    2    0    0  0.26690191249E+02 -0.66558987973E+02  0.16269484753E+04  0.16305192023E+04  0.80554719134E+02 0.  0.
         23    2    1    2    0    0  0.11749174310E+02 -0.27689467271E+02  0.13214632782E+03  0.16635350068E+03  0.96468054483E+02 0.  0.
        -11    1    3    3    0    0 -0.17560184872E+02 -0.13740429604E+02  0.12377638649E+03  0.12576865011E+03  0.00000000000E+00 0.  1.
         12    1    3    3    0    0  0.44250376121E+02 -0.52818558369E+02  0.15031720888E+04  0.15047505522E+04  0.00000000000E+00 0. -1.
        -11    1    4    4    0    0  0.20239506240E+02  0.57989176494E+01 -0.76125659712E+01  0.22387858750E+02  0.00000000000E+00 0.  1.
         11    1    4    4    0    0 -0.84903319305E+01 -0.33488384920E+02  0.13975889379E+03  0.14396564193E+03  0.00000000000E+00 0. -1.
         21    1    1    2  503  502  0.31858620237E+01 -0.38024831823E+02 -0.56785806716E+02  0.68415388593E+02  0.00000000000E+00 0. -1.
          1    1    1    2  501    0 -0.41625227583E+02  0.13227328707E+03 -0.26631066453E+02  0.14120232202E+03  0.00000000000E+00 0. -1.
<scales pt_clust_5="13000.00000" pt_clust_6="13000.00000" pt_clust_7="13000.00000" pt_clust_8="13000.00000" pt_clust_9="38.15806" pt_clust_10="13000.00000"></scales>
<clustering>
<clus scale="   38.158">  2  9  1 -1</clus>
<clus scale="   80.555">  5  6 -1 -1</clus>
<clus scale="   96.468">  7  8 -1 -1</clus>
<clus scale="  108.272">  1  5  2 -1</clus>
<clus scale="   93.566">  7 10 -1 -1</clus>
<clus scale="   38.158">  2  5  1 -1</clus>
</clustering>
</event>
<event>
10    4  0.2565852E-005  0.2430206E+03  0.7546771E-02  0.1130245E+00
         21   -1    0    0  501  502  0.00000000000E+00  0.00000000000E+00  0.13613244901E+04  0.13613244901E+04  0.00000000000E+00 0.  1.
          4   -1    0    0  503    0 -0.00000000000E+00 -0.00000000000E+00 -0.37621228684E+02  0.37621228684E+02  0.00000000000E+00 0. -1.
         24    2    1    2    0    0  0.14911394420E+03  0.78354089354E+02  0.43777314410E+03  0.47579722962E+03  0.79770585706E+02 0.  0.
         23    2    1    2    0    0 -0.97615585829E+02 -0.14590488618E+02  0.30683497872E+03  0.33552547948E+03  0.93209217681E+02 0.  0.
        -13    1    3    3    0    0  0.45083051372E+02  0.54769818816E+02  0.10811142087E+03  0.12930697543E+03  0.00000000000E+00 0.  1.
         14    1    3    3    0    0  0.10403089283E+03  0.23584270538E+02  0.32966172323E+03  0.34649025418E+03  0.00000000000E+00 0. -1.
        -11    1    4    4    0    0 -0.10720066591E+03  0.94994199837E+01  0.26830679654E+03  0.28908607511E+03  0.00000000000E+00 0.  1.
         11    1    4    4    0    0  0.95850800796E+01 -0.24089908602E+02  0.38528182180E+02  0.46439404375E+02  0.00000000000E+00 0. -1.
         21    1    1    2  503  502 -0.25821891678E+02 -0.45445430211E+01  0.75811272634E+02  0.80217030732E+02  0.00000000000E+00 0.  1.
          3    1    1    2  501    0 -0.25676466690E+02 -0.59219057714E+02  0.50328386600E+03  0.50740597898E+03  0.00000000000E+00 0. -1.
<scales pt_clust_5="13000.00000" pt_clust_6="13000.00000" pt_clust_7="13000.00000" pt_clust_8="13000.00000" pt_clust_9="26.21877" pt_clust_10="13000.00000"></scales>
<clustering>
<clus scale="   26.219">  1  9  2 -1</clus>
<clus scale="   79.771">  5  6 -1 -1</clus>
<clus scale="   93.209">  7  8 -1 -1</clus>
<clus scale="   70.759">  7 10 -1 -1</clus>
<clus scale="  178.410">  2  5  1 -1</clus>
<clus scale="   26.219">  1  5  2 -1</clus>
</clustering>
</event>
<event>
10    4  0.2565852E-005  0.6282139E+03  0.7546771E-02  0.1040608E+00
         21   -1    0    0  503  502  0.00000000000E+00  0.00000000000E+00  0.97029746754E+02  0.97029746754E+02  0.00000000000E+00 0. -1.
          2   -1    0    0  502    0 -0.00000000000E+00 -0.00000000000E+00 -0.24821644495E+04  0.24821644495E+04  0.00000000000E+00 0. -1.
         24    2    1    2    0    0  0.73520573060E+02  0.30668390276E+02 -0.51783962782E+03  0.53006640319E+03  0.80415712556E+02 0.  0.
         23    2    1    2    0    0  0.14628675627E+03 -0.14713720556E+03 -0.45022103355E+03  0.50401374392E+03  0.91003860858E+02 0.  0.
        -11    1    3    3    0    0  0.39687640959E+01 -0.21931091963E+02 -0.60207836032E+02  0.64200524941E+02  0.00000000000E+00 0.  1.
         12    1    3    3    0    0  0.69551808964E+02  0.52599482239E+02 -0.45763179179E+03  0.46586587825E+03  0.00000000000E+00 0. -1.
        -11    1    4    4    0    0  0.11095721268E+03 -0.13957351335E+03 -0.29547132270E+03  0.34510226197E+03  0.00000000000E+00 0. -1.
         11    1    4    4    0    0  0.35329543592E+02 -0.75636922094E+01 -0.15474971084E+03  0.15891148195E+03  0.00000000000E+00 0.  1.
         21    1    1    2  503  501  0.10495012813E+03 -0.11490602943E+03 -0.14758811835E+03  0.21447652009E+03  0.00000000000E+00 0. -1.
          1    1    1    2  501    0 -0.32475745747E+03  0.23137484471E+03 -0.12694859230E+04  0.13306375291E+04  0.00000000000E+00 0. -1.
<scales pt_clust_5="13000.00000" pt_clust_6="13000.00000" pt_clust_7="13000.00000" pt_clust_8="13000.00000" pt_clust_9="158.26321" pt_clust_10="13000.00000"></scales>
<clustering>
<clus scale="   80.416">  5  6 -1 -1</clus>
<clus scale="   91.004">  7  8 -1 -1</clus>
<clus scale="  113.192">  2  5  1 -1</clus>
<clus scale="  158.263">  1  9  2 -1</clus>
<clus scale="  296.605">  7 10 -1 -1</clus>
<clus scale="  158.263">  1  5  2 -1</clus>
</clustering>
</event>
<event>
10    4  0.4552940E-005  0.5215669E+03  0.7546771E-02  0.1022221E+00
          2   -1    0    0  503    0 -0.00000000000E+00  0.00000000000E+00  0.80378104972E+03  0.80378104972E+03  0.00000000000E+00 0. -1.
         21   -1    0    0  501  502  0.00000000000E+00 -0.00000000000E+00 -0.40833830064E+03  0.40833830064E+03  0.00000000000E+00 0. -1.
         24    2    1    2    0    0  0.27460824244E+03 -0.15455124651E+03 -0.18790041934E+03  0.37469206620E+03  0.76103891332E+02 0.  0.
         23    2    1    2    0    0  0.55520274680E+02 -0.43816496131E+02  0.11754914473E+03  0.16516721593E+03  0.91978375479E+02 0.  0.
        -11    1    3    3    0    0  0.18043129873E+03 -0.70235812826E+02 -0.83959244799E+02  0.21103951704E+03  0.00000000000E+00 0.  1.
         12    1    3    3    0    0  0.94176943704E+02 -0.84315433681E+02 -0.10394117454E+03  0.16365254916E+03  0.00000000000E+00 0. -1.
        -11    1    4    4    0    0  0.76525369362E+02 -0.14340624006E+02  0.93682773877E+02  0.12181234656E+03  0.00000000000E+00 0. -1.
         11    1    4    4    0    0 -0.21005094682E+02 -0.29475872125E+02  0.23866370857E+02  0.43354869369E+02  0.00000000000E+00 0.  1.
         21    1    1    2  503  502  0.90990387312E+01 -0.29843785358E+02 -0.20197293533E+02  0.37166849428E+02  0.00000000000E+00 0. -1.
          1    1    1    2  501    0 -0.33922755585E+03  0.22821152800E+03  0.48599131722E+03  0.63509321880E+03  0.00000000000E+00 0. -1.
<scales pt_clust_5="13000.00000" pt_clust_6="13000.00000" pt_clust_7="13000.00000" pt_clust_8="13000.00000" pt_clust_9="31.20006" pt_clust_10="13000.00000"></scales>
<clustering>
<clus scale="   31.200">  2  9  1 -1</clus>
<clus scale="   76.104">  5  6 -1 -1</clus>
<clus scale="   91.978">  7  8 -1 -1</clus>
<clus scale="  340.822">  1  5  2 -1</clus>
<clus scale="  141.592">  7 10 -1 -1</clus>
<clus scale="   31.200">  2  5  1 -1</clus>
</clustering>
</event>
<event>
10    4  0.2565852E-005  0.2953871E+03  0.7546771E-02  0.1100380E+00
         21   -1    0    0  503  502  0.00000000000E+00  0.00000000000E+00  0.22676769771E+03  0.22676769771E+03  0.00000000000E+00 0. -1.
          2   -1    0    0  502    0 -0.00000000000E+00 -0.00000000000E+00 -0.59022187384E+03  0.59022187384E+03  0.00000000000E+00 0. -1.
         24    2    1    2    0    0  0.16856757328E+03 -0.92584328946E+02 -0.40411550388E+03  0.45463045537E+03  0.79953897632E+02 0.  0.
         23    2    1    2    0    0  0.23429100234E+01  0.87329728392E+01  0.18010200375E+02  0.93834391964E+02  0.91644813033E+02 0.  0.
        -13    1    3    3    0    0  0.23746841462E+02  0.44745185160E+01 -0.15519074163E+02  0.28718904196E+02  0.00000000000E+00 0.  1.
         14    1    3    3    0    0  0.14482073182E+03 -0.97058847462E+02 -0.38859642971E+03  0.42591155117E+03  0.00000000000E+00 0. -1.
        -11    1    4    4    0    0  0.14868867240E+02  0.47653080177E+02  0.17647971828E+02  0.52946672917E+02  0.00000000000E+00 0. -1.
         11    1    4    4    0    0 -0.12525957216E+02 -0.38920107338E+02  0.36222854674E+00  0.40887719047E+02  0.00000000000E+00 0.  1.
         21    1    1    2  503  501  0.29687062601E+02  0.10402982047E+02  0.43726856514E+02  0.53866331804E+02  0.00000000000E+00 0. -1.
          1    1    1    2  501    0 -0.20059754590E+03  0.73448374060E+02 -0.21075729143E+02  0.21465839241E+03  0.00000000000E+00 0. -1.
<scales pt_clust_5="13000.00000" pt_clust_6="13000.00000" pt_clust_7="13000.00000" pt_clust_8="13000.00000" pt_clust_9="31.45701" pt_clust_10="13000.00000"></scales>
<clustering>
<clus scale="   31.457">  1  9  2 -1</clus>
<clus scale="   79.954">  5  6 -1 -1</clus>
<clus scale="   91.645">  7  8 -1 -1</clus>
<clus scale="  200.700">  7 10 -1 -1</clus>
<clus scale="  211.060">  2  5  1 -1</clus>
<clus scale="   31.457">  1  5  2 -1</clus>
</clustering>
</event>
<event>
10    4  0.2565852E-005  0.3492707E+03  0.7546771E-02  0.1077632E+00
         21   -1    0    0  501  502  0.00000000000E+00  0.00000000000E+00  0.17183421540E+03  0.17183421540E+03  0.00000000000E+00 0. -1.
          2   -1    0    0  503    0 -0.00000000000E+00 -0.00000000000E+00 -0.60231697387E+03  0.60231697387E+03  0.00000000000E+00 0. -1.
         24    2    1    2    0    0  0.55223677291E+01  0.22939675527E+03 -0.17177064258E+03  0.29779242034E+03  0.80757687446E+02 0.  0.
         23    2    1    2    0    0  0.11953610032E+03 -0.29965914407E+02 -0.10758321774E+03  0.18790456707E+03  0.92450755988E+02 0.  0.
        -11    1    3    3    0    0  0.41504469538E+02  0.89576337963E+02 -0.75061601052E+02  0.12401929393E+03  0.00000000000E+00 0.  1.
         12    1    3    3    0    0 -0.35982101809E+02  0.13982041731E+03 -0.96709041531E+02  0.17377312641E+03  0.00000000000E+00 0. -1.
        -11    1    4    4    0    0  0.36831111512E+02 -0.31490120671E+02 -0.91639933899E+02  0.10366308871E+03  0.00000000000E+00 0.  1.
         11    1    4    4    0    0  0.82704988804E+02  0.15242062644E+01 -0.15943283839E+02  0.84241478367E+02  0.00000000000E+00 0. -1.
         21    1    1    2  503  502 -0.49964191568E+02 -0.27054743785E+02 -0.25200981106E+02  0.62156810158E+02  0.00000000000E+00 0. -1.
          1    1    1    2  501    0 -0.75094276478E+02 -0.17237609708E+03 -0.12592791704E+03  0.22629739171E+03  0.00000000000E+00 0. -1.
<scales pt_clust_5="13000.00000" pt_clust_6="13000.00000" pt_clust_7="13000.00000" pt_clust_8="13000.00000" pt_clust_9="56.81883" pt_clust_10="13000.00000"></scales>
<clustering>
<clus scale="   56.819">  1  9  2 -1</clus>
<clus scale="   80.758">  5  6 -1 -1</clus>
<clus scale="   92.451">  7  8 -1 -1</clus>
<clus scale="  202.993">  7 10 -1 -1</clus>
<clus scale="  233.224">  2  5  1 -1</clus>
<clus scale="   56.819">  1  5  2 -1</clus>
</clustering>
</event>
<event>
10    4  0.2565852E-005  0.3413471E+03  0.7546771E-02  0.1112958E+00
         21   -1    0    0  503  502  0.00000000000E+00  0.00000000000E+00  0.10806252088E+03  0.10806252088E+03  0.00000000000E+00 0.  1.
          4   -1    0    0  502    0 -0.00000000000E+00 -0.00000000000E+00 -0.72811223774E+03  0.72811223774E+03  0.00000000000E+00 0. -1.
         24    2    1    2    0    0 -0.46139517319E+01  0.56056837673E+02 -0.58052734515E+02  0.11451643087E+03  0.81118649851E+02 0.  0.
         23    2    1    2    0    0 -0.13750162350E+03 -0.71008215312E+02 -0.11423369089E+03  0.21252432533E+03  0.90379143698E+02 0.  0.
        -11    1    3    3    0    0  0.10692578210E+02  0.57582932745E+02 -0.72645136462E+02  0.93313671152E+02  0.00000000000E+00 0.  1.
         12    1    3    3    0    0 -0.15306529941E+02 -0.15260950720E+01  0.14592401947E+02  0.21202759717E+02  0.00000000000E+00 0. -1.
        -13    1    4    4    0    0 -0.11414167372E+03 -0.11650931840E+02 -0.82220143203E+02  0.14115317156E+03  0.00000000000E+00 0. -1.
         13    1    4    4    0    0 -0.23359949772E+02 -0.59357283471E+02 -0.32013547687E+02  0.71371153766E+02  0.00000000000E+00 0.  1.
         21    1    1    2  503  501  0.80281552716E+02 -0.12287991321E+02 -0.31004312789E+02  0.86933249385E+02  0.00000000000E+00 0. -1.
          3    1    1    2  501    0  0.61834022512E+02  0.27239368959E+02 -0.41675897867E+03  0.42220075303E+03  0.00000000000E+00 0. -1.
<scales pt_clust_5="13000.00000" pt_clust_6="13000.00000" pt_clust_7="13000.00000" pt_clust_8="13000.00000" pt_clust_9="81.21652" pt_clust_10="13000.00000"></scales>
<clustering>
<clus scale="   81.119">  5  6 -1 -1</clus>
<clus scale="   81.217">  1  9  2 -1</clus>
<clus scale="   90.379">  7  8 -1 -1</clus>
<clus scale="   69.911">  7 10 -1 -1</clus>
<clus scale="   99.079">  2  5  1 -1</clus>
<clus scale="   81.217">  1  5  2 -1</clus>
</clustering>
</event>
<event>
10    4  0.2565852E-005  0.2449041E+03  0.7546771E-02  0.1160058E+00
          2   -1    0    0  503    0 -0.00000000000E+00  0.00000000000E+00  0.61162799303E+03  0.61162799303E+03  0.00000000000E+00 0. -1.
         21   -1    0    0  501  502  0.00000000000E+00 -0.00000000000E+00 -0.76011895638E+02  0.76011895638E+02  0.00000000000E+00 0. -1.
         24    2    1    2    0    0 -0.73417723663E+01 -0.43067948086E+02  0.15709617157E+03  0.18082258343E+03  0.78159131155E+02 0.  0.
         23    2    1    2    0    0 -0.41610979006E+02  0.46901984948E+01  0.41426078206E+03  0.42758516629E+03  0.97281073926E+02 0.  0.
        -13    1    3    3    0    0 -0.10649633372E+02  0.21760756326E+02  0.50631115627E+02  0.56128914799E+02  0.00000000000E+00 0.  1.
         14    1    3    3    0    0  0.33078610057E+01 -0.64828704411E+02  0.10646505594E+03  0.12469366863E+03  0.00000000000E+00 0. -1.
        -11    1    4    4    0    0 -0.65136120352E+02  0.17894470917E+02  0.36701722919E+03  0.37318168870E+03  0.00000000000E+00 0. -1.
         11    1    4    4    0    0  0.23525141346E+02 -0.13204272423E+02  0.47243552872E+02  0.54403477587E+02  0.00000000000E+00 0.  1.
         21    1    1    2  503  502  0.15426893745E+02  0.33437879504E+02 -0.18686580704E+02  0.41294904465E+02  0.00000000000E+00 0. -1.
          1    1    1    2  501    0  0.33525857627E+02  0.49398700866E+01 -0.17054275533E+02  0.37937234480E+02  0.00000000000E+00 0. -1.
<scales pt_clust_5="13000.00000" pt_clust_6="13000.00000" pt_clust_7="13000.00000" pt_clust_8="13000.00000" pt_clust_9="36.82500" pt_clust_10="13000.00000"></scales>
<clustering>
<clus scale="   36.825">  2  9  1 -1</clus>
<clus scale="   78.159">  5  6 -1 -1</clus>
<clus scale="   85.480">  1  5  2 -1</clus>
<clus scale="   97.281">  7  8 -1 -1</clus>
<clus scale="   48.043">  7 10 -1 -1</clus>
<clus scale="   36.825">  2  5  1 -1</clus>
</clustering>
</event>
<event>
10    4  0.2565852E-005  0.2140057E+03  0.7546771E-02  0.1165051E+00
         -3   -1    0    0    0  501 -0.00000000000E+00  0.00000000000E+00  0.17353745357E+03  0.17353745357E+03  0.00000000000E+00 0.  1.
         21   -1    0    0  501  502  0.00000000000E+00 -0.00000000000E+00 -0.25547846145E+03  0.25547846145E+03  0.00000000000E+00 0.  1.
         24    2    1    2    0    0  0.60544952343E+02  0.21063365373E+02 -0.11348642009E+03  0.15468760350E+03  0.83305044969E+02 0.  0.
         23    2    1    2    0    0  0.33024231088E+02  0.22574158599E+01  0.29887514630E+02  0.10315626530E+03  0.93017502514E+02 0.  0.
        -11    1    3    3    0    0 -0.17494084498E+02  0.11100717386E+02 -0.48163827921E+02  0.52431128530E+02  0.00000000000E+00 0.  1.
         12    1    3    3    0    0  0.78039036841E+02  0.99626479867E+01 -0.65322592173E+02  0.10225647497E+03  0.00000000000E+00 0. -1.
        -11    1    4    4    0    0  0.21015472280E+02  0.23628930944E+02 -0.26764100094E+02  0.41428172860E+02  0.00000000000E+00 0. -1.
         11    1    4    4    0    0  0.12008758808E+02 -0.21371515084E+02  0.56651614724E+02  0.61728092437E+02  0.00000000000E+00 0.  1.
         21    1    1    2  503  502  0.20533442070E+02  0.79341128497E+01 -0.40073652728E+02  0.45721658248E+02  0.00000000000E+00 0. -1.
         -4    1    1    2    0  503 -0.11410262550E+03 -0.31254894082E+02  0.41731550319E+02  0.12545038797E+03  0.00000000000E+00 0.  1.
<scales pt_clust_5="13000.00000" pt_clust_6="13000.00000" pt_clust_7="13000.00000" pt_clust_8="13000.00000" pt_clust_9="22.01301" pt_clust_10="13000.00000"></scales>
<clustering>
<clus scale="   22.013">  2  9  1 -1</clus>
<clus scale="   83.305">  5  6 -1 -1</clus>
<clus scale="   93.018">  7  8 -1 -1</clus>
<clus scale="  113.994">  7 10 -1 -1</clus>
<clus scale="  114.110">  1  5  2 -1</clus>
<clus scale="   22.013">  2  5  1 -1</clus>
</clustering>
</event>
<event>
10    4  0.2565852E-005  0.4016853E+03  0.7546771E-02  0.1094710E+00
         21   -1    0    0  501  502  0.00000000000E+00  0.00000000000E+00  0.89492467953E+02  0.89492467953E+02  0.00000000000E+00 0.  1.
          2   -1    0    0  503    0 -0.00000000000E+00 -0.00000000000E+00 -0.12544566562E+04  0.12544566562E+04  0.00000000000E+00 0. -1.
         24    2    1    2    0    0 -0.20971179612E+02  0.45447956165E+02 -0.37199545404E+03  0.38410961594E+03  0.81573722090E+02 0.  0.
         23    2    1    2    0    0  0.88386078820E+02  0.11665339075E+03 -0.20657544873E+03  0.26925368934E+03  0.91673446003E+02 0.  0.
        -11    1    3    3    0    0  0.30112402266E+02  0.23703260611E+02 -0.19033704526E+03  0.19415661754E+03  0.00000000000E+00 0.  1.
         12    1    3    3    0    0 -0.51083581878E+02  0.21744695553E+02 -0.18165840878E+03  0.18995299841E+03  0.00000000000E+00 0. -1.
        -13    1    4    4    0    0  0.81825671422E+02  0.49434084992E+02 -0.16272318270E+03  0.18872732566E+03  0.00000000000E+00 0. -1.
         13    1    4    4    0    0  0.65604073973E+01  0.67219305758E+02 -0.43852266040E+02  0.80526363687E+02  0.00000000000E+00 0.  1.
         21    1    1    2  503  502 -0.26967121935E+01  0.27499967793E+02  0.30984267297E+02  0.41515603153E+02  0.00000000000E+00 0.  1.
          1    1    1    2  501    0 -0.64718187014E+02 -0.18960131471E+03 -0.61737755273E+03  0.64907021568E+03  0.00000000000E+00 0. -1.
<scales pt_clust_5="13000.00000" pt_clust_6="13000.00000" pt_clust_7="13000.00000" pt_clust_8="13000.00000" pt_clust_9="27.63187" pt_clust_10="13000.00000"></scales>
<clustering>
<clus scale="   27.632">  1  9  2 -1</clus>
<clus scale="   81.574">  5  6 -1 -1</clus>
<clus scale="   91.673">  7  8 -1 -1</clus>
<clus scale="   97.297">  2  5  1 -1</clus>
<clus scale="  168.480">  7 10 -1 -1</clus>
<clus scale="   27.632">  1  5  2 -1</clus>
</clustering>
</event>
<event>
10    4  0.2565852E-005  0.2713625E+03  0.7546771E-02  0.1136193E+00
          2   -1    0    0  503    0 -0.00000000000E+00  0.00000000000E+00  0.50674589088E+03  0.50674589088E+03  0.00000000000E+00 0. -1.
         21   -1    0    0  501  502  0.00000000000E+00 -0.00000000000E+00 -0.15889255266E+03  0.15889255266E+03  0.00000000000E+00 0. -1.
         24    2    1    2    0    0 -0.52341943984E+02  0.33392860740E+01 -0.63210271388E+02  0.11464836464E+03  0.79986743733E+02 0.  0.
         23    2    1    2    0    0 -0.59182114766E+02  0.16317147666E+02  0.25554808973E+03  0.27718606108E+03  0.88082428868E+02 0.  0.
        -13    1    3    3    0    0 -0.36252602252E+02 -0.34008840287E+02 -0.15738337851E+02  0.52139693766E+02  0.00000000000E+00 0.  1.
         14    1    3    3    0    0 -0.16089341733E+02  0.37348126361E+02 -0.47471933537E+02  0.62508670869E+02  0.00000000000E+00 0. -1.
        -13    1    4    4    0    0 -0.66591215949E+02 -0.70975022918E+01  0.23735783878E+03  0.24662422470E+03  0.00000000000E+00 0.  1.
         13    1    4    4    0    0  0.74091011828E+01  0.23414649958E+02  0.18190250952E+02  0.30561836376E+02  0.00000000000E+00 0. -1.
         21    1    1    2  503  502 -0.10452446882E+02  0.67679046559E+02  0.19247216470E+02  0.71134817993E+02  0.00000000000E+00 0. -1.
          1    1    1    2  501    0  0.12197650563E+03 -0.87335480300E+02  0.13626830341E+03  0.20266919983E+03  0.00000000000E+00 0. -1.
<scales pt_clust_5="13000.00000" pt_clust_6="13000.00000" pt_clust_7="13000.00000" pt_clust_8="13000.00000" pt_clust_9="68.48144" pt_clust_10="13000.00000"></scales>
<clustering>
<clus scale="   68.481">  2  9  1 -1</clus>
<clus scale="   79.987">  5  6 -1 -1</clus>
<clus scale="   88.082">  7  8 -1 -1</clus>
<clus scale="  110.821">  1  5  2 -1</clus>
<clus scale="  111.871">  7 10 -1 -1</clus>
<clus scale="   68.481">  2  5  1 -1</clus>
</clustering>
</event>
<event>
10    4  0.2565852E-005  0.5924707E+03  0.7546771E-02  0.1000967E+00
          2   -1    0    0  503    0 -0.00000000000E+00  0.00000000000E+00  0.17517857980E+04  0.17517857980E+04  0.00000000000E+00 0. -1.
         21   -1    0    0  501  502  0.00000000000E+00 -0.00000000000E+00 -0.66511817558E+03  0.66511817558E+03  0.00000000000E+00 0. -1.
         24    2    1    2    0    0  0.43674811938E+03  0.26700423671E+03  0.12383850344E+04  0.13425023147E+04  0.81699384467E+02 0.  0.
         23    2    1    2    0    0  0.22429147184E+02  0.70597875416E+02  0.19071895245E+03  0.22335528887E+03  0.89592073233E+02 0.  0.
        -13    1    3    3    0    0  0.74782889205E+02  0.12360931094E+02  0.18491161230E+03  0.19984388282E+03  0.00000000000E+00 0.  1.
         14    1    3    3    0    0  0.36196523017E+03  0.25464330562E+03  0.10534734221E+04  0.11426584319E+04  0.00000000000E+00 0. -1.
        -13    1    4    4    0    0  0.26055502833E+02  0.70357132598E+01  0.13823655207E+03  0.14084649381E+03  0.00000000000E+00 0.  1.
         13    1    4    4    0    0 -0.36263556492E+01  0.63562162157E+02  0.52482400377E+02  0.82508795062E+02  0.00000000000E+00 0. -1.
         21    1    1    2  503  502 -0.21742875216E+03 -0.13032403932E+03 -0.44868726051E+03  0.51534442389E+03  0.00000000000E+00 0. -1.
          1    1    1    2  501    0 -0.24174851440E+03 -0.20727807281E+03  0.10625089604E+03  0.33570194606E+03  0.00000000000E+00 0. -1.
<scales pt_clust_5="13000.00000" pt_clust_6="13000.00000" pt_clust_7="13000.00000" pt_clust_8="13000.00000" pt_clust_9="253.49481" pt_clust_10="13000.00000"></scales>
<clustering>
<clus scale="   81.699">  5  6 -1 -1</clus>
<clus scale="   89.592">  7  8 -1 -1</clus>
<clus scale="  253.495">  2  9  1 -1</clus>
<clus scale="  447.353">  1  5  2 -1</clus>
<clus scale="  168.684">  7 10 -1 -1</clus>
<clus scale="  253.495">  2  5  1 -1</clus>
</clustering>
</event>
<event>
10    4  0.2565852E-005  0.3470555E+03  0.7546771E-02  0.1076364E+00
         21   -1    0    0  503  502  0.00000000000E+00  0.00000000000E+00  0.49752804847E+02  0.49752804847E+02  0.00000000000E+00 0. -1.
          2   -1    0    0  502    0 -0.00000000000E+00 -0.00000000000E+00 -0.29309747172E+04  0.29309747172E+04  0.00000000000E+00 0. -1.
         24    2    1    2    0    0  0.20085885653E+03  0.51080882725E+02 -0.69721296103E+03  0.73196256159E+03  0.81913013088E+02 0.  0.
         23    2    1    2    0    0 -0.30351322237E+02 -0.46490460369E+02 -0.34406568504E+03  0.36031062906E+03  0.91432970673E+02 0.  0.
        -11    1    3    3    0    0  0.47776897418E+02  0.38152899421E+02 -0.12030845281E+03  0.13495332333E+03  0.00000000000E+00 0.  1.
         12    1    3    3    0    0  0.15308195911E+03  0.12927983304E+02 -0.57690450823E+03  0.59700923826E+03  0.00000000000E+00 0. -1.
        -11    1    4    4    0    0  0.27586568275E+02 -0.39459417850E+02 -0.17229739629E+03  0.17889789595E+03  0.00000000000E+00 0.  1.
         11    1    4    4    0    0 -0.57937890512E+02 -0.70310425192E+01 -0.17176828875E+03  0.18141273311E+03  0.00000000000E+00 0. -1.
         21    1    1    2  503  501  0.55268396926E+02 -0.41302673564E+02 -0.53190031428E+02  0.87118803857E+02  0.00000000000E+00 0. -1.
          1    1    1    2  501    0 -0.22577593122E+03  0.36712251208E+02 -0.17867532348E+04  0.18013355275E+04  0.00000000000E+00 0. -1.
<scales pt_clust_5="13000.00000" pt_clust_6="13000.00000" pt_clust_7="13000.00000" pt_clust_8="13000.00000" pt_clust_9="68.99642" pt_clust_10="13000.00000"></scales>
<clustering>
<clus scale="   68.996">  1  9  2 -1</clus>
<clus scale="   81.913">  5  6 -1 -1</clus>
<clus scale="   91.433">  7  8 -1 -1</clus>
<clus scale="  215.253">  7 10 -1 -1</clus>
<clus scale="  246.027">  2  5  1 -1</clus>
<clus scale="   68.996">  1  5  2 -1</clus>
</clustering>
</event>
<event>
10    4  0.2565852E-005  0.1593378E+03  0.7546771E-02  0.1210077E+00
         21   -1    0    0  501  502  0.00000000000E+00  0.00000000000E+00  0.94491423931E+02  0.94491423931E+02  0.00000000000E+00 0. -1.
         -1   -1    0    0    0  501 -0.00000000000E+00 -0.00000000000E+00 -0.90140500849E+03  0.90140500849E+03  0.00000000000E+00 0.  1.
         24    2    1    2    0    0 -0.38635226486E+02 -0.54504245902E+02 -0.58349596953E+03  0.59275743515E+03  0.80190005089E+02 0.  0.
         23    2    1    2    0    0  0.70629902652E+01  0.19982129368E+02 -0.10215782962E+03  0.13825425330E+03  0.90712981859E+02 0.  0.
        -13    1    3    3    0    0  0.24977875564E+02 -0.11194079710E+02 -0.14555966742E+03  0.14811083170E+03  0.00000000000E+00 0.  1.
         14    1    3    3    0    0 -0.63613102049E+02 -0.43310166192E+02 -0.43793630212E+03  0.44464660345E+03  0.00000000000E+00 0. -1.
        -13    1    4    4    0    0  0.41227651246E+02  0.91133236755E+01 -0.91627514390E+02  0.10088792440E+03  0.00000000000E+00 0.  1.
         13    1    4    4    0    0 -0.34164660981E+02  0.10868805693E+02 -0.10530315232E+02  0.37366328907E+02  0.00000000000E+00 0. -1.
         21    1    1    2  503  502  0.14509261100E+02  0.15538189408E+02  0.69369579727E+02  0.72554066594E+02  0.00000000000E+00 0. -1.
         -2    1    1    2    0  503  0.17062975121E+02  0.18983927125E+02 -0.19062936513E+03  0.19233067738E+03  0.00000000000E+00 0.  1.
<scales pt_clust_5="13000.00000" pt_clust_6="13000.00000" pt_clust_7="13000.00000" pt_clust_8="13000.00000" pt_clust_9="21.25921" pt_clust_10="13000.00000"></scales>
<clustering>
<clus scale="   21.259">  1  9  2 -1</clus>
<clus scale="   80.190">  5  6 -1 -1</clus>
<clus scale="   90.713">  7  8 -1 -1</clus>
<clus scale="   26.294">  7 10 -1 -1</clus>
<clus scale="  101.771">  2  5  1 -1</clus>
<clus scale="   21.259">  1  5  2 -1</clus>
</clustering>
</event>
<event>
10    4  0.2565852E-005  0.2719595E+03  0.7546771E-02  0.1144014E+00
         21   -1    0    0  503  502  0.00000000000E+00  0.00000000000E+00  0.24076626063E+03  0.24076626063E+03  0.00000000000E+00 0. -1.
          2   -1    0    0  502    0 -0.00000000000E+00 -0.00000000000E+00 -0.87400801898E+03  0.87400801898E+03  0.00000000000E+00 0. -1.
         24    2    1    2    0    0  0.59321436304E+02  0.21286979537E+02 -0.28777250794E+03  0.30531153435E+03  0.80186958904E+02 0.  0.
         23    2    1    2    0    0  0.90477841961E+02  0.72408879070E+02 -0.44978310525E+03  0.47334342617E+03  0.91213330565E+02 0.  0.
        -13    1    3    3    0    0  0.50140385938E+02  0.26379672574E+02 -0.84308972638E+02  0.10157730206E+03  0.00000000000E+00 0.  1.
         14    1    3    3    0    0  0.91810503661E+01 -0.50926930368E+01 -0.20346353530E+03  0.20373423229E+03  0.00000000000E+00 0. -1.
        -11    1    4    4    0    0  0.29325027089E+02  0.80125644518E+02 -0.24138273775E+03  0.25601894892E+03  0.00000000000E+00 0. -1.
         11    1    4    4    0    0  0.61152814873E+02 -0.77167654474E+01 -0.20840036750E+03  0.21732447725E+03  0.00000000000E+00 0.  1.
         21    1    1    2  503  501 -0.89175050413E+02 -0.23578093422E+02  0.18916470444E+03  0.21045522448E+03  0.00000000000E+00 0. -1.
          1    1    1    2  501    0 -0.60624227852E+02 -0.70117765185E+02 -0.84850849593E+02  0.12566409461E+03  0.00000000000E+00 0. -1.
<scales pt_clust_5="13000.00000" pt_clust_6="13000.00000" pt_clust_7="13000.00000" pt_clust_8="13000.00000" pt_clust_9="92.23945" pt_clust_10="13000.00000"></scales>
<clustering>
<clus scale="   80.187">  5  6 -1 -1</clus>
<clus scale="   91.213">  7  8 -1 -1</clus>
<clus scale="   92.239">  1  9  2 -1</clus>
<clus scale="   91.170">  2  5  1 -1</clus>
<clus scale="  117.054">  7 10 -1 -1</clus>
<clus scale="   92.239">  1  5  2 -1</clus>
</clustering>
</event>
<event>
10    4  0.2565852E-005  0.4234149E+03  0.7546771E-02  0.1092932E+00
          2   -1    0    0  503    0 -0.00000000000E+00  0.00000000000E+00  0.88070746964E+03  0.88070746964E+03  0.00000000000E+00 0. -1.
         21   -1    0    0  501  502  0.00000000000E+00 -0.00000000000E+00 -0.17790336985E+03  0.17790336985E+03  0.00000000000E+00 0. -1.
         24    2    1    2    0    0 -0.26291496597E+02  0.25932936518E+02  0.21253574653E+03  0.23031356443E+03  0.80679206836E+02 0.  0.
         23    2    1    2    0    0  0.10640433915E+03  0.57471995384E+02  0.36822194687E+02  0.15507132038E+03  0.89812731498E+02 0.  0.
        -13    1    3    3    0    0  0.21706804873E+02 -0.15533460721E+01  0.18546926598E+02  0.28593473872E+02  0.00000000000E+00 0.  1.
         14    1    3    3    0    0 -0.47998301469E+02  0.27486282590E+02  0.19398881994E+03  0.20172009056E+03  0.00000000000E+00 0. -1.
        -11    1    4    4    0    0  0.45622569361E+02 -0.19726099126E+02 -0.11933077691E+01  0.49718827473E+02  0.00000000000E+00 0.  1.
         11    1    4    4    0    0  0.60781769787E+02  0.77198094509E+02  0.38015502456E+02  0.10535249291E+03  0.00000000000E+00 0. -1.
         21    1    1    2  503  502  0.42874397507E+02 -0.10513512088E+02 -0.95904786289E+02  0.10557687214E+03  0.00000000000E+00 0. -1.
          1    1    1    2  501    0 -0.12298724006E+03 -0.72891419814E+02  0.54935094486E+03  0.56764908255E+03  0.00000000000E+00 0. -1.
<scales pt_clust_5="13000.00000" pt_clust_6="13000.00000" pt_clust_7="13000.00000" pt_clust_8="13000.00000" pt_clust_9="44.14462" pt_clust_10="13000.00000"></scales>
<clustering>
<clus scale="   44.145">  2  9  1 -1</clus>
<clus scale="   80.679">  5  6 -1 -1</clus>
<clus scale="   87.042">  1  5  2 -1</clus>
<clus scale="   89.813">  7  8 -1 -1</clus>
<clus scale="  145.496">  7 10 -1 -1</clus>
<clus scale="   44.145">  2  5  1 -1</clus>
</clustering>
</event>
<event>
10    4  0.2565852E-005  0.2738610E+03  0.7546771E-02  0.1120822E+00
         21   -1    0    0  503  502  0.00000000000E+00  0.00000000000E+00  0.79370723489E+02  0.79370723489E+02  0.00000000000E+00 0.  1.
         -1   -1    0    0    0  501 -0.00000000000E+00 -0.00000000000E+00 -0.11688687236E+04  0.11688687236E+04  0.00000000000E+00 0.  1.
         24    2    1    2    0    0 -0.13968473366E+03  0.44881059423E+02 -0.39356680443E+03  0.42748315258E+03  0.79503973978E+02 0.  0.
         23    2    1    2    0    0  0.11801246556E+03  0.59960281476E+02 -0.53067872776E+03  0.55450875895E+03  0.91311961276E+02 0.  0.
        -13    1    3    3    0    0 -0.94529642176E+02  0.67531638252E+02 -0.28331570914E+03  0.30620935071E+03  0.00000000000E+00 0.  1.
         14    1    3    3    0    0 -0.45155091482E+02 -0.22650578829E+02 -0.11025109529E+03  0.12127380187E+03  0.00000000000E+00 0. -1.
        -13    1    4    4    0    0  0.12005072000E+02  0.44563795590E+02 -0.24708887697E+03  0.25136222221E+03  0.00000000000E+00 0. -1.
         13    1    4    4    0    0  0.10600739356E+03  0.15396485886E+02 -0.28358985080E+03  0.30314653675E+03  0.00000000000E+00 0.  1.
         21    1    1    2  503  501  0.25444856952E+02 -0.55742948800E+01  0.34457573440E+02  0.43195345537E+02  0.00000000000E+00 0.  1.
         -2    1    1    2    0  502 -0.37725888541E+01 -0.99267046020E+02 -0.19971004134E+03  0.22305219000E+03  0.00000000000E+00 0.  1.
<scales pt_clust_5="13000.00000" pt_clust_6="13000.00000" pt_clust_7="13000.00000" pt_clust_8="13000.00000" pt_clust_9="26.04829" pt_clust_10="13000.00000"></scales>
<clustering>
<clus scale="   26.048">  1  9  2 -1</clus>
<clus scale="   79.504">  5  6 -1 -1</clus>
<clus scale="   91.312">  7  8 -1 -1</clus>
<clus scale="  100.934">  7 10 -1 -1</clus>
<clus scale="  157.427">  2  5  1 -1</clus>
<clus scale="   26.048">  1  5  2 -1</clus>
</clustering>
</event>
<event>
10    4  0.2565852E-005  0.3585653E+03  0.7546771E-02  0.1109746E+00
         21   -1    0    0  503  502  0.00000000000E+00  0.00000000000E+00  0.53387343188E+03  0.53387343188E+03  0.00000000000E+00 0.  1.
         -1   -1    0    0    0  501 -0.00000000000E+00 -0.00000000000E+00 -0.15555746109E+03  0.15555746109E+03  0.00000000000E+00 0.  1.
         24    2    1    2    0    0  0.29129998455E+02  0.53872426726E+02  0.65303008874E+02  0.11955461704E+03  0.79234009841E+02 0.  0.
         23    2    1    2    0    0 -0.83539146706E+02 -0.12482012763E+03  0.14622840141E+03  0.22724377080E+03  0.87739003285E+02 0.  0.
        -13    1    3    3    0    0  0.18329137781E+02  0.89370271137E+01 -0.16077151195E+02  0.25967335943E+02  0.00000000000E+00 0.  1.
         14    1    3    3    0    0  0.10800860673E+02  0.44935399613E+02  0.81380160069E+02  0.93587281094E+02  0.00000000000E+00 0. -1.
        -13    1    4    4    0    0 -0.98719319306E+02 -0.96721503759E+02  0.98096470548E+02  0.16948000126E+03  0.00000000000E+00 0.  1.
         13    1    4    4    0    0  0.15180172600E+02 -0.28098623870E+02  0.48131930857E+02  0.57763769541E+02  0.00000000000E+00 0. -1.
         21    1    1    2  503  501 -0.78242244678E+02 -0.26034565842E+02  0.15782170402E+03  0.17806554336E+03  0.00000000000E+00 0.  1.
         -2    1    1    2    0  502  0.13265139293E+03  0.96982266745E+02  0.89628564890E+01  0.16456696177E+03  0.00000000000E+00 0.  1.
<scales pt_clust_5="13000.00000" pt_clust_6="13000.00000" pt_clust_7="13000.00000" pt_clust_8="13000.00000" pt_clust_9="82.45997" pt_clust_10="13000.00000"></scales>
<clustering>
<clus scale="   79.234">  5  6 -1 -1</clus>
<clus scale="   82.460">  1  9  2 -1</clus>
<clus scale="   87.739">  7  8 -1 -1</clus>
<clus scale="   92.751">  2  5  1 -1</clus>
<clus scale="  165.424">  7 10 -1 -1</clus>
<clus scale="   82.460">  1  5  2 -1</clus>
</clustering>
</event>
<event>
10    4  0.2565852E-005  0.1534149E+03  0.7546771E-02  0.1225437E+00
          2   -1    0    0  502    0 -0.00000000000E+00  0.00000000000E+00  0.71159159694E+03  0.71159159694E+03  0.00000000000E+00 0. -1.
         21   -1    0    0  503  502  0.00000000000E+00 -0.00000000000E+00 -0.20996338162E+03  0.20996338162E+03  0.00000000000E+00 0.  1.
         24    2    1    2    0    0  0.49925170844E+01 -0.41984199849E+00  0.46050821701E+03  0.46769423881E+03  0.81516756520E+02 0.  0.
         23    2    1    2    0    0 -0.67669651388E+02 -0.14556996385E+02  0.84531174136E+02  0.14335071969E+03  0.92805288497E+02 0.  0.
        -11    1    3    3    0    0 -0.25439596343E+02  0.26892360855E+02  0.14977073373E+03  0.15427781699E+03  0.00000000000E+00 0.  1.
         12    1    3    3    0    0  0.30432113427E+02 -0.27312202853E+02  0.31073748328E+03  0.31341642182E+03  0.00000000000E+00 0. -1.
        -13    1    4    4    0    0 -0.57404032943E+02  0.92099173330E+01  0.34542419396E+01  0.58240684773E+02  0.00000000000E+00 0.  1.
         13    1    4    4    0    0 -0.10265618445E+02 -0.23766913718E+02  0.81076932197E+02  0.85110034921E+02  0.00000000000E+00 0. -1.
         21    1    1    2  503  501  0.71856554384E+02 -0.72356460653E+01 -0.16839920334E+03  0.18323212237E+03  0.00000000000E+00 0.  1.
          1    1    1    2  501    0 -0.91794200803E+01  0.22212484449E+02  0.12498802751E+03  0.12727789769E+03  0.00000000000E+00 0. -1.
<scales pt_clust_5="13000.00000" pt_clust_6="13000.00000" pt_clust_7="13000.00000" pt_clust_8="13000.00000" pt_clust_9="72.21993" pt_clust_10="13000.00000"></scales>
<clustering>
<clus scale="   72.220">  2  9  1 -1</clus>
<clus scale="   81.517">  5  6 -1 -1</clus>
<clus scale="   82.486">  1  5  2 -1</clus>
<clus scale="   92.805">  7  8 -1 -1</clus>
<clus scale="   21.384">  7 10 -1 -1</clus>
<clus scale="   72.220">  2  5  1 -1</clus>
</clustering>
</event>
<event>
10    4  0.2565852E-005  0.1861030E+03  0.7546771E-02  0.1198525E+00
          2   -1    0    0  502    0 -0.00000000000E+00  0.00000000000E+00  0.36151892187E+03  0.36151892187E+03  0.00000000000E+00 0. -1.
         21   -1    0    0  503  502  0.00000000000E+00 -0.00000000000E+00 -0.26805889125E+03  0.26805889125E+03  0.00000000000E+00 0. -1.
         24    2    1    2    0    0  0.18109602403E+02  0.58701784349E+01  0.19640346654E+03  0.21322593200E+03  0.80799503164E+02 0.  0.
         23    2    1    2    0    0  0.96954117115E+00 -0.12713418411E+02  0.12501208378E+03  0.15565649205E+03  0.91860499721E+02 0.  0.
        -13    1    3    3    0    0  0.18020279168E+02  0.26265384407E+02  0.24679117763E+02  0.40294661345E+02  0.00000000000E+00 0.  1.
         14    1    3    3    0    0  0.89323235105E-01 -0.20395205972E+02  0.17172434878E+03  0.17293127065E+03  0.00000000000E+00 0. -1.
        -11    1    4    4    0    0  0.37997697285E+02 -0.10515739395E+02  0.19843403062E+02  0.44138038233E+02  0.00000000000E+00 0. -1.
         11    1    4    4    0    0 -0.37028156114E+02 -0.21976790158E+01  0.10516868072E+03  0.11151845382E+03  0.00000000000E+00 0.  1.
         21    1    1    2  503  501 -0.35996960342E+02 -0.37352033460E+02 -0.19801377930E+03  0.20469590214E+03  0.00000000000E+00 0. -1.
          1    1    1    2  501    0  0.16917816768E+02  0.44195273436E+02 -0.29941740398E+02  0.55999486929E+02  0.00000000000E+00 0. -1.
<scales pt_clust_5="13000.00000" pt_clust_6="13000.00000" pt_clust_7="13000.00000" pt_clust_8="13000.00000" pt_clust_9="51.87442" pt_clust_10="13000.00000"></scales>
<clustering>
<clus scale="   51.874">  2  9  1 -1</clus>
<clus scale="   80.800">  5  6 -1 -1</clus>
<clus scale="   81.939">  1  5  2 -1</clus>
<clus scale="   91.860">  7  8 -1 -1</clus>
<clus scale="   20.903">  7 10 -1 -1</clus>
<clus scale="   51.874">  2  5  1 -1</clus>
</clustering>
</event>
<event>
10    4  0.2565852E-005  0.5402875E+03  0.7546771E-02  0.1046167E+00
         21   -1    0    0  503  502  0.00000000000E+00  0.00000000000E+00  0.16599255251E+03  0.16599255251E+03  0.00000000000E+00 0. -1.
          2   -1    0    0  502    0 -0.00000000000E+00 -0.00000000000E+00 -0.91389845348E+03  0.91389845348E+03  0.00000000000E+00 0. -1.
         24    2    1    2    0    0  0.66494518333E+02  0.10175961522E+03 -0.19168863465E+03  0.24053213666E+03  0.79590425621E+02 0.  0.
         23    2    1    2    0    0  0.28985656975E+02  0.18200250763E+03 -0.18405012790E+03  0.27574404778E+03  0.90527615757E+02 0.  0.
        -13    1    3    3    0    0 -0.12610905977E+02  0.33714322480E+02 -0.79779328108E+02  0.87523892071E+02  0.00000000000E+00 0.  1.
         14    1    3    3    0    0  0.79105424310E+02  0.68045292743E+02 -0.11190930654E+03  0.15300824459E+03  0.00000000000E+00 0. -1.
        -13    1    4    4    0    0  0.45847688955E+02  0.16577828632E+03 -0.18463334084E+03  0.25233692030E+03  0.00000000000E+00 0. -1.
         13    1    4    4    0    0 -0.16862031979E+02  0.16224221312E+02  0.58321294184E+00  0.23407127483E+02  0.00000000000E+00 0.  1.
         21    1    1    2  503  501  0.10698534572E+02  0.41564931068E+02  0.16299329042E+02  0.45910459199E+02  0.00000000000E+00 0.  1.
          1    1    1    2  501    0 -0.10617870988E+03 -0.32532705392E+03 -0.38846646747E+03  0.51770436235E+03  0.00000000000E+00 0. -1.
<scales pt_clust_5="13000.00000" pt_clust_6="13000.00000" pt_clust_7="13000.00000" pt_clust_8="13000.00000" pt_clust_9="42.91972" pt_clust_10="13000.00000"></scales>
<clustering>
<clus scale="   42.920">  1  9  2 -1</clus>
<clus scale="   79.590">  5  6 -1 -1</clus>
<clus scale="   90.528">  7  8 -1 -1</clus>
<clus scale="  151.528">  2  5  1 -1</clus>
<clus scale="  247.098">  7 10 -1 -1</clus>
<clus scale="   42.920">  1  5  2 -1</clus>
</clustering>
</event>
<event>
10    4  0.2565852E-005  0.3039573E+03  0.7546771E-02  0.1099815E+00
         21   -1    0    0  503  502  0.00000000000E+00  0.00000000000E+00  0.18002048367E+03  0.18002048367E+03  0.00000000000E+00 0. -1.
          2   -1    0    0  502    0 -0.00000000000E+00 -0.00000000000E+00 -0.82637371053E+03  0.82637371053E+03  0.00000000000E+00 0. -1.
         24    2    1    2    0    0 -0.55108138797E+02 -0.11611820271E+03 -0.79347971941E+02  0.17110780913E+03  0.80383068675E+02 0.  0.
         23    2    1    2    0    0  0.12787817789E+03  0.10459737552E+03 -0.20856166509E+03  0.28102661042E+03  0.90468493267E+02 0.  0.
        -11    1    3    3    0    0 -0.32966488747E+02 -0.14154346881E+00 -0.11407570647E+02  0.34884696974E+02  0.00000000000E+00 0.  1.
         12    1    3    3    0    0 -0.22141650050E+02 -0.11597665924E+03 -0.67940401295E+02  0.13622311215E+03  0.00000000000E+00 0. -1.
        -11    1    4    4    0    0  0.96992854808E+02  0.21337185842E+02 -0.10301304235E+03  0.14308939960E+03  0.00000000000E+00 0. -1.
         11    1    4    4    0    0  0.30885323083E+02  0.83260189680E+02 -0.10554862274E+03  0.13793721083E+03  0.00000000000E+00 0.  1.
         21    1    1    2  503  501 -0.58319657493E+02 -0.78356772940E+02  0.67477703782E+02  0.11871902469E+03  0.00000000000E+00 0. -1.
          1    1    1    2  501    0 -0.14450381601E+02  0.89877600131E+02 -0.42592129361E+03  0.43554074997E+03  0.00000000000E+00 0. -1.
<scales pt_clust_5="13000.00000" pt_clust_6="13000.00000" pt_clust_7="13000.00000" pt_clust_8="13000.00000" pt_clust_9="97.67787" pt_clust_10="13000.00000"></scales>
<clustering>
<clus scale="   80.383">  5  6 -1 -1</clus>
<clus scale="   90.468">  7  8 -1 -1</clus>
<clus scale="   91.032">  7 10 -1 -1</clus>
<clus scale="   97.678">  1  9  2 -1</clus>
<clus scale="  196.565">  2  5  1 -1</clus>
<clus scale="   97.678">  1  5  2 -1</clus>
</clustering>
</event>
<event>
10    4  0.2565852E-005  0.1161151E+03  0.7546771E-02  0.1261764E+00
         21   -1    0    0  503  502  0.00000000000E+00  0.00000000000E+00  0.98102737423E+02  0.98102737423E+02  0.00000000000E+00 0.  1.
          2   -1    0    0  502    0 -0.00000000000E+00 -0.00000000000E+00 -0.28291583822E+03  0.28291583822E+03  0.00000000000E+00 0. -1.
         24    2    1    2    0    0 -0.33563060988E+02 -0.17836340687E+02 -0.17108573858E+03  0.19590493079E+03  0.87543119952E+02 0.  0.
         23    2    1    2    0    0 -0.96619909774E+01 -0.18065728818E+02 -0.68705312101E+01  0.92911508488E+02  0.90363817886E+02 0.  0.
        -13    1    3    3    0    0 -0.20162033995E+02  0.61691834686E+00  0.29458171927E+01  0.20385437007E+02  0.00000000000E+00 0.  1.
         14    1    3    3    0    0 -0.13401026993E+02 -0.18453259034E+02 -0.17403155577E+03  0.17551949378E+03  0.00000000000E+00 0. -1.
        -13    1    4    4    0    0 -0.45000394560E+01  0.36767990869E+02  0.21356356288E+01  0.37103860273E+02  0.00000000000E+00 0.  1.
         13    1    4    4    0    0 -0.51619515215E+01 -0.54833719686E+02 -0.90061668389E+01  0.55807648215E+02  0.00000000000E+00 0. -1.
         21    1    1    2  503  501  0.63301337688E+02  0.22676635741E+02 -0.99142711467E+01  0.67967506457E+02  0.00000000000E+00 0.  1.
          1    1    1    2  501    0 -0.20076285723E+02  0.13225433763E+02  0.30574401373E+01  0.24234629910E+02  0.00000000000E+00 0. -1.
<scales pt_clust_5="13000.00000" pt_clust_6="13000.00000" pt_clust_7="13000.00000" pt_clust_8="13000.00000" pt_clust_9="67.24053" pt_clust_10="13000.00000"></scales>
<clustering>
<clus scale="   67.241">  1  9  2 -1</clus>
<clus scale="   87.543">  5  6 -1 -1</clus>
<clus scale="   90.364">  7  8 -1 -1</clus>
<clus scale="   19.256">  7 10 -1 -1</clus>
<clus scale="   91.354">  2  5  1 -1</clus>
<clus scale="   67.241">  1  5  2 -1</clus>
</clustering>
</event>
<event>
10    4  0.2565852E-005  0.2624124E+03  0.7546771E-02  0.1146553E+00
         -1   -1    0    0    0  501 -0.00000000000E+00  0.00000000000E+00  0.41876708951E+03  0.41876708951E+03  0.00000000000E+00 0.  1.
         21   -1    0    0  503  502  0.00000000000E+00 -0.00000000000E+00 -0.13801654245E+03  0.13801654245E+03  0.00000000000E+00 0.  1.
         24    2    1    2    0    0 -0.86544665936E+02 -0.78849604383E+01  0.28480778528E+02  0.12152662440E+03  0.80033829657E+02 0.  0.
         23    2    1    2    0    0  0.58565038444E+02  0.49830457367E+02  0.22482383297E+03  0.25400083385E+03  0.89764856782E+02 0.  0.
        -13    1    3    3    0    0 -0.93637077977E+02  0.14400074691E+02  0.21997924416E+02  0.97258280891E+02  0.00000000000E+00 0.  1.
         14    1    3    3    0    0  0.70924120407E+01 -0.22285035130E+02  0.64828541118E+01  0.24268343510E+02  0.00000000000E+00 0. -1.
        -13    1    4    4    0    0  0.68260275987E+02  0.88473861977E+00  0.12682987100E+03  0.14403494096E+03  0.00000000000E+00 0.  1.
         13    1    4    4    0    0 -0.96952375431E+01  0.48945718747E+02  0.97993961974E+02  0.10996589289E+03  0.00000000000E+00 0. -1.
         21    1    1    2  503  501  0.78652177295E+02  0.35088834220E+02  0.21997093062E+02  0.88889050976E+02  0.00000000000E+00 0.  1.
         -2    1    1    2    0  502 -0.50672549803E+02 -0.77034331149E+02  0.54488425008E+01  0.92367122743E+02  0.00000000000E+00 0.  1.
<scales pt_clust_5="13000.00000" pt_clust_6="13000.00000" pt_clust_7="13000.00000" pt_clust_8="13000.00000" pt_clust_9="86.12428" pt_clust_10="13000.00000"></scales>
<clustering>
<clus scale="   80.034">  5  6 -1 -1</clus>
<clus scale="   86.124">  2  9  1 -1</clus>
<clus scale="   89.765">  7  8 -1 -1</clus>
<clus scale="   64.990">  7 10 -1 -1</clus>
<clus scale="   95.513">  1  5  2 -1</clus>
<clus scale="   86.124">  2  5  1 -1</clus>
</clustering>
</event>
<event>
10    4  0.2565852E-005  0.2261880E+03  0.7546771E-02  0.1165072E+00
         21   -1    0    0  501  502  0.00000000000E+00  0.00000000000E+00  0.33179364183E+03  0.33179364183E+03  0.00000000000E+00 0.  1.
          2   -1    0    0  503    0 -0.00000000000E+00 -0.00000000000E+00 -0.44918110905E+03  0.44918110905E+03  0.00000000000E+00 0. -1.
         24    2    1    2    0    0 -0.17542856791E+01 -0.24317784087E+02 -0.93398976426E+02  0.13436851423E+03  0.93472438063E+02 0.  0.
         23    2    1    2    0    0  0.38049554667E+02 -0.12358320994E+02 -0.24148352798E+03  0.26324336034E+03  0.96862148276E+02 0.  0.
        -11    1    3    3    0    0  0.27381604652E+02  0.21710499381E+02 -0.13065660955E+02  0.37306963865E+02  0.00000000000E+00 0.  1.
         12    1    3    3    0    0 -0.29135890331E+02 -0.46028283468E+02 -0.80333315471E+02  0.97061550363E+02  0.00000000000E+00 0. -1.
        -11    1    4    4    0    0  0.58538991022E+02  0.21483224814E+02 -0.17620049984E+03  0.18690895795E+03  0.00000000000E+00 0.  1.
         11    1    4    4    0    0 -0.20489436355E+02 -0.33841545808E+02 -0.65283028138E+02  0.76334402386E+02  0.00000000000E+00 0. -1.
         21    1    1    2  503  502  0.19618042918E+02  0.10170798965E+03  0.26556153396E+03  0.28504791016E+03  0.00000000000E+00 0.  1.
          1    1    1    2  501    0 -0.55913311906E+02 -0.65031884572E+02 -0.48066496767E+02  0.98314966159E+02  0.00000000000E+00 0. -1.
<scales pt_clust_5="13000.00000" pt_clust_6="13000.00000" pt_clust_7="13000.00000" pt_clust_8="13000.00000" pt_clust_9="102.87927" pt_clust_10="13000.00000"></scales>
<clustering>
<clus scale="   93.472">  5  6 -1 -1</clus>
<clus scale="   96.600">  2  5  1 -1</clus>
<clus scale="   96.862">  7  8 -1 -1</clus>
<clus scale="   90.094">  7 10 -1 -1</clus>
<clus scale="  102.879">  1  9  2 -1</clus>
<clus scale="  102.879">  1  5  2 -1</clus>
</clustering>
</event>
<event>
10    4  0.2565852E-005  0.2378169E+03  0.7546771E-02  0.1122142E+00
          2   -1    0    0  503    0 -0.00000000000E+00  0.00000000000E+00  0.29112260661E+03  0.29112260661E+03  0.00000000000E+00 0. -1.
         21   -1    0    0  501  502  0.00000000000E+00 -0.00000000000E+00 -0.23435161462E+03  0.23435161462E+03  0.00000000000E+00 0.  1.
         24    2    1    2    0    0  0.20189309758E+03  0.79377996406E+02 -0.15809529158E+02  0.24351813595E+03  0.10949635684E+03 0.  0.
         23    2    1    2    0    0 -0.10056036404E+03 -0.49474892798E+02  0.83156279513E+01  0.14339233761E+03  0.89062118672E+02 0.  0.
        -13    1    3    3    0    0  0.16052997906E+03  0.10706068213E+03 -0.17252530239E+02  0.19372535620E+03  0.00000000000E+00 0.  1.
         14    1    3    3    0    0  0.41363118520E+02 -0.27682685728E+02  0.14430010812E+01  0.49792779747E+02  0.00000000000E+00 0. -1.
        -13    1    4    4    0    0 -0.46805266507E+02 -0.48806961527E+02 -0.33328761863E+02  0.75390044659E+02  0.00000000000E+00 0.  1.
         13    1    4    4    0    0 -0.53755097535E+02 -0.66793127058E+00  0.41644389814E+02  0.68002292948E+02  0.00000000000E+00 0. -1.
         21    1    1    2  503  502 -0.29569085592E+02  0.16552325564E+02  0.33659774225E+02  0.47762859056E+02  0.00000000000E+00 0.  1.
          1    1    1    2  501    0 -0.71763647946E+02 -0.46455429173E+02  0.30605118969E+02  0.90800888615E+02  0.00000000000E+00 0. -1.
<scales pt_clust_5="13000.00000" pt_clust_6="13000.00000" pt_clust_7="13000.00000" pt_clust_8="13000.00000" pt_clust_9="33.88674" pt_clust_10="13000.00000"></scales>
<clustering>
<clus scale="   33.887">  2  9  1 -1</clus>
<clus scale="   89.062">  7  8 -1 -1</clus>
<clus scale="   87.673">  7 10 -1 -1</clus>
<clus scale="  109.496">  5  6 -1 -1</clus>
<clus scale="  232.622">  1  5  2 -1</clus>
<clus scale="   33.887">  2  5  1 -1</clus>
</clustering>
</event>
<event>
10    4  0.2565852E-005  0.3132864E+03  0.7546771E-02  0.1112089E+00
          4   -1    0    0  503    0 -0.00000000000E+00  0.00000000000E+00  0.15472456065E+04  0.15472456065E+04  0.00000000000E+00 0. -1.
         21   -1    0    0  501  502  0.00000000000E+00 -0.00000000000E+00 -0.65944136126E+02  0.65944136126E+02  0.00000000000E+00 0.  1.
         24    2    1    2    0    0  0.80360955485E+02 -0.27211706516E+02  0.13640585756E+03  0.17949805262E+03  0.80091402651E+02 0.  0.
         23    2    1    2    0    0 -0.21080812621E+03  0.15263662699E+02  0.91424647771E+03  0.94258452175E+03  0.89139851661E+02 0.  0.
        -13    1    3    3    0    0  0.45011864648E+02  0.23742354541E+02  0.84436422144E+02  0.98586392279E+02  0.00000000000E+00 0.  1.
         14    1    3    3    0    0  0.35349090837E+02 -0.50954061057E+02  0.51969435421E+02  0.80911660341E+02  0.00000000000E+00 0. -1.
        -13    1    4    4    0    0 -0.27164446954E+02 -0.78146766030E+01  0.40119043334E+02  0.49076613441E+02  0.00000000000E+00 0. -1.
         13    1    4    4    0    0 -0.18364367926E+03  0.23078339302E+02  0.87412743438E+03  0.89350790831E+03  0.00000000000E+00 0.  1.
         21    1    1    2  503  502  0.42760431242E+02  0.31823289104E+02  0.22239100286E+01  0.53349057960E+02  0.00000000000E+00 0.  1.
          3    1    1    2  501    0  0.87686739486E+02 -0.19875245287E+02  0.42842522511E+03  0.43775811034E+03  0.00000000000E+00 0. -1.
<scales pt_clust_5="13000.00000" pt_clust_6="13000.00000" pt_clust_7="13000.00000" pt_clust_8="13000.00000" pt_clust_9="53.30268" pt_clust_10="13000.00000"></scales>
<clustering>
<clus scale="   53.303">  2  9  1 -1</clus>
<clus scale="   80.091">  5  6 -1 -1</clus>
<clus scale="   89.140">  7  8 -1 -1</clus>
<clus scale="   94.034">  7 10 -1 -1</clus>
<clus scale="  131.014">  1  5  2 -1</clus>
<clus scale="   53.303">  2  5  1 -1</clus>
</clustering>
</event>
<event>
10    4  0.2565852E-005  0.3539655E+03  0.7546771E-02  0.1113725E+00
          2   -1    0    0  502    0 -0.00000000000E+00  0.00000000000E+00  0.83520536326E+03  0.83520536326E+03  0.00000000000E+00 0. -1.
         21   -1    0    0  503  502  0.00000000000E+00 -0.00000000000E+00 -0.69287545727E+02  0.69287545727E+02  0.00000000000E+00 0. -1.
         24    2    1    2    0    0  0.22113961987E+02  0.29734058630E+02  0.12947716230E+03  0.15692104269E+03  0.80540278898E+02 0.  0.
         23    2    1    2    0    0 -0.13017754473E+03 -0.11015062766E+03  0.38490380636E+03  0.43067510120E+03  0.90833632081E+02 0.  0.
        -13    1    3    3    0    0 -0.20493305600E+02  0.25699075623E+02  0.99179297050E+02  0.10448421424E+03  0.00000000000E+00 0.  1.
         14    1    3    3    0    0  0.42607267588E+02  0.40349830075E+01  0.30297865245E+02  0.52436828447E+02  0.00000000000E+00 0. -1.
        -11    1    4    4    0    0 -0.79082217311E+02 -0.31491358278E+02  0.10325514160E+03  0.13381826111E+03  0.00000000000E+00 0. -1.
         11    1    4    4    0    0 -0.51095327418E+02 -0.78659269385E+02  0.28164866476E+03  0.29685684008E+03  0.00000000000E+00 0.  1.
         21    1    1    2  503  501 -0.26297912076E+02 -0.26520244310E+01  0.99360292210E+01  0.28237175670E+02  0.00000000000E+00 0. -1.
          1    1    1    2  501    0  0.13436149482E+03  0.83068593464E+02  0.24160081966E+03  0.28865958943E+03  0.00000000000E+00 0. -1.
<scales pt_clust_5="13000.00000" pt_clust_6="13000.00000" pt_clust_7="13000.00000" pt_clust_8="13000.00000" pt_clust_9="26.43130" pt_clust_10="13000.00000"></scales>
<clustering>
<clus scale="   26.431">  2  9  1 -1</clus>
<clus scale="   80.540">  5  6 -1 -1</clus>
<clus scale="   87.149">  1  5  2 -1</clus>
<clus scale="   90.834">  7  8 -1 -1</clus>
<clus scale="  159.278">  7 10 -1 -1</clus>
<clus scale="   26.431">  2  5  1 -1</clus>
</clustering>
</event>
<event>
10    4  0.2565852E-005  0.4554423E+03  0.7546771E-02  0.1072435E+00
          2   -1    0    0  503    0 -0.00000000000E+00  0.00000000000E+00  0.10298302597E+04  0.10298302597E+04  0.00000000000E+00 0. -1.
         21   -1    0    0  501  502  0.00000000000E+00 -0.00000000000E+00 -0.10083680558E+03  0.10083680558E+03  0.00000000000E+00 0. -1.
         24    2    1    2    0    0 -0.88647281792E+02 -0.13649016020E+02  0.30316751227E+03  0.32606395397E+03  0.79765439724E+02 0.  0.
         23    2    1    2    0    0 -0.15875799140E+03  0.25213687111E+01  0.34028425743E+03  0.38654999252E+03  0.91744556965E+02 0.  0.
        -13    1    3    3    0    0 -0.14416880303E+02 -0.29994374749E+02  0.39454108300E+02  0.51615265339E+02  0.00000000000E+00 0.  1.
         14    1    3    3    0    0 -0.74230401488E+02  0.16345358729E+02  0.26371340397E+03  0.27444868863E+03  0.00000000000E+00 0. -1.
        -11    1    4    4    0    0 -0.57509952190E+02 -0.33237914804E+02  0.74043621015E+02  0.99471661263E+02  0.00000000000E+00 0. -1.
         11    1    4    4    0    0 -0.10124803921E+03  0.35759283516E+02  0.26624063641E+03  0.28707833126E+03  0.00000000000E+00 0.  1.
         21    1    1    2  503  502 -0.15513421118E+02  0.30848853240E+02  0.84109654971E+01  0.35539588090E+02  0.00000000000E+00 0. -1.
          1    1    1    2  501    0  0.26291869431E+03 -0.19721205931E+02  0.27713071891E+03  0.38251353067E+03  0.00000000000E+00 0. -1.
<scales pt_clust_5="13000.00000" pt_clust_6="13000.00000" pt_clust_7="13000.00000" pt_clust_8="13000.00000" pt_clust_9="34.52996" pt_clust_10="13000.00000"></scales>
<clustering>
<clus scale="   34.530">  2  9  1 -1</clus>
<clus scale="   79.765">  5  6 -1 -1</clus>
<clus scale="   91.745">  7  8 -1 -1</clus>
<clus scale="  121.153">  1  5  2 -1</clus>
<clus scale="  212.981">  7 10 -1 -1</clus>
<clus scale="   34.530">  2  5  1 -1</clus>
</clustering>
</event>
<event>
10    4  0.2565852E-005  0.2185959E+03  0.7546771E-02  0.1173218E+00
         -3   -1    0    0    0  501 -0.00000000000E+00  0.00000000000E+00  0.10869724676E+03  0.10869724676E+03  0.00000000000E+00 0.  1.
         21   -1    0    0  501  502  0.00000000000E+00 -0.00000000000E+00 -0.39464774873E+03  0.39464774873E+03  0.00000000000E+00 0.  1.
         24    2    1    2    0    0 -0.20437761553E+02  0.31205084227E+02 -0.34514365466E+02  0.95273600117E+02  0.80587580165E+02 0.  0.
         23    2    1    2    0    0  0.63167745698E+02 -0.38334044167E+02 -0.55146336086E+02  0.13032155616E+03  0.92102804393E+02 0.  0.
        -11    1    3    3    0    0  0.12147043829E+02 -0.20560894730E+02  0.21193347217E+01  0.23974833588E+02  0.00000000000E+00 0.  1.
         12    1    3    3    0    0 -0.32584805381E+02  0.51765978957E+02 -0.36633700188E+02  0.71298766529E+02  0.00000000000E+00 0. -1.
        -11    1    4    4    0    0  0.79225578162E+02 -0.75974751776E+01 -0.52909568500E+02  0.95571106005E+02  0.00000000000E+00 0.  1.
         11    1    4    4    0    0 -0.16057832463E+02 -0.30736568990E+02 -0.22367675861E+01  0.34750450154E+02  0.00000000000E+00 0. -1.
         21    1    1    2  503  502  0.14521925368E+02  0.90778253017E+02 -0.68541742048E+02  0.11467147832E+03  0.00000000000E+00 0.  1.
         -4    1    1    2    0  503 -0.57251909513E+02 -0.83649293076E+02 -0.12774805837E+03  0.16307836090E+03  0.00000000000E+00 0.  1.
<scales pt_clust_5="13000.00000" pt_clust_6="13000.00000" pt_clust_7="13000.00000" pt_clust_8="13000.00000" pt_clust_9="100.32924" pt_clust_10="13000.00000"></scales>
<clustering>
<clus scale="   80.588">  5  6 -1 -1</clus>
<clus scale="   88.802">  1  5  2 -1</clus>
<clus scale="   92.103">  7  8 -1 -1</clus>
<clus scale="   98.469">  7 10 -1 -1</clus>
<clus scale="  100.329">  2  9  1 -1</clus>
<clus scale="  100.329">  2  5  1 -1</clus>
</clustering>
</event>
<event>
10    4  0.2565852E-005  0.1795039E+03  0.7546771E-02  0.1198061E+00
          2   -1    0    0  503    0 -0.00000000000E+00  0.00000000000E+00  0.78863953103E+03  0.78863953103E+03  0.00000000000E+00 0. -1.
         21   -1    0    0  501  502  0.00000000000E+00 -0.00000000000E+00 -0.17552909831E+03  0.17552909831E+03  0.00000000000E+00 0. -1.
         24    2    1    2    0    0 -0.90901778916E+01 -0.38636584791E+02  0.68897288313E+03  0.69507367738E+03  0.82875607241E+02 0.  0.
         23    2    1    2    0    0 -0.13691582466E+02  0.41923931521E+02  0.60053327605E+02  0.11245866682E+03  0.84234637308E+02 0.  0.
        -13    1    3    3    0    0  0.38940768723E+01 -0.22398277744E+02  0.41928500457E+02  0.47695343915E+02  0.00000000000E+00 0.  1.
         14    1    3    3    0    0 -0.12984254764E+02 -0.16238307047E+02  0.64704438268E+03  0.64737833347E+03  0.00000000000E+00 0. -1.
        -11    1    4    4    0    0 -0.21652084891E+02 -0.59446770074E+01  0.59859700385E+02  0.63932274284E+02  0.00000000000E+00 0. -1.
         11    1    4    4    0    0  0.79605024251E+01  0.47868608529E+02  0.19362721954E+00  0.48526392539E+02  0.00000000000E+00 0.  1.
         21    1    1    2  503  502 -0.18986467668E+02 -0.21514214371E+02 -0.76859730094E+02  0.82041242583E+02  0.00000000000E+00 0. -1.
          1    1    1    2  501    0  0.41768228026E+02  0.18226867641E+02 -0.59056047923E+02  0.74595042548E+02  0.00000000000E+00 0. -1.
<scales pt_clust_5="13000.00000" pt_clust_6="13000.00000" pt_clust_7="13000.00000" pt_clust_8="13000.00000" pt_clust_9="28.69403" pt_clust_10="13000.00000"></scales>
<clustering>
<clus scale="   28.694">  2  9  1 -1</clus>
<clus scale="   82.876">  5  6 -1 -1</clus>
<clus scale="   84.235">  7  8 -1 -1</clus>
<clus scale="   28.748">  7 10 -1 -1</clus>
<clus scale="   92.241">  1  5  2 -1</clus>
<clus scale="   28.694">  2  5  1 -1</clus>
</clustering>
</event>
<event>
10    4  0.2565852E-005  0.2479856E+03  0.7546771E-02  0.1118567E+00
         -3   -1    0    0    0  501 -0.00000000000E+00  0.00000000000E+00  0.86354958601E+03  0.86354958601E+03  0.00000000000E+00 0.  1.
         21   -1    0    0  503  502  0.00000000000E+00 -0.00000000000E+00 -0.29026945434E+03  0.29026945434E+03  0.00000000000E+00 0.  1.
         24    2    1    2    0    0  0.14036500427E+03  0.15459537701E+03  0.54460396558E+03  0.58899918805E+03  0.82003043703E+02 0.  0.
         23    2    1    2    0    0 -0.52613222370E+02  0.11619287472E+02  0.16362931465E+03  0.19526082098E+03  0.91918858721E+02 0.  0.
        -11    1    3    3    0    0  0.12257678557E+03  0.80029998511E+02  0.38641556446E+03  0.41321526772E+03  0.00000000000E+00 0.  1.
         12    1    3    3    0    0  0.17788218704E+02  0.74565378502E+02  0.15818840112E+03  0.17578392033E+03  0.00000000000E+00 0. -1.
        -11    1    4    4    0    0 -0.29621802840E+02 -0.12655325327E+02  0.15812951504E+03  0.16137704914E+03  0.00000000000E+00 0.  1.
         11    1    4    4    0    0 -0.22991419531E+02  0.24274612799E+02  0.54997996114E+01  0.33883771844E+02  0.00000000000E+00 0. -1.
         21    1    1    2  503  501 -0.13571629498E+03 -0.18583946993E+03 -0.18669421819E+03  0.29632744120E+03  0.00000000000E+00 0.  1.
         -4    1    1    2    0  502  0.47964513080E+02  0.19624805439E+02  0.51741069623E+02  0.73231590105E+02  0.00000000000E+00 0.  1.
<scales pt_clust_5="13000.00000" pt_clust_6="13000.00000" pt_clust_7="13000.00000" pt_clust_8="13000.00000" pt_clust_9="191.80951" pt_clust_10="13000.00000"></scales>
<clustering>
<clus scale="   82.003">  5  6 -1 -1</clus>
<clus scale="   91.919">  7  8 -1 -1</clus>
<clus scale="   51.824">  7 10 -1 -1</clus>
<clus scale="  224.336">  1  5  2 -1</clus>
<clus scale="  191.810">  2  9  1 -1</clus>
<clus scale="  191.810">  2  5  1 -1</clus>
</clustering>
</event>
<event>
10    4  0.2565852E-005  0.1592593E+03  0.7546771E-02  0.1212464E+00
         21   -1    0    0  501  502  0.00000000000E+00  0.00000000000E+00  0.11965900267E+03  0.11965900267E+03  0.00000000000E+00 0. -1.
          2   -1    0    0  503    0 -0.00000000000E+00 -0.00000000000E+00 -0.66608495238E+03  0.66608495238E+03  0.00000000000E+00 0. -1.
         24    2    1    2    0    0 -0.48995369512E+02  0.30305028527E+02 -0.37071327979E+03  0.38263437472E+03  0.75244853110E+02 0.  0.
         23    2    1    2    0    0  0.16814655247E+01 -0.62524736135E+02 -0.10719583581E+03  0.15434249093E+03  0.91752315155E+02 0.  0.
        -11    1    3    3    0    0 -0.17702599432E+02  0.12427077182E+02 -0.18154323299E+02  0.28238160853E+02  0.00000000000E+00 0.  1.
         12    1    3    3    0    0 -0.31292770080E+02  0.17877951345E+02 -0.35255895649E+03  0.35439621387E+03  0.00000000000E+00 0. -1.
        -11    1    4    4    0    0 -0.37490543303E+02 -0.22392096601E+02 -0.81912456995E+02  0.92825629210E+02  0.00000000000E+00 0.  1.
         11    1    4    4    0    0  0.39172008828E+02 -0.40132639534E+02 -0.25283378820E+02  0.61516861722E+02  0.00000000000E+00 0. -1.
         21    1    1    2  503  502  0.13615170772E+02  0.49450418391E+02  0.80261322152E+02  0.95250178938E+02  0.00000000000E+00 0. -1.
          1    1    1    2  501    0  0.33698733215E+02 -0.17230710784E+02 -0.14877815626E+03  0.15351691045E+03  0.00000000000E+00 0. -1.
<scales pt_clust_5="13000.00000" pt_clust_6="13000.00000" pt_clust_7="13000.00000" pt_clust_8="13000.00000" pt_clust_9="51.29051" pt_clust_10="13000.00000"></scales>
<clustering>
<clus scale="   51.291">  1  9  2 -1</clus>
<clus scale="   75.245">  5  6 -1 -1</clus>
<clus scale="   91.752">  7  8 -1 -1</clus>
<clus scale="   37.264">  7 10 -1 -1</clus>
<clus scale="   96.867">  2  5  1 -1</clus>
<clus scale="   51.291">  1  5  2 -1</clus>
</clustering>
</event>
<event>
10    4  0.2987447E-005  0.2234430E+03  0.7546771E-02  0.1156418E+00
         21   -1    0    0  503  502  0.00000000000E+00  0.00000000000E+00  0.34566626488E+03  0.34566626488E+03  0.00000000000E+00 0. -1.
          2   -1    0    0  502    0 -0.00000000000E+00 -0.00000000000E+00 -0.11143956957E+04  0.11143956957E+04  0.00000000000E+00 0. -1.
         24    2    1    2    0    0 -0.83136186600E+02  0.65767140056E+02 -0.54280729286E+03  0.55904626058E+03  0.81584447362E+02 0.  0.
         23    2    1    2    0    0  0.11399739343E+03 -0.84552375180E+01 -0.31657496533E+03  0.35074371494E+03  0.98663813736E+02 0.  0.
        -11    1    3    3    0    0 -0.21726166762E+02  0.62915081293E+02 -0.36213865534E+03  0.36820475210E+03  0.00000000000E+00 0.  1.
         12    1    3    3    0    0 -0.61410019838E+02  0.28520587630E+01 -0.18066863752E+03  0.19084150848E+03  0.00000000000E+00 0. -1.
        -11    1    4    4    0    0  0.56576220937E+02 -0.27545939758E+02 -0.59356838474E+02  0.86503652214E+02  0.00000000000E+00 0.  1.
         11    1    4    4    0    0  0.57421172496E+02  0.19090702240E+02 -0.25721812686E+03  0.26424006272E+03  0.00000000000E+00 0. -1.
         21    1    1    2  503  501  0.22481715191E+02 -0.55835674354E+02  0.31447124964E+03  0.32017997580E+03  0.00000000000E+00 0. -1.
          1    1    1    2  501    0 -0.53342922024E+02 -0.14762281839E+01 -0.22381842224E+03  0.23009200923E+03  0.00000000000E+00 0. -1.
<scales pt_clust_5="13000.00000" pt_clust_6="13000.00000" pt_clust_7="13000.00000" pt_clust_8="13000.00000" pt_clust_9="60.19178" pt_clust_10="13000.00000"></scales>
<clustering>
<clus scale="   60.192">  1  9  2 -1</clus>
<clus scale="   81.584">  5  6 -1 -1</clus>
<clus scale="   98.664">  7  8 -1 -1</clus>
<clus scale="   51.428">  7 10 -1 -1</clus>
<clus scale="  122.537">  2  5  1 -1</clus>
<clus scale="   60.192">  1  5  2 -1</clus>
</clustering>
</event>
<event>
10    4  0.2565852E-005  0.2043002E+03  0.7546771E-02  0.1167448E+00
         21   -1    0    0  501  502  0.00000000000E+00  0.00000000000E+00  0.91065487825E+02  0.91065487825E+02  0.00000000000E+00 0.  1.
          2   -1    0    0  503    0 -0.00000000000E+00 -0.00000000000E+00 -0.91170989972E+03  0.91170989972E+03  0.00000000000E+00 0. -1.
         24    2    1    2    0    0 -0.69567466288E+02 -0.83056276128E+01 -0.17761235073E+03  0.20815671416E+03  0.82912331430E+02 0.  0.
         23    2    1    2    0    0  0.11356280620E+03  0.73759547651E+02 -0.57339110487E+03  0.59643608464E+03  0.92852905744E+02 0.  0.
        -11    1    3    3    0    0  0.81284301397E+01 -0.19649378502E+02 -0.80558355221E+02  0.83317573464E+02  0.00000000000E+00 0.  1.
         12    1    3    3    0    0 -0.77695896428E+02  0.11343750889E+02 -0.97053995509E+02  0.12483914070E+03  0.00000000000E+00 0. -1.
        -13    1    4    4    0    0  0.75119990540E+02 -0.62665865930E+01 -0.26890212547E+03  0.27926803643E+03  0.00000000000E+00 0. -1.
         13    1    4    4    0    0  0.38442815657E+02  0.80026134244E+02 -0.30448897940E+03  0.31716804822E+03  0.00000000000E+00 0.  1.
         21    1    1    2  503  502 -0.44557252432E+02 -0.15691240666E+02  0.49889488935E+02  0.68706076035E+02  0.00000000000E+00 0.  1.
          1    1    1    2  501    0  0.56191252377E+00 -0.49762679373E+02 -0.11953044524E+03  0.12947651271E+03  0.00000000000E+00 0. -1.
<scales pt_clust_5="13000.00000" pt_clust_6="13000.00000" pt_clust_7="13000.00000" pt_clust_8="13000.00000" pt_clust_9="47.23943" pt_clust_10="13000.00000"></scales>
<clustering>
<clus scale="   47.239">  1  9  2 -1</clus>
<clus scale="   82.912">  5  6 -1 -1</clus>
<clus scale="   92.853">  7  8 -1 -1</clus>
<clus scale="   52.611">  7 10 -1 -1</clus>
<clus scale="  124.115">  2  5  1 -1</clus>
<clus scale="   47.239">  1  5  2 -1</clus>
</clustering>
</event>
<event>
10    4  0.2565852E-005  0.6001556E+03  0.7546771E-02  0.1004298E+00
          2   -1    0    0  502    0 -0.00000000000E+00  0.00000000000E+00  0.13349446948E+04  0.13349446948E+04  0.00000000000E+00 0. -1.
         21   -1    0    0  503  502  0.00000000000E+00 -0.00000000000E+00 -0.37987449246E+03  0.37987449246E+03  0.00000000000E+00 0.  1.
         24    2    1    2    0    0 -0.22048977941E+03 -0.34408745337E+03  0.43859317183E+03  0.60454541303E+03  0.78097808250E+02 0.  0.
         23    2    1    2    0    0 -0.13258135316E+03  0.20563051496E+03  0.28398194443E+03  0.38512066355E+03  0.88376789059E+02 0.  0.
        -13    1    3    3    0    0 -0.15265802633E+03 -0.25984238332E+03  0.27225379355E+03  0.40613380218E+03  0.00000000000E+00 0.  1.
         14    1    3    3    0    0 -0.67831753079E+02 -0.84245070045E+02  0.16633937828E+03  0.19841161085E+03  0.00000000000E+00 0. -1.
        -11    1    4    4    0    0 -0.10180063193E+03  0.19266296679E+03  0.20420429952E+03  0.29863319201E+03  0.00000000000E+00 0.  1.
         11    1    4    4    0    0 -0.30780721235E+02  0.12967548176E+02  0.79777644914E+02  0.86487471541E+02  0.00000000000E+00 0. -1.
         21    1    1    2  503  501  0.50789711954E+02  0.44852368368E+02 -0.18745532356E+03  0.19932593438E+03  0.00000000000E+00 0.  1.
          1    1    1    2  501    0  0.30228142061E+03  0.93604570037E+02  0.41995040964E+03  0.52582717630E+03  0.00000000000E+00 0. -1.
<scales pt_clust_5="13000.00000" pt_clust_6="13000.00000" pt_clust_7="13000.00000" pt_clust_8="13000.00000" pt_clust_9="67.75935" pt_clust_10="13000.00000"></scales>
<clustering>
<clus scale="   67.759">  2  9  1 -1</clus>
<clus scale="   78.098">  5  6 -1 -1</clus>
<clus scale="   88.377">  7  8 -1 -1</clus>
<clus scale="  334.075">  7 10 -1 -1</clus>
<clus scale="  387.712">  1  5  2 -1</clus>
<clus scale="   67.759">  2  5  1 -1</clus>
</clustering>
</event>
<event>
10    4  0.2565852E-005  0.3492939E+03  0.7546771E-02  0.1110799E+00
          2   -1    0    0  503    0 -0.00000000000E+00  0.00000000000E+00  0.35876362951E+03  0.35876362951E+03  0.00000000000E+00 0. -1.
         21   -1    0    0  501  502  0.00000000000E+00 -0.00000000000E+00 -0.19949708182E+03  0.19949708182E+03  0.00000000000E+00 0. -1.
         24    2    1    2    0    0  0.88069873540E+01  0.67779932281E+02 -0.13675215952E+02  0.10728990086E+03  0.81562424246E+02 0.  0.
         23    2    1    2    0    0 -0.95730114570E+01 -0.63188823669E+02  0.28195560695E+03  0.30345396414E+03  0.92200184787E+02 0.  0.
        -13    1    3    3    0    0 -0.32506608448E+02  0.51685288420E+02 -0.58704422022E+00  0.61060570361E+02  0.00000000000E+00 0.  1.
         14    1    3    3    0    0  0.41313595802E+02  0.16094643861E+02 -0.13088171731E+02  0.46229330499E+02  0.00000000000E+00 0. -1.
        -11    1    4    4    0    0  0.27325527755E+02  0.10815856113E+02  0.68337921884E+02  0.74389103893E+02  0.00000000000E+00 0. -1.
         11    1    4    4    0    0 -0.36898539212E+02 -0.74004679782E+02  0.21361768507E+03  0.22906486025E+03  0.00000000000E+00 0.  1.
         21    1    1    2  503  502  0.17124832140E+02 -0.43375724057E+02 -0.23535798205E+02  0.52236453846E+02  0.00000000000E+00 0. -1.
          1    1    1    2  501    0 -0.16358808037E+02  0.38784615445E+02 -0.85478045107E+02  0.95280392479E+02  0.00000000000E+00 0. -1.
<scales pt_clust_5="13000.00000" pt_clust_6="13000.00000" pt_clust_7="13000.00000" pt_clust_8="13000.00000" pt_clust_9="46.63382" pt_clust_10="13000.00000"></scales>
<clustering>
<clus scale="   46.634">  2  9  1 -1</clus>
<clus scale="   81.562">  5  6 -1 -1</clus>
<clus scale="   92.200">  7  8 -1 -1</clus>
<clus scale="   16.032">  7 10 -1 -1</clus>
<clus scale="   97.678">  1  5  2 -1</clus>
<clus scale="   46.634">  2  5  1 -1</clus>
</clustering>
</event>
<event>
10    4  0.2565852E-005  0.1465998E+03  0.7546771E-02  0.1228691E+00
         21   -1    0    0  501  502  0.00000000000E+00  0.00000000000E+00  0.17662536194E+03  0.17662536194E+03  0.00000000000E+00 0.  1.
          2   -1    0    0  503    0 -0.00000000000E+00 -0.00000000000E+00 -0.18009385828E+03  0.18009385828E+03  0.00000000000E+00 0. -1.
         24    2    1    2    0    0 -0.12203077816E+01  0.32920527483E+02 -0.10872864903E+03  0.13934341070E+03  0.80680956272E+02 0.  0.
         23    2    1    2    0    0 -0.16968530791E+02 -0.23359751480E+02  0.91811510545E+02  0.13264924071E+03  0.91284492470E+02 0.  0.
        -11    1    3    3    0    0  0.18481236422E+02  0.31748293429E+02 -0.11328117607E+03  0.11908876978E+03  0.00000000000E+00 0.  1.
         12    1    3    3    0    0 -0.19701544204E+02  0.11722340546E+01  0.45525270350E+01  0.20254640927E+02  0.00000000000E+00 0. -1.
        -13    1    4    4    0    0  0.18233397587E+02  0.11129677978E+02 -0.67924292822E+01  0.22415700190E+02  0.00000000000E+00 0. -1.
         13    1    4    4    0    0 -0.35201928377E+02 -0.34489429457E+02  0.98603939827E+02  0.11023354052E+03  0.00000000000E+00 0.  1.
         21    1    1    2  503  502  0.17245834789E+02  0.28516835780E+02  0.28421878548E+02  0.43799907770E+02  0.00000000000E+00 0.  1.
          1    1    1    2  501    0  0.94300378317E+00 -0.38077611784E+02 -0.14973236395E+02  0.40926661034E+02  0.00000000000E+00 0. -1.
<scales pt_clust_5="13000.00000" pt_clust_6="13000.00000" pt_clust_7="13000.00000" pt_clust_8="13000.00000" pt_clust_9="33.32610" pt_clust_10="13000.00000"></scales>
<clustering>
<clus scale="   33.326">  1  9  2 -1</clus>
<clus scale="   80.681">  5  6 -1 -1</clus>
<clus scale="   88.362">  2  5  1 -1</clus>
<clus scale="   91.284">  7  8 -1 -1</clus>
<clus scale="   18.340">  7 10 -1 -1</clus>
<clus scale="   33.326">  1  5  2 -1</clus>
</clustering>
</event>
<event>
10    4  0.2565852E-005  0.4553502E+03  0.7546771E-02  0.1078010E+00
          2   -1    0    0  503    0 -0.00000000000E+00  0.00000000000E+00  0.62761789906E+03  0.62761789906E+03  0.00000000000E+00 0. -1.
         21   -1    0    0  501  502  0.00000000000E+00 -0.00000000000E+00 -0.28987771666E+03  0.28987771666E+03  0.00000000000E+00 0. -1.
         24    2    1    2    0    0 -0.25780883574E+02 -0.61340819075E+02  0.76817743614E+02  0.13048874731E+03  0.81847403129E+02 0.  0.
         23    2    1    2    0    0 -0.10777313194E+03  0.55298808082E+02 -0.39753856752E+02  0.15478304216E+03  0.87774796334E+02 0.  0.
        -11    1    3    3    0    0 -0.51756153569E+02 -0.60260004277E+02  0.56153293235E+02  0.97278774092E+02  0.00000000000E+00 0.  1.
         12    1    3    3    0    0  0.25975269995E+02 -0.10808147980E+01  0.20664450379E+02  0.33209973222E+02  0.00000000000E+00 0. -1.
        -11    1    4    4    0    0 -0.54256466929E+02  0.18007942258E+02  0.25430319028E+02  0.62567973548E+02  0.00000000000E+00 0.  1.
         11    1    4    4    0    0 -0.53516665007E+02  0.37290865824E+02 -0.65184175780E+02  0.92215068614E+02  0.00000000000E+00 0. -1.
         21    1    1    2  503  502  0.56240756339E+02 -0.75470912599E+01 -0.15747991532E+03  0.16739147228E+03  0.00000000000E+00 0. -1.
          1    1    1    2  501    0  0.77313259172E+02  0.13589102253E+02  0.45815621087E+03  0.46483235397E+03  0.00000000000E+00 0. -1.
<scales pt_clust_5="13000.00000" pt_clust_6="13000.00000" pt_clust_7="13000.00000" pt_clust_8="13000.00000" pt_clust_9="56.74488" pt_clust_10="13000.00000"></scales>
<clustering>
<clus scale="   56.745">  2  9  1 -1</clus>
<clus scale="   81.847">  5  6 -1 -1</clus>
<clus scale="   87.775">  7  8 -1 -1</clus>
<clus scale="   79.916">  7 10 -1 -1</clus>
<clus scale="  104.180">  1  5  2 -1</clus>
<clus scale="   56.745">  2  5  1 -1</clus>
</clustering>
</event>
<event>
10    4  0.2565852E-005  0.4198784E+03  0.7546771E-02  0.1088915E+00
         21   -1    0    0  501  502  0.00000000000E+00  0.00000000000E+00  0.40476401466E+02  0.40476401466E+02  0.00000000000E+00 0.  1.
          2   -1    0    0  503    0 -0.00000000000E+00 -0.00000000000E+00 -0.20966720306E+04  0.20966720306E+04  0.00000000000E+00 0. -1.
         24    2    1    2    0    0 -0.23038076778E+02 -0.51580929995E+02 -0.64746738988E+03  0.65488952205E+03  0.80466886393E+02 0.  0.
         23    2    1    2    0    0 -0.23830501346E+02  0.18610545936E+03 -0.34718909871E+03  0.40394088737E+03  0.86167484755E+02 0.  0.
        -11    1    3    3    0    0  0.24998955662E+02 -0.35714032232E+02 -0.20795860611E+03  0.21247875597E+03  0.00000000000E+00 0.  1.
         12    1    3    3    0    0 -0.48037032439E+02 -0.15866897763E+02 -0.43950878377E+03  0.44241076608E+03  0.00000000000E+00 0. -1.
        -13    1    4    4    0    0 -0.20475661604E+02  0.10972984598E+03 -0.11842246610E+03  0.16273835533E+03  0.00000000000E+00 0.  1.
         13    1    4    4    0    0 -0.33548397412E+01  0.76375613375E+02 -0.22876663261E+03  0.24120253204E+03  0.00000000000E+00 0. -1.
         21    1    1    2  503  502 -0.33991600388E+02 -0.22583216487E+01 -0.16593254254E+03  0.16939344021E+03  0.00000000000E+00 0. -1.
          1    1    1    2  501    0  0.80860178511E+02 -0.13226620771E+03 -0.89560659803E+03  0.90892458247E+03  0.00000000000E+00 0. -1.
<scales pt_clust_5="13000.00000" pt_clust_6="13000.00000" pt_clust_7="13000.00000" pt_clust_8="13000.00000" pt_clust_9="34.06655" pt_clust_10="13000.00000"></scales>
<clustering>
<clus scale="   34.067">  1  9  2 -1</clus>
<clus scale="   80.467">  5  6 -1 -1</clus>
<clus scale="   86.167">  7  8 -1 -1</clus>
<clus scale="   99.243">  2  5  1 -1</clus>
<clus scale="  175.914">  7 10 -1 -1</clus>
<clus scale="   34.067">  1  5  2 -1</clus>
</clustering>
</event>
<event>
10    4  0.2565852E-005  0.4672322E+03  0.7546771E-02  0.1073879E+00
          2   -1    0    0  502    0 -0.00000000000E+00  0.00000000000E+00  0.15495115461E+04  0.15495115461E+04  0.00000000000E+00 0. -1.
         21   -1    0    0  503  502  0.00000000000E+00 -0.00000000000E+00 -0.71606876179E+02  0.71606876179E+02  0.00000000000E+00 0. -1.
         24    2    1    2    0    0 -0.19513067520E+02  0.81801076314E+02  0.10193309369E+03  0.15467242410E+03  0.80380515651E+02 0.  0.
         23    2    1    2    0    0  0.98547357360E+02  0.71462665402E+02  0.13028839685E+03  0.20090073937E+03  0.92561042225E+02 0.  0.
        -13    1    3    3    0    0 -0.26185463223E+02  0.53851296998E+01  0.63453700190E+02  0.68855284284E+02  0.00000000000E+00 0.  1.
         14    1    3    3    0    0  0.66723957036E+01  0.76415946614E+02  0.38479393502E+02  0.85817139813E+02  0.00000000000E+00 0. -1.
        -11    1    4    4    0    0 -0.57969688835E+01  0.36766601559E+02  0.59307332597E+02  0.70019622522E+02  0.00000000000E+00 0.  1.
         11    1    4    4    0    0  0.10434432624E+03  0.34696063843E+02  0.70981064249E+02  0.13088111685E+03  0.00000000000E+00 0. -1.
         21    1    1    2  503  501  0.32674828692E+02 -0.26258006717E+02  0.11750278298E+03  0.12475588705E+03  0.00000000000E+00 0.  1.
          1    1    1    2  501    0 -0.11170911853E+03 -0.12700573500E+03  0.11281803965E+04  0.11407893718E+04  0.00000000000E+00 0. -1.
<scales pt_clust_5="13000.00000" pt_clust_6="13000.00000" pt_clust_7="13000.00000" pt_clust_8="13000.00000" pt_clust_9="41.91812" pt_clust_10="13000.00000"></scales>
<clustering>
<clus scale="   41.918">  2  9  1 -1</clus>
<clus scale="   80.381">  5  6 -1 -1</clus>
<clus scale="   92.561">  7  8 -1 -1</clus>
<clus scale="  107.873">  1  5  2 -1</clus>
<clus scale="  134.346">  7 10 -1 -1</clus>
<clus scale="   41.918">  2  5  1 -1</clus>
</clustering>
</event>
<event>
10    4  0.2565852E-005  0.3756740E+03  0.7546771E-02  0.1071231E+00
          2   -1    0    0  502    0 -0.00000000000E+00  0.00000000000E+00  0.11556649117E+04  0.11556649117E+04  0.00000000000E+00 0. -1.
         21   -1    0    0  503  502  0.00000000000E+00 -0.00000000000E+00 -0.12915400976E+03  0.12915400976E+03  0.00000000000E+00 0. -1.
         24    2    1    2    0    0  0.20472577842E+03  0.31033147426E+02  0.76650229421E+03  0.79795534249E+03  0.79569221414E+02 0.  0.
         23    2    1    2    0    0 -0.20472884244E+03  0.11385793434E+03  0.15609304052E+03  0.29568752386E+03  0.90490586983E+02 0.  0.
        -13    1    3    3    0    0  0.31716519274E+02  0.32423338998E+02  0.22349449349E+03  0.22805043110E+03  0.00000000000E+00 0.  1.
         14    1    3    3    0    0  0.17300925915E+03 -0.13901915715E+01  0.54300780072E+03  0.56990491139E+03  0.00000000000E+00 0. -1.
        -11    1    4    4    0    0 -0.10654655097E+02  0.32062244219E+02  0.41507688616E+00  0.33788777256E+02  0.00000000000E+00 0.  1.
         11    1    4    4    0    0 -0.19407418734E+03  0.81795690119E+02  0.15567796364E+03  0.26189874661E+03  0.00000000000E+00 0. -1.
         21    1    1    2  503  501  0.12611390461E+02 -0.17233363653E+02 -0.60709862258E+01  0.22201190642E+02  0.00000000000E+00 0. -1.
          1    1    1    2  501    0 -0.12608326448E+02 -0.12765771811E+03  0.10998655348E+03  0.16897486451E+03  0.00000000000E+00 0. -1.
<scales pt_clust_5="13000.00000" pt_clust_6="13000.00000" pt_clust_7="13000.00000" pt_clust_8="13000.00000" pt_clust_9="21.35500" pt_clust_10="13000.00000"></scales>
<clustering>
<clus scale="   21.355">  2  9  1 -1</clus>
<clus scale="   79.569">  5  6 -1 -1</clus>
<clus scale="   90.491">  7  8 -1 -1</clus>
<clus scale="  132.409">  7 10 -1 -1</clus>
<clus scale="  223.104">  1  5  2 -1</clus>
<clus scale="   21.355">  2  5  1 -1</clus>
</clustering>
</event>
<event>
10    4  0.2565852E-005  0.1906446E+03  0.7546771E-02  0.1183299E+00
         21   -1    0    0  501  502  0.00000000000E+00  0.00000000000E+00  0.54701873500E+02  0.54701873500E+02  0.00000000000E+00 0. -1.
          2   -1    0    0  503    0 -0.00000000000E+00 -0.00000000000E+00 -0.58578280714E+03  0.58578280714E+03  0.00000000000E+00 0. -1.
         24    2    1    2    0    0 -0.46674698866E+02  0.61082650506E+02 -0.30865444357E+03  0.32770694122E+03  0.78833090028E+02 0.  0.
         23    2    1    2    0    0  0.63367794386E+02 -0.42137695152E+02 -0.73799074932E+02  0.13705611513E+03  0.86873543250E+02 0.  0.
        -11    1    3    3    0    0 -0.26659814862E+02 -0.73121437086E+01 -0.16552939264E+03  0.16782190859E+03  0.00000000000E+00 0.  1.
         12    1    3    3    0    0 -0.20014884004E+02  0.68394794215E+02 -0.14312505093E+03  0.15988503264E+03  0.00000000000E+00 0. -1.
        -13    1    4    4    0    0  0.27959932440E+02 -0.49897367591E+02 -0.27126975056E+01  0.57261364307E+02  0.00000000000E+00 0. -1.
         13    1    4    4    0    0  0.35407861947E+02  0.77596724389E+01 -0.71086377426E+02  0.79794750827E+02  0.00000000000E+00 0.  1.
         21    1    1    2  503  502  0.14264400373E+02 -0.17586392275E+02  0.12459871393E+01  0.22678333166E+02  0.00000000000E+00 0. -1.
          1    1    1    2  501    0 -0.30957495893E+02 -0.13585630790E+01 -0.14987340227E+03  0.15304329111E+03  0.00000000000E+00 0. -1.
<scales pt_clust_5="13000.00000" pt_clust_6="13000.00000" pt_clust_7="13000.00000" pt_clust_8="13000.00000" pt_clust_9="22.64408" pt_clust_10="13000.00000"></scales>
<clustering>
<clus scale="   22.644">  1  9  2 -1</clus>
<clus scale="   78.833">  5  6 -1 -1</clus>
<clus scale="   86.874">  7  8 -1 -1</clus>
<clus scale="   30.495">  7 10 -1 -1</clus>
<clus scale="  106.649">  2  5  1 -1</clus>
<clus scale="   22.644">  1  5  2 -1</clus>
</clustering>
</event>
<event>
10    4  0.2565852E-005  0.2637516E+03  0.7546771E-02  0.1134143E+00
          4   -1    0    0  502    0 -0.00000000000E+00  0.00000000000E+00  0.86145395700E+02  0.86145395700E+02  0.00000000000E+00 0. -1.
         21   -1    0    0  503  502  0.00000000000E+00 -0.00000000000E+00 -0.20012447405E+04  0.20012447405E+04  0.00000000000E+00 0. -1.
         24    2    1    2    0    0 -0.56886576498E+01 -0.97745238318E+02 -0.78841110738E+02  0.14936982548E+03  0.80677949794E+02 0.  0.
         23    2    1    2    0    0 -0.49879489239E+01  0.80044461645E+02 -0.24547867947E+03  0.27374610954E+03  0.90802835527E+02 0.  0.
        -13    1    3    3    0    0  0.32941260925E+02 -0.74848745923E+02 -0.54720001488E+02  0.98395833247E+02  0.00000000000E+00 0.  1.
         14    1    3    3    0    0 -0.38629918575E+02 -0.22896492396E+02 -0.24121109249E+02  0.50973992236E+02  0.00000000000E+00 0. -1.
        -11    1    4    4    0    0  0.28968193648E+02  0.29049585908E+02 -0.33116987732E+02  0.52723519999E+02  0.00000000000E+00 0.  1.
         11    1    4    4    0    0 -0.33956142572E+02  0.50994875737E+02 -0.21236169173E+03  0.22102258954E+03  0.00000000000E+00 0. -1.
         21    1    1    2  503  501  0.13312756397E+03 -0.12902236819E+03 -0.13193784581E+04  0.13323397598E+04  0.00000000000E+00 0. -1.
          3    1    1    2  501    0 -0.12245095740E+03  0.14672314487E+03 -0.27140109647E+03  0.33193444138E+03  0.00000000000E+00 0. -1.
<scales pt_clust_5="13000.00000" pt_clust_6="13000.00000" pt_clust_7="13000.00000" pt_clust_8="13000.00000" pt_clust_9="193.76506" pt_clust_10="13000.00000"></scales>
<clustering>
<clus scale="   80.678">  5  6 -1 -1</clus>
<clus scale="   90.803">  7  8 -1 -1</clus>
<clus scale="  126.868">  1  5  2 -1</clus>
<clus scale="  153.885">  7 10 -1 -1</clus>
<clus scale="  193.765">  2  9  1 -1</clus>
<clus scale="  193.765">  2  5  1 -1</clus>
</clustering>
</event>
<event>
10    4  0.2565852E-005  0.2211679E+03  0.7546771E-02  0.1148659E+00
         21   -1    0    0  501  502  0.00000000000E+00  0.00000000000E+00  0.55254355557E+03  0.55254355557E+03  0.00000000000E+00 0. -1.
         -3   -1    0    0    0  501 -0.00000000000E+00 -0.00000000000E+00 -0.14542698914E+03  0.14542698914E+03  0.00000000000E+00 0.  1.
         24    2    1    2    0    0  0.11340888158E+03  0.29379843466E+02  0.30565743707E+03  0.33810341479E+03  0.84632739752E+02 0.  0.
         23    2    1    2    0    0 -0.32041413179E+02 -0.79953880085E+02 -0.47228793423E+02  0.13434837334E+03  0.91649612070E+02 0.  0.
        -13    1    3    3    0    0  0.53720389667E+02 -0.17206645449E+02  0.66268853365E+02  0.87025914760E+02  0.00000000000E+00 0.  1.
         14    1    3    3    0    0  0.59688491911E+02  0.46586488916E+02  0.23938858370E+03  0.25107750003E+03  0.00000000000E+00 0. -1.
        -13    1    4    4    0    0 -0.79203053815E+01  0.20356666198E+02 -0.14062643653E+02  0.25978511169E+02  0.00000000000E+00 0. -1.
         13    1    4    4    0    0 -0.24121107797E+02 -0.10031054628E+03 -0.33166149771E+02  0.10836986217E+03  0.00000000000E+00 0.  1.
         21    1    1    2  503  502  0.39398401498E+01  0.24214177310E+02  0.13252996091E+03  0.13478144999E+03  0.00000000000E+00 0. -1.
         -4    1    1    2    0  503 -0.85307308548E+02  0.26359859308E+02  0.16157961880E+02  0.90737306587E+02  0.00000000000E+00 0.  1.
<scales pt_clust_5="13000.00000" pt_clust_6="13000.00000" pt_clust_7="13000.00000" pt_clust_8="13000.00000" pt_clust_9="24.53261" pt_clust_10="13000.00000"></scales>
<clustering>
<clus scale="   24.533">  1  9  2 -1</clus>
<clus scale="   84.633">  5  6 -1 -1</clus>
<clus scale="   91.650">  7  8 -1 -1</clus>
<clus scale="   89.772">  7 10 -1 -1</clus>
<clus scale="  151.733">  2  5  1 -1</clus>
<clus scale="   24.533">  1  5  2 -1</clus>
</clustering>
</event>
<event>
10    4  0.2565852E-005  0.4262267E+03  0.7546771E-02  0.1069279E+00
         21   -1    0    0  503  502  0.00000000000E+00  0.00000000000E+00  0.86432928189E+02  0.86432928189E+02  0.00000000000E+00 0.  1.
          2   -1    0    0  502    0 -0.00000000000E+00 -0.00000000000E+00 -0.15636194756E+04  0.15636194756E+04  0.00000000000E+00 0. -1.
         24    2    1    2    0    0 -0.84670619550E+02  0.11387711979E+03 -0.76312855881E+03  0.78027930401E+03  0.79583181418E+02 0.  0.
         23    2    1    2    0    0 -0.92146413976E+02  0.35823193101E+02 -0.50824461247E+03  0.52561096876E+03  0.90443582435E+02 0.  0.
        -11    1    3    3    0    0 -0.74501849676E+02  0.79870436847E+02 -0.37644809974E+03  0.39197319307E+03  0.00000000000E+00 0.  1.
         12    1    3    3    0    0 -0.10168769874E+02  0.34006682947E+02 -0.38668045907E+03  0.38830611094E+03  0.00000000000E+00 0. -1.
        -13    1    4    4    0    0 -0.10027111644E+02  0.24901437474E+02 -0.30052753205E+02  0.40296309154E+02  0.00000000000E+00 0.  1.
         13    1    4    4    0    0 -0.82119302332E+02  0.10921755627E+02 -0.47819185927E+03  0.48531465961E+03  0.00000000000E+00 0. -1.
         21    1    1    2  503  501 -0.14076558086E+02 -0.27783311948E+02  0.85557685322E+01  0.32299583365E+02  0.00000000000E+00 0. -1.
          1    1    1    2  501    0  0.19089359161E+03 -0.12191700095E+03 -0.21436914462E+03  0.31186254761E+03  0.00000000000E+00 0. -1.
<scales pt_clust_5="13000.00000" pt_clust_6="13000.00000" pt_clust_7="13000.00000" pt_clust_8="13000.00000" pt_clust_9="31.14582" pt_clust_10="13000.00000"></scales>
<clustering>
<clus scale="   31.146">  1  9  2 -1</clus>
<clus scale="   79.583">  5  6 -1 -1</clus>
<clus scale="   90.444">  7  8 -1 -1</clus>
<clus scale="  161.166">  2  5  1 -1</clus>
<clus scale="  183.037">  7 10 -1 -1</clus>
<clus scale="   31.146">  1  5  2 -1</clus>
</clustering>
</event>
<event>
10    4  0.2565852E-005  0.1356782E+03  0.7546771E-02  0.1233133E+00
         21   -1    0    0  501  502  0.00000000000E+00  0.00000000000E+00  0.34061229572E+03  0.34061229572E+03  0.00000000000E+00 0. -1.
          2   -1    0    0  503    0 -0.00000000000E+00 -0.00000000000E+00 -0.10289675184E+03  0.10289675184E+03  0.00000000000E+00 0. -1.
         24    2    1    2    0    0  0.14840423397E+02 -0.50094510685E+02 -0.17258688839E+02  0.97224725147E+02  0.80156638353E+02 0.  0.
         23    2    1    2    0    0 -0.28642015632E+02  0.93734696505E+02  0.11486718354E+03  0.17534091638E+03  0.89125802729E+02 0.  0.
        -11    1    3    3    0    0  0.33788568141E+02 -0.47082273209E+02 -0.37742755400E+02  0.69158682555E+02  0.00000000000E+00 0.  1.
         12    1    3    3    0    0 -0.18948144744E+02 -0.30122374759E+01  0.20484066561E+02  0.28066042591E+02  0.00000000000E+00 0. -1.
        -13    1    4    4    0    0 -0.54331007385E+02  0.56561160130E+02  0.40364062735E+02  0.88205899797E+02  0.00000000000E+00 0. -1.
         13    1    4    4    0    0  0.25688991753E+02  0.37173536376E+02  0.74503120808E+02  0.87135016578E+02  0.00000000000E+00 0.  1.
         21    1    1    2  503  502 -0.72194872270E+01 -0.55224112019E+02  0.13550587460E+03  0.14650483130E+03  0.00000000000E+00 0. -1.
          1    1    1    2  501    0  0.21021079461E+02  0.11583926199E+02  0.46011745779E+01  0.24438574742E+02  0.00000000000E+00 0. -1.
<scales pt_clust_5="13000.00000" pt_clust_6="13000.00000" pt_clust_7="13000.00000" pt_clust_8="13000.00000" pt_clust_9="55.69402" pt_clust_10="13000.00000"></scales>
<clustering>
<clus scale="   55.694">  1  9  2 -1</clus>
<clus scale="   80.157">  5  6 -1 -1</clus>
<clus scale="   89.126">  7  8 -1 -1</clus>
<clus scale="   21.848">  7 10 -1 -1</clus>
<clus scale="  101.708">  2  5  1 -1</clus>
<clus scale="   55.694">  1  5  2 -1</clus>
</clustering>
</event>
<event>
10    4  0.2565852E-005  0.7318019E+03  0.7546771E-02  0.9958301E-01
         21   -1    0    0  503  502  0.00000000000E+00  0.00000000000E+00  0.35399735336E+03  0.35399735336E+03  0.00000000000E+00 0.  1.
         -1   -1    0    0    0  501 -0.00000000000E+00 -0.00000000000E+00 -0.93964363476E+03  0.93964363476E+03  0.00000000000E+00 0.  1.
         24    2    1    2    0    0  0.23116095655E+03  0.11102190621E+03 -0.13008445180E+03  0.29881377080E+03  0.81280093074E+02 0.  0.
         23    2    1    2    0    0  0.61713933604E+02  0.19473294790E+03 -0.38317616615E+03  0.44408746173E+03  0.93060027736E+02 0.  0.
        -11    1    3    3    0    0  0.17010620785E+03  0.11698584307E+03 -0.88015772517E+02  0.22442946696E+03  0.00000000000E+00 0.  1.
         12    1    3    3    0    0  0.61054748701E+02 -0.59639368612E+01 -0.42068679280E+02  0.74384303843E+02  0.00000000000E+00 0. -1.
        -13    1    4    4    0    0  0.53862351131E+02  0.96308862085E+02 -0.28151619774E+03  0.30237050017E+03  0.00000000000E+00 0.  1.
         13    1    4    4    0    0  0.78515824722E+01  0.98424085817E+02 -0.10165996842E+03  0.14171696156E+03  0.00000000000E+00 0. -1.
         21    1    1    2  503  501  0.74865359489E+02 -0.85177150485E+02  0.10834759163E+02  0.11391822076E+03  0.00000000000E+00 0.  1.
         -2    1    1    2    0  502 -0.36774024964E+03 -0.22057770363E+03 -0.83220422614E+02  0.43682153482E+03  0.00000000000E+00 0.  1.
<scales pt_clust_5="13000.00000" pt_clust_6="13000.00000" pt_clust_7="13000.00000" pt_clust_8="13000.00000" pt_clust_9="113.40180" pt_clust_10="13000.00000"></scales>
<clustering>
<clus scale="   81.280">  5  6 -1 -1</clus>
<clus scale="   93.060">  7  8 -1 -1</clus>
<clus scale="  113.402">  1  9  2 -1</clus>
<clus scale="  279.259">  2  5  1 -1</clus>
<clus scale="  324.175">  7 10 -1 -1</clus>
<clus scale="  113.402">  1  5  2 -1</clus>
</clustering>
</event>
<event>
10    4  0.2565852E-005  0.7282670E+03  0.7546771E-02  0.1027095E+00
          2   -1    0    0  502    0 -0.00000000000E+00  0.00000000000E+00  0.57077956556E+03  0.57077956556E+03  0.00000000000E+00 0. -1.
         21   -1    0    0  503  502  0.00000000000E+00 -0.00000000000E+00 -0.47384106994E+03  0.47384106994E+03  0.00000000000E+00 0. -1.
         24    2    1    2    0    0 -0.54532899260E+02  0.46002257008E+02  0.63399471675E+01  0.10835358887E+03  0.81303508771E+02 0.  0.
         23    2    1    2    0    0 -0.14685760415E+03 -0.20089615297E+03  0.25485466815E+03  0.36791838100E+03  0.92122814885E+02 0.  0.
        -11    1    3    3    0    0  0.14776443449E+02  0.29394683952E+02  0.15729362509E+02  0.36466471869E+02  0.00000000000E+00 0.  1.
         12    1    3    3    0    0 -0.69309342709E+02  0.16607573056E+02 -0.93894153420E+01  0.71887116997E+02  0.00000000000E+00 0. -1.
        -13    1    4    4    0    0 -0.68566430373E+02 -0.16105367539E+03  0.14527598690E+03  0.22747473288E+03  0.00000000000E+00 0. -1.
         13    1    4    4    0    0 -0.78291173782E+02 -0.39842477587E+02  0.10957868125E+03  0.14044364812E+03  0.00000000000E+00 0.  1.
         21    1    1    2  503  501 -0.11188719028E+03 -0.77324559414E+02 -0.10940854610E+03  0.17455102634E+03  0.00000000000E+00 0. -1.
          1    1    1    2  501    0  0.31327769369E+03  0.23221845538E+03 -0.54847573604E+02  0.39379763929E+03  0.00000000000E+00 0. -1.
<scales pt_clust_5="13000.00000" pt_clust_6="13000.00000" pt_clust_7="13000.00000" pt_clust_8="13000.00000" pt_clust_9="137.26304" pt_clust_10="13000.00000"></scales>
<clustering>
<clus scale="   81.304">  5  6 -1 -1</clus>
<clus scale="   92.123">  7  8 -1 -1</clus>
<clus scale="  108.168">  1  5  2 -1</clus>
<clus scale="  137.263">  2  9  1 -1</clus>
<clus scale="  289.219">  7 10 -1 -1</clus>
<clus scale="  137.263">  2  5  1 -1</clus>
</clustering>
</event>
<event>
10    4  0.2565852E-005  0.5467417E+03  0.7546771E-02  0.1047454E+00
         21   -1    0    0  501  502  0.00000000000E+00  0.00000000000E+00  0.26123416066E+03  0.26123416066E+03  0.00000000000E+00 0. -1.
          2   -1    0    0  503    0 -0.00000000000E+00 -0.00000000000E+00 -0.14525266737E+04  0.14525266737E+04  0.00000000000E+00 0. -1.
         24    2    1    2    0    0  0.80237386003E+02 -0.10911341887E+03 -0.28508012736E+03  0.32498019151E+03  0.77444622583E+02 0.  0.
         23    2    1    2    0    0  0.17287252651E+03  0.26648126121E+03 -0.81742811007E+03  0.88193239125E+03  0.93374807120E+02 0.  0.
        -11    1    3    3    0    0 -0.15135348937E+02 -0.21285793864E+02 -0.41260411809E+02  0.48832216727E+02  0.00000000000E+00 0.  1.
         12    1    3    3    0    0  0.95372734940E+02 -0.87827625009E+02 -0.24381971555E+03  0.27614797478E+03  0.00000000000E+00 0. -1.
        -11    1    4    4    0    0  0.61687498998E+02  0.58728082816E+02 -0.32584323418E+03  0.33679095668E+03  0.00000000000E+00 0.  1.
         11    1    4    4    0    0  0.11118502752E+03  0.20775317839E+03 -0.49158487589E+03  0.54514143457E+03  0.00000000000E+00 0. -1.
         21    1    1    2  503  502 -0.14713600543E+03  0.43540242152E+01  0.14285142690E+03  0.20512067616E+03  0.00000000000E+00 0. -1.
          1    1    1    2  501    0 -0.10597390709E+03 -0.16172186655E+03 -0.23163570247E+03  0.30172757541E+03  0.00000000000E+00 0. -1.
<scales pt_clust_5="13000.00000" pt_clust_6="13000.00000" pt_clust_7="13000.00000" pt_clust_8="13000.00000" pt_clust_9="147.20041" pt_clust_10="13000.00000"></scales>
<clustering>
<clus scale="   77.445">  5  6 -1 -1</clus>
<clus scale="   93.375">  7  8 -1 -1</clus>
<clus scale="  147.200">  1  9  2 -1</clus>
<clus scale="  140.919">  2  5  1 -1</clus>
<clus scale="  247.866">  7 10 -1 -1</clus>
<clus scale="  147.200">  1  5  2 -1</clus>
</clustering>
</event>
<event>
10    4  0.2565852E-005  0.3654895E+03  0.7546771E-02  0.1092484E+00
         21   -1    0    0  503  502  0.00000000000E+00  0.00000000000E+00  0.29954719658E+03  0.29954719658E+03  0.00000000000E+00 0. -1.
         -3   -1    0    0    0  501 -0.00000000000E+00 -0.00000000000E+00 -0.28022482058E+03  0.28022482058E+03  0.00000000000E+00 0.  1.
         24    2    1    2    0    0  0.70284686874E+02  0.77767769528E+02  0.49232694394E+02  0.14136562024E+03  0.81071679404E+02 0.  0.
         23    2    1    2    0    0  0.22934261422E+02  0.51192692594E+02  0.87083428621E+02  0.13848780857E+03  0.91916687599E+02 0.  0.
        -13    1    3    3    0    0  0.46208243046E+01  0.61700539974E+02  0.85346982096E+01  0.62459184463E+02  0.00000000000E+00 0.  1.
         14    1    3    3    0    0  0.65663862570E+02  0.16067229555E+02  0.40697996184E+02  0.78906435774E+02  0.00000000000E+00 0. -1.
        -11    1    4    4    0    0  0.47727493533E+02  0.28631985911E+02  0.12973325921E+02  0.57149028353E+02  0.00000000000E+00 0.  1.
         11    1    4    4    0    0 -0.24793232112E+02  0.22560706683E+02  0.74110102699E+02  0.81338780214E+02  0.00000000000E+00 0. -1.
         21    1    1    2  503  501 -0.29286085600E+02  0.40448816173E+02  0.37054637379E+02  0.62183821778E+02  0.00000000000E+00 0. -1.
         -4    1    1    2    0  502 -0.63932862696E+02 -0.16940927830E+03 -0.15404838439E+03  0.23773476658E+03  0.00000000000E+00 0.  1.
<scales pt_clust_5="13000.00000" pt_clust_6="13000.00000" pt_clust_7="13000.00000" pt_clust_8="13000.00000" pt_clust_9="49.93778" pt_clust_10="13000.00000"></scales>
<clustering>
<clus scale="   49.938">  1  9  2 -1</clus>
<clus scale="   81.072">  5  6 -1 -1</clus>
<clus scale="   91.917">  7  8 -1 -1</clus>
<clus scale="  136.938">  2  5  1 -1</clus>
<clus scale="   87.246">  7 10 -1 -1</clus>
<clus scale="   49.938">  1  5  2 -1</clus>
</clustering>
</event>
<event>
10    4  0.2565852E-005  0.9107414E+03  0.7546771E-02  0.9797377E-01
         21   -1    0    0  503  502  0.00000000000E+00  0.00000000000E+00  0.13750612311E+03  0.13750612311E+03  0.00000000000E+00 0. -1.
          2   -1    0    0  502    0 -0.00000000000E+00 -0.00000000000E+00 -0.31722380112E+04  0.31722380112E+04  0.00000000000E+00 0. -1.
         24    2    1    2    0    0 -0.13288202593E+03  0.17065493116E+03 -0.81306527701E+03  0.84513460680E+03  0.79978875808E+02 0.  0.
         23    2    1    2    0    0  0.18106734336E+03  0.29110429934E+03 -0.91558728430E+03  0.98593520580E+03  0.12744041329E+03 0.  0.
        -13    1    3    3    0    0 -0.10243668778E+02  0.53380820989E+02 -0.29566482750E+03  0.30061958523E+03  0.00000000000E+00 0.  1.
         14    1    3    3    0    0 -0.12263835715E+03  0.11727411017E+03 -0.51740044951E+03  0.54451502157E+03  0.00000000000E+00 0. -1.
        -11    1    4    4    0    0  0.13119917573E+03  0.14346373646E+03 -0.64522353018E+03  0.67387570908E+03  0.00000000000E+00 0. -1.
         11    1    4    4    0    0  0.49868167631E+02  0.14764056288E+03 -0.27036375412E+03  0.31205949672E+03  0.00000000000E+00 0.  1.
         21    1    1    2  503  501 -0.25764844251E+02  0.10630963321E+03 -0.11411934926E+03  0.15807843366E+03  0.00000000000E+00 0.  1.
          1    1    1    2  501    0 -0.22420473181E+02 -0.56806886371E+03 -0.11919599775E+04  0.13205958880E+04  0.00000000000E+00 0. -1.
<scales pt_clust_5="13000.00000" pt_clust_6="13000.00000" pt_clust_7="13000.00000" pt_clust_8="13000.00000" pt_clust_9="109.38723" pt_clust_10="13000.00000"></scales>
<clustering>
<clus scale="   79.979">  5  6 -1 -1</clus>
<clus scale="  109.387">  1  9  2 -1</clus>
<clus scale="  127.440">  7  8 -1 -1</clus>
<clus scale="  243.710">  2  5  1 -1</clus>
<clus scale="  431.197">  7 10 -1 -1</clus>
<clus scale="  109.387">  1  5  2 -1</clus>
</clustering>
</event>
<event>
10    4  0.2669529E-005  0.4777272E+03  0.7546771E-02  0.1075367E+00
          2   -1    0    0  502    0 -0.00000000000E+00  0.00000000000E+00  0.14426620811E+04  0.14426620811E+04  0.00000000000E+00 0. -1.
         21   -1    0    0  503  502  0.00000000000E+00 -0.00000000000E+00 -0.55340747414E+03  0.55340747414E+03  0.00000000000E+00 0.  1.
         24    2    1    2    0    0 -0.26952632552E+02 -0.46154568036E+02 -0.18452916352E+03  0.20843101988E+03  0.80844228639E+02 0.  0.
         23    2    1    2    0    0 -0.33068935905E+02  0.29670520797E+02  0.12450972267E+03  0.16206968190E+03  0.93755087459E+02 0.  0.
        -11    1    3    3    0    0 -0.31885418915E+02 -0.63803961613E+02 -0.17207886152E+03  0.18627603184E+03  0.00000000000E+00 0.  1.
         12    1    3    3    0    0  0.49327863626E+01  0.17649393577E+02 -0.12450302008E+02  0.22154988039E+02  0.00000000000E+00 0. -1.
        -13    1    4    4    0    0 -0.61575875984E+02  0.37527670654E+02  0.10195879150E+03  0.12488198321E+03  0.00000000000E+00 0.  1.
         13    1    4    4    0    0  0.28506940080E+02 -0.78571498563E+01  0.22550931176E+02  0.37187698685E+02  0.00000000000E+00 0. -1.
         21    1    1    2  503  501 -0.26484682424E+03  0.12572474486E+03 -0.24563544159E+03  0.38247525665E+03  0.00000000000E+00 0. -1.
          1    1    1    2  501    0  0.32486839270E+03 -0.10924069762E+03  0.11949094894E+04  0.12430935968E+04  0.00000000000E+00 0. -1.
<scales pt_clust_5="13000.00000" pt_clust_6="13000.00000" pt_clust_7="13000.00000" pt_clust_8="13000.00000" pt_clust_9="293.40215" pt_clust_10="13000.00000"></scales>
<clustering>
<clus scale="   80.844">  5  6 -1 -1</clus>
<clus scale="   93.755">  7  8 -1 -1</clus>
<clus scale="   96.915">  1  5  2 -1</clus>
<clus scale="  293.402">  2  9  1 -1</clus>
<clus scale="  104.888">  7 10 -1 -1</clus>
<clus scale="  293.402">  2  5  1 -1</clus>
</clustering>
</event>
<event>
10    4  0.2565852E-005  0.2360107E+03  0.7546771E-02  0.1155166E+00
          2   -1    0    0  503    0 -0.00000000000E+00  0.00000000000E+00  0.50691659372E+03  0.50691659372E+03  0.00000000000E+00 0. -1.
         21   -1    0    0  501  502  0.00000000000E+00 -0.00000000000E+00 -0.88827018620E+02  0.88827018620E+02  0.00000000000E+00 0. -1.
         24    2    1    2    0    0 -0.50596981154E+02 -0.37400177993E+02  0.11545043828E+03  0.15503867987E+03  0.82154493131E+02 0.  0.
         23    2    1    2    0    0  0.14364955044E+03  0.18065259955E+02  0.25441144427E+03  0.30658873704E+03  0.91158783135E+02 0.  0.
        -13    1    3    3    0    0 -0.58917517289E+02  0.60575189740E+01  0.66851943421E+02  0.89314890801E+02  0.00000000000E+00 0.  1.
         14    1    3    3    0    0  0.83205361351E+01 -0.43457696967E+02  0.48598494855E+02  0.65723789068E+02  0.00000000000E+00 0. -1.
        -13    1    4    4    0    0  0.12166691755E+03  0.50216768003E+02  0.18588015875E+03  0.22776302605E+03  0.00000000000E+00 0. -1.
         13    1    4    4    0    0  0.21982632888E+02 -0.32151508048E+02  0.68531285515E+02  0.78825710989E+02  0.00000000000E+00 0.  1.
         21    1    1    2  503  502 -0.26429375367E+02  0.88092616468E+01 -0.22922043201E+02  0.36076793616E+02  0.00000000000E+00 0. -1.
          1    1    1    2  501    0 -0.66623193921E+02  0.10525656392E+02  0.71149735754E+02  0.98039401817E+02  0.00000000000E+00 0. -1.
<scales pt_clust_5="13000.00000" pt_clust_6="13000.00000" pt_clust_7="13000.00000" pt_clust_8="13000.00000" pt_clust_9="27.85884" pt_clust_10="13000.00000"></scales>
<clustering>
<clus scale="   27.859">  2  9  1 -1</clus>
<clus scale="   82.154">  5  6 -1 -1</clus>
<clus scale="   91.159">  7  8 -1 -1</clus>
<clus scale="   73.684">  7 10 -1 -1</clus>
<clus scale="  107.084">  1  5  2 -1</clus>
<clus scale="   27.859">  2  5  1 -1</clus>
</clustering>
</event>
<event>
10    4  0.2565852E-005  0.4626097E+03  0.7546771E-02  0.1082832E+00
          2   -1    0    0  503    0 -0.00000000000E+00  0.00000000000E+00  0.12492171061E+04  0.12492171061E+04  0.00000000000E+00 0. -1.
         21   -1    0    0  501  502  0.00000000000E+00 -0.00000000000E+00 -0.27050087578E+03  0.27050087578E+03  0.00000000000E+00 0. -1.
         24    2    1    2    0    0  0.33034774349E+02 -0.81913885599E+01  0.52676992701E+03  0.53394801945E+03  0.80346352167E+02 0.  0.
         23    2    1    2    0    0  0.11802799620E+03 -0.12977344269E+03  0.13858920654E+03  0.24242483494E+03  0.93760749311E+02 0.  0.
        -13    1    3    3    0    0 -0.20601499672E+02 -0.23512301933E+02  0.17156537964E+03  0.17439016492E+03  0.00000000000E+00 0.  1.
         14    1    3    3    0    0  0.53636274021E+02  0.15320913373E+02  0.35520454737E+03  0.35955785453E+03  0.00000000000E+00 0. -1.
        -11    1    4    4    0    0  0.91875846332E+02 -0.76232123772E+02  0.13848154773E+03  0.18283776114E+03  0.00000000000E+00 0.  1.
         11    1    4    4    0    0  0.26152149866E+02 -0.53541318916E+02  0.10765880559E+00  0.59587073802E+02  0.00000000000E+00 0. -1.
         21    1    1    2  503  502 -0.39548052344E+03  0.16415345795E+03  0.19440656732E+03  0.47026068897E+03  0.00000000000E+00 0. -1.
          1    1    1    2  501    0  0.24441775289E+03 -0.26188626706E+02  0.11895052942E+03  0.27308443849E+03  0.00000000000E+00 0. -1.
<scales pt_clust_5="13000.00000" pt_clust_6="13000.00000" pt_clust_7="13000.00000" pt_clust_8="13000.00000" pt_clust_9="412.64484" pt_clust_10="13000.00000"></scales>
<clustering>
<clus scale="   80.346">  5  6 -1 -1</clus>
<clus scale="   87.258">  1  5  2 -1</clus>
<clus scale="   93.761">  7  8 -1 -1</clus>
<clus scale="  255.015">  7 10 -1 -1</clus>
<clus scale="  412.645">  2  9  1 -1</clus>
<clus scale="  412.645">  2  5  1 -1</clus>
</clustering>
</event>
<event>
10    4  0.2565852E-005  0.2156224E+03  0.7546771E-02  0.1167321E+00
         21   -1    0    0  503  502  0.00000000000E+00  0.00000000000E+00  0.12996378963E+03  0.12996378963E+03  0.00000000000E+00 0.  1.
         -3   -1    0    0    0  501 -0.00000000000E+00 -0.00000000000E+00 -0.37047540941E+03  0.37047540941E+03  0.00000000000E+00 0.  1.
         24    2    1    2    0    0 -0.21501027354E+02  0.92325409423E+02 -0.62949460571E+02  0.13868566752E+03  0.79276758181E+02 0.  0.
         23    2    1    2    0    0  0.44050676304E+02 -0.23083573370E+02 -0.21179729317E+03  0.23582204939E+03  0.90997978801E+02 0.  0.
        -13    1    3    3    0    0  0.12399409280E+02  0.87046337265E+02 -0.35799364968E+02  0.94933685876E+02  0.00000000000E+00 0.  1.
         14    1    3    3    0    0 -0.33900436634E+02  0.52790721578E+01 -0.27150095603E+02  0.43751981647E+02  0.00000000000E+00 0. -1.
        -13    1    4    4    0    0  0.48301899934E+02 -0.51469395403E+02 -0.17798424172E+03  0.19146948190E+03  0.00000000000E+00 0.  1.
         13    1    4    4    0    0 -0.42512236301E+01  0.28385822033E+02 -0.33813051449E+02  0.44352567492E+02  0.00000000000E+00 0. -1.
         21    1    1    2  503  501  0.33157066010E+02 -0.47998605330E+02  0.31384061286E+02  0.66243614355E+02  0.00000000000E+00 0.  1.
         -4    1    1    2    0  502 -0.55706714960E+02 -0.21243230722E+02  0.28510726648E+01  0.59687867766E+02  0.00000000000E+00 0.  1.
<scales pt_clust_5="13000.00000" pt_clust_6="13000.00000" pt_clust_7="13000.00000" pt_clust_8="13000.00000" pt_clust_9="58.33744" pt_clust_10="13000.00000"></scales>
<clustering>
<clus scale="   58.337">  1  9  2 -1</clus>
<clus scale="   79.277">  5  6 -1 -1</clus>
<clus scale="   90.998">  7  8 -1 -1</clus>
<clus scale="   58.499">  7 10 -1 -1</clus>
<clus scale="  105.882">  2  5  1 -1</clus>
<clus scale="   58.337">  1  5  2 -1</clus>
</clustering>
</event>
<event>
10    4  0.2565852E-005  0.3379100E+03  0.7546771E-02  0.1093112E+00
         21   -1    0    0  503  502  0.00000000000E+00  0.00000000000E+00  0.27221866668E+03  0.27221866668E+03  0.00000000000E+00 0. -1.
          2   -1    0    0  502    0 -0.00000000000E+00 -0.00000000000E+00 -0.36064157964E+03  0.36064157964E+03  0.00000000000E+00 0. -1.
         24    2    1    2    0    0  0.53025226416E+02  0.14724213248E+03  0.86940097952E+02  0.19664876077E+03  0.81364822057E+02 0.  0.
         23    2    1    2    0    0  0.89969973564E+02 -0.10889694069E+03 -0.48382583436E+02  0.17061121959E+03  0.82548010488E+02 0.  0.
        -13    1    3    3    0    0  0.21542491922E+02  0.93038747046E+02  0.79803765118E+01  0.95833051811E+02  0.00000000000E+00 0.  1.
         14    1    3    3    0    0  0.31482734494E+02  0.54203385431E+02  0.78959721440E+02  0.10081570896E+03  0.00000000000E+00 0. -1.
        -13    1    4    4    0    0  0.58667054026E+02 -0.98437677675E+02 -0.31749740358E+01  0.11463803939E+03  0.00000000000E+00 0. -1.
         13    1    4    4    0    0  0.31302919539E+02 -0.10459263012E+02 -0.45207609400E+02  0.55973180204E+02  0.00000000000E+00 0.  1.
         21    1    1    2  503  501  0.13508382625E+02 -0.17479379507E+02  0.33722146944E+02  0.40313624292E+02  0.00000000000E+00 0. -1.
          1    1    1    2  501    0 -0.15650358261E+03 -0.20865812283E+02 -0.16070257442E+03  0.22528664167E+03  0.00000000000E+00 0. -1.
<scales pt_clust_5="13000.00000" pt_clust_6="13000.00000" pt_clust_7="13000.00000" pt_clust_8="13000.00000" pt_clust_9="22.09084" pt_clust_10="13000.00000"></scales>
<clustering>
<clus scale="   22.091">  1  9  2 -1</clus>
<clus scale="   81.365">  5  6 -1 -1</clus>
<clus scale="   82.548">  7  8 -1 -1</clus>
<clus scale="  156.389">  7 10 -1 -1</clus>
<clus scale="  170.441">  2  5  1 -1</clus>
<clus scale="   22.091">  1  5  2 -1</clus>
</clustering>
</event>
<event>
10    4  0.2565852E-005  0.2375391E+03  0.7546771E-02  0.1159043E+00
         -3   -1    0    0    0  501 -0.00000000000E+00  0.00000000000E+00  0.36071681241E+03  0.36071681241E+03  0.00000000000E+00 0.  1.
         21   -1    0    0  503  502  0.00000000000E+00 -0.00000000000E+00 -0.20621585606E+03  0.20621585606E+03  0.00000000000E+00 0. -1.
         24    2    1    2    0    0  0.39788135658E+01 -0.59818449856E+02  0.28498174871E+02  0.10463609634E+03  0.80885652536E+02 0.  0.
         23    2    1    2    0    0 -0.15898044795E+02 -0.74966096476E+02  0.13322335629E+03  0.17724577488E+03  0.88288949491E+02 0.  0.
        -11    1    3    3    0    0 -0.78962376495E+01 -0.63104889821E+02 -0.98516319786E+01  0.64355515233E+02  0.00000000000E+00 0.  1.
         12    1    3    3    0    0  0.11875051215E+02  0.32864399651E+01  0.38349806850E+02  0.40280581109E+02  0.00000000000E+00 0. -1.
        -11    1    4    4    0    0 -0.28605473582E+02 -0.36874095680E+02  0.12862254711E+03  0.13682737912E+03  0.00000000000E+00 0.  1.
         11    1    4    4    0    0  0.12707428788E+02 -0.38092000796E+02  0.46008091826E+01  0.40418395764E+02  0.00000000000E+00 0. -1.
         21    1    1    2  503  501 -0.93411514356E+01  0.18520198266E+02 -0.11994318598E+03  0.12172355037E+03  0.00000000000E+00 0. -1.
         -4    1    1    2    0  502  0.21260382664E+02  0.11626434807E+03  0.11272261116E+03  0.16332724687E+03  0.00000000000E+00 0.  1.
<scales pt_clust_5="13000.00000" pt_clust_6="13000.00000" pt_clust_7="13000.00000" pt_clust_8="13000.00000" pt_clust_9="20.74259" pt_clust_10="13000.00000"></scales>
<clustering>
<clus scale="   20.743">  2  9  1 -1</clus>
<clus scale="   80.886">  5  6 -1 -1</clus>
<clus scale="   88.289">  7  8 -1 -1</clus>
<clus scale="   95.922">  1  5  2 -1</clus>
<clus scale="   97.617">  7 10 -1 -1</clus>
<clus scale="   20.743">  2  5  1 -1</clus>
</clustering>
</event>
<event>
10    4  0.2565852E-005  0.6110649E+03  0.7546771E-02  0.1046200E+00
         21   -1    0    0  501  502  0.00000000000E+00  0.00000000000E+00  0.15440577549E+03  0.15440577549E+03  0.00000000000E+00 0. -1.
          2   -1    0    0  503    0 -0.00000000000E+00 -0.00000000000E+00 -0.12218691526E+04  0.12218691526E+04  0.00000000000E+00 0. -1.
         24    2    1    2    0    0  0.27043273457E+02  0.38376861077E+02 -0.16759998127E+03  0.19855547658E+03  0.95553134184E+02 0.  0.
         23    2    1    2    0    0 -0.83934124539E+02  0.93325931392E+02  0.14902529866E+02  0.15612966787E+03  0.91649992143E+02 0.  0.
        -13    1    3    3    0    0  0.33666365426E+02  0.63197738917E+02 -0.15319328825E+03  0.16910222332E+03  0.00000000000E+00 0.  1.
         14    1    3    3    0    0 -0.66230919694E+01 -0.24820877840E+02 -0.14406693017E+02  0.29453253261E+02  0.00000000000E+00 0. -1.
        -11    1    4    4    0    0 -0.54544432170E+02 -0.30693024711E+01  0.60902686207E+01  0.54969146531E+02  0.00000000000E+00 0.  1.
         11    1    4    4    0    0 -0.29389692369E+02  0.96395233863E+02  0.88122612451E+01  0.10116052134E+03  0.00000000000E+00 0. -1.
         21    1    1    2  503  502 -0.16074569781E+02 -0.24467870032E+02  0.44679679136E+02  0.53416684521E+02  0.00000000000E+00 0. -1.
          1    1    1    2  501    0  0.72965420864E+02 -0.10723492244E+03 -0.95944560488E+03  0.96817309917E+03  0.00000000000E+00 0. -1.
<scales pt_clust_5="13000.00000" pt_clust_6="13000.00000" pt_clust_7="13000.00000" pt_clust_8="13000.00000" pt_clust_9="29.27573" pt_clust_10="13000.00000"></scales>
<clustering>
<clus scale="   29.276">  1  9  2 -1</clus>
<clus scale="   91.650">  7  8 -1 -1</clus>
<clus scale="   95.553">  5  6 -1 -1</clus>
<clus scale="  104.639">  2  5  1 -1</clus>
<clus scale="  121.796">  7 10 -1 -1</clus>
<clus scale="   29.276">  1  5  2 -1</clus>
</clustering>
</event>
<event>
10    4  0.2565852E-005  0.2239706E+03  0.7546771E-02  0.1143839E+00
         21   -1    0    0  503  502  0.00000000000E+00  0.00000000000E+00  0.13430243613E+03  0.13430243613E+03  0.00000000000E+00 0. -1.
          2   -1    0    0  502    0 -0.00000000000E+00 -0.00000000000E+00 -0.36824701119E+03  0.36824701119E+03  0.00000000000E+00 0. -1.
         24    2    1    2    0    0  0.96263856747E+02  0.10371390512E+03 -0.18739126201E+03  0.24848485116E+03  0.81276884440E+02 0.  0.
         23    2    1    2    0    0 -0.11486480373E+03 -0.85467243544E+02 -0.88689073379E+01  0.16936780814E+03  0.90045677638E+02 0.  0.
        -11    1    3    3    0    0 -0.34040805212E+01  0.25929735396E+02 -0.51042931428E+01  0.26645689153E+02  0.00000000000E+00 0.  1.
         12    1    3    3    0    0  0.99667937268E+02  0.77784169728E+02 -0.18228696887E+03  0.22183916200E+03  0.00000000000E+00 0. -1.
        -13    1    4    4    0    0 -0.62662111502E+02 -0.67549368644E+02 -0.45865655588E+02  0.10292286327E+03  0.00000000000E+00 0.  1.
         13    1    4    4    0    0 -0.52202692232E+02 -0.17917874900E+02  0.36996748251E+02  0.66444944867E+02  0.00000000000E+00 0. -1.
         21    1    1    2  503  501 -0.14628824603E+02  0.17544398059E+02  0.26901142515E+00  0.22844710103E+02  0.00000000000E+00 0.  1.
          1    1    1    2  501    0  0.33229771591E+02 -0.35791059640E+02 -0.37953417138E+02  0.61852077916E+02  0.00000000000E+00 0. -1.
<scales pt_clust_5="13000.00000" pt_clust_6="13000.00000" pt_clust_7="13000.00000" pt_clust_8="13000.00000" pt_clust_9="22.84313" pt_clust_10="13000.00000"></scales>
<clustering>
<clus scale="   22.843">  1  9  2 -1</clus>
<clus scale="   81.277">  5  6 -1 -1</clus>
<clus scale="   90.046">  7  8 -1 -1</clus>
<clus scale="   46.618">  7 10 -1 -1</clus>
<clus scale="  163.909">  2  5  1 -1</clus>
<clus scale="   22.843">  1  5  2 -1</clus>
</clustering>
</event>
<event>
10    4  0.2565852E-005  0.3003713E+03  0.7546771E-02  0.1119632E+00
         -3   -1    0    0    0  501 -0.00000000000E+00  0.00000000000E+00  0.66129199238E+03  0.66129199238E+03  0.00000000000E+00 0.  1.
         21   -1    0    0  503  502  0.00000000000E+00 -0.00000000000E+00 -0.95509247819E+02  0.95509247819E+02  0.00000000000E+00 0. -1.
         24    2    1    2    0    0 -0.73518526155E+02 -0.11045347611E+02  0.11729125087E+03  0.16180545945E+03  0.83046949283E+02 0.  0.
         23    2    1    2    0    0 -0.37868961552E+02  0.49962525194E+02  0.23443988332E+03  0.25840704485E+03  0.88779669759E+02 0.  0.
        -13    1    3    3    0    0 -0.33171480543E+02 -0.40698382594E+02  0.91470069700E+02  0.10546790563E+03  0.00000000000E+00 0.  1.
         14    1    3    3    0    0 -0.40347045613E+02  0.29653034983E+02  0.25821181170E+02  0.56337553819E+02  0.00000000000E+00 0. -1.
        -11    1    4    4    0    0  0.12590848320E+02  0.51913849406E+02  0.15806544179E+03  0.16684801800E+03  0.00000000000E+00 0.  1.
         11    1    4    4    0    0 -0.50459809872E+02 -0.19513242118E+01  0.76374441534E+02  0.91559026852E+02  0.00000000000E+00 0. -1.
         21    1    1    2  503  501 -0.60520794077E+02  0.37960212315E+02  0.59419405368E+02  0.92921525865E+02  0.00000000000E+00 0. -1.
         -4    1    1    2    0  502  0.17190828178E+03 -0.76877389898E+02  0.15463220500E+03  0.24366721004E+03  0.00000000000E+00 0.  1.
<scales pt_clust_5="13000.00000" pt_clust_6="13000.00000" pt_clust_7="13000.00000" pt_clust_8="13000.00000" pt_clust_9="71.44049" pt_clust_10="13000.00000"></scales>
<clustering>
<clus scale="   71.440">  2  9  1 -1</clus>
<clus scale="   83.047">  5  6 -1 -1</clus>
<clus scale="   88.780">  7  8 -1 -1</clus>
<clus scale="  122.919">  1  5  2 -1</clus>
<clus scale="  119.506">  7 10 -1 -1</clus>
<clus scale="   71.440">  2  5  1 -1</clus>
</clustering>
</event>
<event>
10    4  0.2565852E-005  0.1438232E+03  0.7546771E-02  0.1219999E+00
         21   -1    0    0  503  502  0.00000000000E+00  0.00000000000E+00  0.72456764491E+02  0.72456764491E+02  0.00000000000E+00 0.  1.
         -1   -1    0    0    0  501 -0.00000000000E+00 -0.00000000000E+00 -0.44388407795E+03  0.44388407795E+03  0.00000000000E+00 0.  1.
         24    2    1    2    0    0  0.12271789990E+02 -0.60524487496E+02 -0.17208056690E+03  0.19936858460E+03  0.79512895854E+02 0.  0.
         23    2    1    2    0    0  0.54985988945E+00  0.72365506473E+02 -0.14341046284E+03  0.18551236883E+03  0.92796601579E+02 0.  0.
        -11    1    3    3    0    0  0.40578286090E+02 -0.21684980107E+02 -0.11991743478E+03  0.12844075221E+03  0.00000000000E+00 0.  1.
         12    1    3    3    0    0 -0.28306496101E+02 -0.38839507389E+02 -0.52163132118E+02  0.70927832394E+02  0.00000000000E+00 0. -1.
        -13    1    4    4    0    0  0.90069127841E+01  0.18241790093E+02  0.99606130785E+01  0.22651737165E+02  0.00000000000E+00 0.  1.
         13    1    4    4    0    0 -0.84570528947E+01  0.54123716379E+02 -0.15337107592E+03  0.16286063167E+03  0.00000000000E+00 0. -1.
         21    1    1    2  503  501 -0.91018687344E+01 -0.64328603566E+02 -0.20919564738E+02  0.68254241187E+02  0.00000000000E+00 0.  1.
         -2    1    1    2    0  502 -0.37197811447E+01  0.52487584590E+02 -0.35016718985E+02  0.63205647819E+02  0.00000000000E+00 0.  1.
<scales pt_clust_5="13000.00000" pt_clust_6="13000.00000" pt_clust_7="13000.00000" pt_clust_8="13000.00000" pt_clust_9="64.96933" pt_clust_10="13000.00000"></scales>
<clustering>
<clus scale="   64.969">  1  9  2 -1</clus>
<clus scale="   79.513">  5  6 -1 -1</clus>
<clus scale="   92.797">  7  8 -1 -1</clus>
<clus scale="   34.493">  7 10 -1 -1</clus>
<clus scale="  112.167">  2  5  1 -1</clus>
<clus scale="   64.969">  1  5  2 -1</clus>
</clustering>
</event>
<event>
10    4  0.2565852E-005  0.3990775E+03  0.7546771E-02  0.1099467E+00
          2   -1    0    0  502    0 -0.00000000000E+00  0.00000000000E+00  0.46366814500E+03  0.46366814500E+03  0.00000000000E+00 0. -1.
         21   -1    0    0  503  502  0.00000000000E+00 -0.00000000000E+00 -0.21962274721E+03  0.21962274721E+03  0.00000000000E+00 0. -1.
         24    2    1    2    0    0  0.25879335446E+02  0.34942633496E+00 -0.54461796192E+02  0.10093749807E+03  0.80947076357E+02 0.  0.
         23    2    1    2    0    0  0.28493549231E+02 -0.11500204138E+03  0.31638474729E+03  0.35215148708E+03  0.99368051535E+02 0.  0.
        -13    1    3    3    0    0  0.15007693353E+02  0.37814451808E+02 -0.45257940917E+02  0.60855935136E+02  0.00000000000E+00 0.  1.
         14    1    3    3    0    0  0.10871642093E+02 -0.37465025473E+02 -0.92038552755E+01  0.40081562936E+02  0.00000000000E+00 0. -1.
        -13    1    4    4    0    0  0.15233367343E+02 -0.36475639599E+02  0.23493769396E+03  0.23823989550E+03  0.00000000000E+00 0. -1.
         13    1    4    4    0    0  0.13260181888E+02 -0.78526401782E+02  0.81447053335E+02  0.11391159159E+03  0.00000000000E+00 0.  1.
         21    1    1    2  503  501  0.17629512947E+01 -0.45778732911E+02 -0.37366867764E+02  0.59119228604E+02  0.00000000000E+00 0. -1.
          1    1    1    2  501    0 -0.56135835972E+02  0.16043134796E+03  0.19489314455E+02  0.17108267845E+03  0.00000000000E+00 0. -1.
<scales pt_clust_5="13000.00000" pt_clust_6="13000.00000" pt_clust_7="13000.00000" pt_clust_8="13000.00000" pt_clust_9="45.81267" pt_clust_10="13000.00000"></scales>
<clustering>
<clus scale="   45.813">  2  9  1 -1</clus>
<clus scale="   80.947">  5  6 -1 -1</clus>
<clus scale="   87.639">  1  5  2 -1</clus>
<clus scale="   99.368">  7  8 -1 -1</clus>
<clus scale="  145.386">  7 10 -1 -1</clus>
<clus scale="   45.813">  2  5  1 -1</clus>
</clustering>
</event>
<event>
10    4  0.2565852E-005  0.3826616E+03  0.7546771E-02  0.1098849E+00
         21   -1    0    0  501  502  0.00000000000E+00  0.00000000000E+00  0.42503990270E+03  0.42503990270E+03  0.00000000000E+00 0. -1.
          2   -1    0    0  503    0 -0.00000000000E+00 -0.00000000000E+00 -0.92751210549E+03  0.92751210549E+03  0.00000000000E+00 0. -1.
         24    2    1    2    0    0  0.38130357335E+02  0.74879717128E+02  0.87182634789E+02  0.14552618626E+03  0.80722753236E+02 0.  0.
         23    2    1    2    0    0  0.12846783414E+03  0.63626857113E+02 -0.60859690285E+03  0.63213580278E+03  0.93022156733E+02 0.  0.
        -11    1    3    3    0    0  0.50173343753E+02  0.68862301890E+02  0.35814622937E+02  0.92423310161E+02  0.00000000000E+00 0.  1.
         12    1    3    3    0    0 -0.12042986419E+02  0.60174152381E+01  0.51368011852E+02  0.53102876096E+02  0.00000000000E+00 0. -1.
        -11    1    4    4    0    0  0.10386164521E+03  0.71722816546E+02 -0.57989732659E+03  0.59347477886E+03  0.00000000000E+00 0. -1.
         11    1    4    4    0    0  0.24606188935E+02 -0.80959594329E+01 -0.28699576263E+02  0.38661023922E+02  0.00000000000E+00 0.  1.
         21    1    1    2  503  502 -0.31705136233E+02 -0.21494907527E+02  0.26672714721E+03  0.26946357411E+03  0.00000000000E+00 0. -1.
          1    1    1    2  501    0 -0.13489305524E+03 -0.11701166671E+03 -0.24778508194E+03  0.30542644505E+03  0.00000000000E+00 0. -1.
<scales pt_clust_5="13000.00000" pt_clust_6="13000.00000" pt_clust_7="13000.00000" pt_clust_8="13000.00000" pt_clust_9="38.30466" pt_clust_10="13000.00000"></scales>
<clustering>
<clus scale="   38.305">  1  9  2 -1</clus>
<clus scale="   80.723">  5  6 -1 -1</clus>
<clus scale="   93.022">  7  8 -1 -1</clus>
<clus scale="  101.017">  2  5  1 -1</clus>
<clus scale="  169.548">  7 10 -1 -1</clus>
<clus scale="   38.305">  1  5  2 -1</clus>
</clustering>
</event>
<event>
10    4  0.2565852E-005  0.1516260E+03  0.7546771E-02  0.1228085E+00
         -1   -1    0    0    0  501 -0.00000000000E+00  0.00000000000E+00  0.24310642097E+03  0.24310642097E+03  0.00000000000E+00 0.  1.
         21   -1    0    0  503  502  0.00000000000E+00 -0.00000000000E+00 -0.11315982888E+03  0.11315982888E+03  0.00000000000E+00 0. -1.
         24    2    1    2    0    0  0.37698774724E+01  0.70582426051E+01 -0.14339305899E+01  0.78095326011E+02  0.77671056534E+02 0.  0.
         23    2    1    2    0    0 -0.38338267327E+02  0.18437411726E+02  0.70550877553E+02  0.12230564587E+03  0.90396259850E+02 0.  0.
        -13    1    3    3    0    0 -0.11137531845E+02 -0.30121545660E+02 -0.15474990332E+02  0.35648666936E+02  0.00000000000E+00 0.  1.
         14    1    3    3    0    0  0.14907409317E+02  0.37179788265E+02  0.14041059742E+02  0.42446659075E+02  0.00000000000E+00 0. -1.
        -11    1    4    4    0    0 -0.35575398067E+02 -0.31757115329E+02  0.22368429846E+02  0.52673237753E+02  0.00000000000E+00 0. -1.
         11    1    4    4    0    0 -0.27628692599E+01  0.50194527055E+02  0.48182447707E+02  0.69632408115E+02  0.00000000000E+00 0.  1.
         21    1    1    2  503  501  0.24416323638E+02  0.11727254610E+02 -0.39771545217E+02  0.48119239080E+02  0.00000000000E+00 0. -1.
         -2    1    1    2    0  502  0.10152066217E+02 -0.37222908942E+02  0.10060119034E+03  0.10774603889E+03  0.00000000000E+00 0.  1.
<scales pt_clust_5="13000.00000" pt_clust_6="13000.00000" pt_clust_7="13000.00000" pt_clust_8="13000.00000" pt_clust_9="27.08663" pt_clust_10="13000.00000"></scales>
<clustering>
<clus scale="   27.087">  2  9  1 -1</clus>
<clus scale="   77.671">  5  6 -1 -1</clus>
<clus scale="   80.869">  1  5  2 -1</clus>
<clus scale="   90.396">  7  8 -1 -1</clus>
<clus scale="   35.972">  7 10 -1 -1</clus>
<clus scale="   27.087">  2  5  1 -1</clus>
</clustering>
</event>
<event>
10    4  0.2565852E-005  0.5005349E+03  0.7546771E-02  0.1073028E+00
         21   -1    0    0  501  502  0.00000000000E+00  0.00000000000E+00  0.12344461434E+04  0.12344461434E+04  0.00000000000E+00 0. -1.
          2   -1    0    0  503    0 -0.00000000000E+00 -0.00000000000E+00 -0.47128519294E+03  0.47128519294E+03  0.00000000000E+00 0. -1.
         24    2    1    2    0    0 -0.41736158484E+02  0.45242234576E+01 -0.29746722210E+03  0.31072716802E+03  0.79386706689E+02 0.  0.
         23    2    1    2    0    0 -0.10142788645E+03  0.41149935361E+02  0.50110864313E+02  0.15090689899E+03  0.90999231366E+02 0.  0.
        -13    1    3    3    0    0 -0.68149016144E+01  0.31708943132E+02 -0.51874122363E+02  0.61178628045E+02  0.00000000000E+00 0.  1.
         14    1    3    3    0    0 -0.34921256870E+02 -0.27184719674E+02 -0.24559309973E+03  0.24954853997E+03  0.00000000000E+00 0. -1.
        -11    1    4    4    0    0 -0.31076987278E+02  0.61295401190E+02  0.30212685516E+02  0.75071377444E+02  0.00000000000E+00 0.  1.
         11    1    4    4    0    0 -0.70350899175E+02 -0.20145465829E+02  0.19898178797E+02  0.75835521543E+02  0.00000000000E+00 0. -1.
         21    1    1    2  503  502  0.38887847969E+03 -0.12276493531E+02  0.29925307931E+03  0.49084579018E+03  0.00000000000E+00 0. -1.
          1    1    1    2  501    0 -0.24571443476E+03 -0.33397665288E+02  0.71126422893E+03  0.75325147915E+03  0.00000000000E+00 0. -1.
<scales pt_clust_5="13000.00000" pt_clust_6="13000.00000" pt_clust_7="13000.00000" pt_clust_8="13000.00000" pt_clust_9="365.09289" pt_clust_10="13000.00000"></scales>
<clustering>
<clus scale="   79.387">  5  6 -1 -1</clus>
<clus scale="   89.803">  2  5  1 -1</clus>
<clus scale="   90.999">  7  8 -1 -1</clus>
<clus scale="  253.094">  7 10 -1 -1</clus>
<clus scale="  365.093">  1  9  2 -1</clus>
<clus scale="  365.093">  1  5  2 -1</clus>
</clustering>
</event>
<event>
10    4  0.2565852E-005  0.8939913E+03  0.7546771E-02  0.9854715E-01
          2   -1    0    0  503    0 -0.00000000000E+00  0.00000000000E+00  0.68630839492E+03  0.68630839492E+03  0.00000000000E+00 0. -1.
         21   -1    0    0  501  502  0.00000000000E+00 -0.00000000000E+00 -0.51489924622E+03  0.51489924622E+03  0.00000000000E+00 0. -1.
         24    2    1    2    0    0 -0.17295873402E+03  0.64047675509E+02  0.15327092596E+03  0.26182594693E+03  0.10509053871E+03 0.  0.
         23    2    1    2    0    0 -0.31854856250E+03 -0.94258584239E+02  0.17303466754E+03  0.38561114097E+03  0.91635628964E+02 0.  0.
        -11    1    3    3    0    0 -0.84446289564E+02  0.84222182901E+02  0.10554971235E+03  0.15926485391E+03  0.00000000000E+00 0.  1.
         12    1    3    3    0    0 -0.88512444458E+02 -0.20174507392E+02  0.47721213606E+02  0.10256109302E+03  0.00000000000E+00 0. -1.
        -13    1    4    4    0    0 -0.23315957723E+03 -0.24684117309E+02  0.11729361413E+03  0.26216499770E+03  0.00000000000E+00 0. -1.
         13    1    4    4    0    0 -0.85388985276E+02 -0.69574466930E+02  0.55741053402E+02  0.12344614327E+03  0.00000000000E+00 0.  1.
         21    1    1    2  503  502 -0.67166818553E+01  0.21796372829E+02 -0.34130847628E+02  0.41050096753E+02  0.00000000000E+00 0.  1.
          1    1    1    2  501    0  0.49822397838E+03  0.84145359012E+01 -0.12076559716E+03  0.51272045649E+03  0.00000000000E+00 0. -1.
<scales pt_clust_5="13000.00000" pt_clust_6="13000.00000" pt_clust_7="13000.00000" pt_clust_8="13000.00000" pt_clust_9="22.80780" pt_clust_10="13000.00000"></scales>
<clustering>
<clus scale="   22.808">  2  9  1 -1</clus>
<clus scale="   91.636">  7  8 -1 -1</clus>
<clus scale="  105.091">  5  6 -1 -1</clus>
<clus scale="  213.657">  1  5  2 -1</clus>
<clus scale="  425.597">  7 10 -1 -1</clus>
<clus scale="   22.808">  2  5  1 -1</clus>
</clustering>
</event>
<event>
10    4  0.2565852E-005  0.4764030E+03  0.7546771E-02  0.1055325E+00
         21   -1    0    0  503  502  0.00000000000E+00  0.00000000000E+00  0.78631385101E+02  0.78631385101E+02  0.00000000000E+00 0. -1.
          2   -1    0    0  502    0 -0.00000000000E+00 -0.00000000000E+00 -0.17582508161E+04  0.17582508161E+04  0.00000000000E+00 0. -1.
         24    2    1    2    0    0 -0.37146387995E+02 -0.13742970304E+03 -0.20927857415E+03  0.26512472190E+03  0.78910196736E+02 0.  0.
         23    2    1    2    0    0  0.80333363309E+02  0.28996194170E+03 -0.12279989146E+04  0.12679184854E+04  0.95417893925E+02 0.  0.
        -11    1    3    3    0    0 -0.21681419122E+02  0.26281103152E+01 -0.26707670233E+02  0.34500587650E+02  0.00000000000E+00 0.  1.
         12    1    3    3    0    0 -0.15464968873E+02 -0.14005781336E+03 -0.18257090391E+03  0.23062413425E+03  0.00000000000E+00 0. -1.
        -11    1    4    4    0    0 -0.10970804030E+02  0.13623403532E+03 -0.51097744020E+03  0.52894046481E+03  0.00000000000E+00 0.  1.
         11    1    4    4    0    0  0.91304167338E+02  0.15372790639E+03 -0.71702147436E+03  0.73897802055E+03  0.00000000000E+00 0. -1.
         21    1    1    2  503  501 -0.12208371217E+02 -0.17494795927E+02  0.35262705439E+01  0.21622830440E+02  0.00000000000E+00 0.  1.
          1    1    1    2  501    0 -0.30978604097E+02 -0.13503744273E+03 -0.24586821285E+03  0.28221616350E+03  0.00000000000E+00 0. -1.
<scales pt_clust_5="13000.00000" pt_clust_6="13000.00000" pt_clust_7="13000.00000" pt_clust_8="13000.00000" pt_clust_9="21.33336" pt_clust_10="13000.00000"></scales>
<clustering>
<clus scale="   21.333">  1  9  2 -1</clus>
<clus scale="   78.910">  5  6 -1 -1</clus>
<clus scale="   95.418">  7  8 -1 -1</clus>
<clus scale="  144.005">  7 10 -1 -1</clus>
<clus scale="  170.267">  2  5  1 -1</clus>
<clus scale="   21.333">  1  5  2 -1</clus>
</clustering>
</event>
<event>
10    4  0.2565852E-005  0.1535727E+03  0.7546771E-02  0.1216980E+00
          2   -1    0    0  502    0 -0.00000000000E+00  0.00000000000E+00  0.99481519128E+03  0.99481519128E+03  0.00000000000E+00 0. -1.
         21   -1    0    0  503  502  0.00000000000E+00 -0.00000000000E+00 -0.42571601249E+02  0.42571601249E+02  0.00000000000E+00 0. -1.
         24    2    1    2    0    0 -0.65656335353E+02 -0.65614186647E+02  0.17625182341E+03  0.21522996859E+03  0.81506185411E+02 0.  0.
         23    2    1    2    0    0  0.20350276064E+02 -0.45499969723E+02  0.47601791160E+03  0.48738748703E+03  0.92027872782E+02 0.  0.
        -11    1    3    3    0    0 -0.46521389214E+02  0.21939429729E+01  0.10577968172E+03  0.11557851922E+03  0.00000000000E+00 0.  1.
         12    1    3    3    0    0 -0.19134946140E+02 -0.67808129620E+02  0.70472141692E+02  0.99651449367E+02  0.00000000000E+00 0. -1.
        -13    1    4    4    0    0  0.33052504965E+02  0.19384633247E+02  0.19033277673E+03  0.19415148207E+03  0.00000000000E+00 0.  1.
         13    1    4    4    0    0 -0.12702228901E+02 -0.64884602970E+02  0.28568513486E+03  0.29323600496E+03  0.00000000000E+00 0. -1.
         21    1    1    2  503  501  0.18061145050E+02  0.73197578413E+02  0.80130391370E+02  0.11002258890E+03  0.00000000000E+00 0. -1.
          1    1    1    2  501    0  0.27244914239E+02  0.37916577957E+02  0.21984346365E+03  0.22474674802E+03  0.00000000000E+00 0. -1.
<scales pt_clust_5="13000.00000" pt_clust_6="13000.00000" pt_clust_7="13000.00000" pt_clust_8="13000.00000" pt_clust_9="75.39291" pt_clust_10="13000.00000"></scales>
<clustering>
<clus scale="   75.393">  2  9  1 -1</clus>
<clus scale="   81.506">  5  6 -1 -1</clus>
<clus scale="   92.028">  7  8 -1 -1</clus>
<clus scale="   52.959">  7 10 -1 -1</clus>
<clus scale="   98.176">  1  5  2 -1</clus>
<clus scale="   75.393">  2  5  1 -1</clus>
</clustering>
</event>
<event>
10    4  0.2565852E-005  0.2549511E+03  0.7546771E-02  0.1156351E+00
         -1   -1    0    0    0  501 -0.00000000000E+00  0.00000000000E+00  0.30951555824E+03  0.30951555824E+03  0.00000000000E+00 0.  1.
         21   -1    0    0  503  502  0.00000000000E+00 -0.00000000000E+00 -0.15155982440E+03  0.15155982440E+03  0.00000000000E+00 0. -1.
         24    2    1    2    0    0  0.22706583138E+02 -0.50602295840E+01 -0.10640150688E+02  0.84380134274E+02  0.80408951070E+02 0.  0.
         23    2    1    2    0    0 -0.55166616057E+02 -0.38861262183E+02  0.22389356812E+03  0.24950186146E+03  0.87001699977E+02 0.  0.
        -11    1    3    3    0    0  0.46473776745E+02 -0.95457678774E+01 -0.27555128016E+02  0.54865459894E+02  0.00000000000E+00 0.  1.
         12    1    3    3    0    0 -0.23767193607E+02  0.44855382934E+01  0.16914977329E+02  0.29514674380E+02  0.00000000000E+00 0. -1.
        -11    1    4    4    0    0  0.21132402006E+02 -0.24686056819E+02  0.65196627304E+02  0.72846276690E+02  0.00000000000E+00 0. -1.
         11    1    4    4    0    0 -0.76299018063E+02 -0.14175205364E+02  0.15869694082E+03  0.17665558477E+03  0.00000000000E+00 0.  1.
         21    1    1    2  503  501 -0.18463907619E+02 -0.16104949849E+02 -0.40144979088E+02  0.47030890276E+02  0.00000000000E+00 0. -1.
         -2    1    1    2    0  502  0.50923940538E+02  0.60026441617E+02 -0.15152704505E+02  0.80162496636E+02  0.00000000000E+00 0.  1.
<scales pt_clust_5="13000.00000" pt_clust_6="13000.00000" pt_clust_7="13000.00000" pt_clust_8="13000.00000" pt_clust_9="24.50072" pt_clust_10="13000.00000"></scales>
<clustering>
<clus scale="   24.501">  2  9  1 -1</clus>
<clus scale="   80.409">  5  6 -1 -1</clus>
<clus scale="   82.618">  1  5  2 -1</clus>
<clus scale="   87.002">  7  8 -1 -1</clus>
<clus scale="   68.041">  7 10 -1 -1</clus>
<clus scale="   24.501">  2  5  1 -1</clus>
</clustering>
</event>
<event>
10    4  0.2565852E-005  0.2034718E+03  0.7546771E-02  0.1182932E+00
          2   -1    0    0  503    0 -0.00000000000E+00  0.00000000000E+00  0.56300786918E+02  0.56300786918E+02  0.00000000000E+00 0. -1.
         21   -1    0    0  501  502  0.00000000000E+00 -0.00000000000E+00 -0.71902443188E+03  0.71902443188E+03  0.00000000000E+00 0.  1.
         24    2    1    2    0    0 -0.32276484570E+02  0.15957969157E+02 -0.39510859881E+02  0.98283530254E+02  0.82474941860E+02 0.  0.
         23    2    1    2    0    0 -0.33068888806E+02  0.58599143562E+02 -0.24714919094E+03  0.27208745425E+03  0.91768453982E+02 0.  0.
        -13    1    3    3    0    0 -0.59122319320E+02  0.15994801098E+02 -0.17870417830E+02  0.63801521435E+02  0.00000000000E+00 0.  1.
         14    1    3    3    0    0  0.26845834750E+02 -0.36831941561E-01 -0.21640442051E+02  0.34482008819E+02  0.00000000000E+00 0. -1.
        -11    1    4    4    0    0 -0.16182408935E+02  0.74741644012E+02 -0.23191489079E+03  0.24419807591E+03  0.00000000000E+00 0.  1.
         11    1    4    4    0    0 -0.16886479872E+02 -0.16142500450E+02 -0.15234300151E+02  0.27889378342E+02  0.00000000000E+00 0. -1.
         21    1    1    2  503  502  0.33592767604E+02  0.43751691431E+01 -0.25350954893E+03  0.25576299095E+03  0.00000000000E+00 0.  1.
          1    1    1    2  501    0  0.31752605772E+02 -0.78932281862E+02 -0.12255404522E+03  0.14919124335E+03  0.00000000000E+00 0. -1.
<scales pt_clust_5="13000.00000" pt_clust_6="13000.00000" pt_clust_7="13000.00000" pt_clust_8="13000.00000" pt_clust_9="33.87648" pt_clust_10="13000.00000"></scales>
<clustering>
<clus scale="   33.876">  2  9  1 -1</clus>
<clus scale="   82.475">  5  6 -1 -1</clus>
<clus scale="   88.447">  1  5  2 -1</clus>
<clus scale="   91.768">  7  8 -1 -1</clus>
<clus scale="   73.997">  7 10 -1 -1</clus>
<clus scale="   33.876">  2  5  1 -1</clus>
</clustering>
</event>
<event>
10    4  0.2565852E-005  0.3990383E+03  0.7546771E-02  0.1048577E+00
          2   -1    0    0  502    0 -0.00000000000E+00  0.00000000000E+00  0.17598066984E+04  0.17598066984E+04  0.00000000000E+00 0. -1.
         21   -1    0    0  503  502  0.00000000000E+00 -0.00000000000E+00 -0.11836159153E+03  0.11836159153E+03  0.00000000000E+00 0. -1.
         24    2    1    2    0    0  0.29914411933E+03  0.14561643923E+03  0.53134049903E+03  0.63245978753E+03  0.83614026512E+02 0.  0.
         23    2    1    2    0    0 -0.19930815539E+03 -0.88067924972E+02  0.46096913224E+03  0.51787501119E+03  0.90676822402E+02 0.  0.
        -13    1    3    3    0    0  0.10089381021E+02  0.30100306501E+02  0.51208635431E+02  0.60250712888E+02  0.00000000000E+00 0.  1.
         14    1    3    3    0    0  0.28905473831E+03  0.11551613273E+03  0.48013186360E+03  0.57220907464E+03  0.00000000000E+00 0. -1.
        -11    1    4    4    0    0 -0.61014544976E+02 -0.61775858985E+02  0.24639393964E+03  0.26124510511E+03  0.00000000000E+00 0.  1.
         11    1    4    4    0    0 -0.13829361041E+03 -0.26292065987E+02  0.21457519261E+03  0.25662990608E+03  0.00000000000E+00 0. -1.
         21    1    1    2  503  501  0.25755405845E+01  0.25366104735E+02 -0.28073840299E+02  0.37923781297E+02  0.00000000000E+00 0. -1.
          1    1    1    2  501    0 -0.10241150452E+03 -0.82914618991E+02  0.67720931592E+03  0.68990970994E+03  0.00000000000E+00 0. -1.
<scales pt_clust_5="13000.00000" pt_clust_6="13000.00000" pt_clust_7="13000.00000" pt_clust_8="13000.00000" pt_clust_9="25.49652" pt_clust_10="13000.00000"></scales>
<clustering>
<clus scale="   25.497">  2  9  1 -1</clus>
<clus scale="   83.614">  5  6 -1 -1</clus>
<clus scale="   90.677">  7  8 -1 -1</clus>
<clus scale="  130.439">  7 10 -1 -1</clus>
<clus scale="  350.997">  1  5  2 -1</clus>
<clus scale="   25.497">  2  5  1 -1</clus>
</clustering>
</event>
<event>
10    4  0.2565852E-005  0.1932291E+03  0.7546771E-02  0.1177301E+00
          2   -1    0    0  503    0 -0.00000000000E+00  0.00000000000E+00  0.45794837754E+03  0.45794837754E+03  0.00000000000E+00 0. -1.
         21   -1    0    0  501  502  0.00000000000E+00 -0.00000000000E+00 -0.14886304480E+03  0.14886304480E+03  0.00000000000E+00 0. -1.
         24    2    1    2    0    0  0.87064141755E+02  0.66955385796E+01  0.35345661441E+03  0.37268219233E+03  0.79595497338E+02 0.  0.
         23    2    1    2    0    0  0.64625129615E+01 -0.45914028652E+02  0.24889196622E+02  0.87468203292E+02  0.69866675732E+02 0.  0.
        -13    1    3    3    0    0  0.25050868449E+02  0.25778769532E+02  0.45608457129E+02  0.58070838898E+02  0.00000000000E+00 0.  1.
         14    1    3    3    0    0  0.62013273306E+02 -0.19083230953E+02  0.30784815728E+03  0.31461135343E+03  0.00000000000E+00 0. -1.
        -11    1    4    4    0    0 -0.29712189425E+02 -0.66356814485E+01  0.83983936997E+01  0.31581315449E+02  0.00000000000E+00 0.  1.
         11    1    4    4    0    0  0.36174702387E+02 -0.39278347204E+02  0.16490802922E+02  0.55886887844E+02  0.00000000000E+00 0. -1.
         21    1    1    2  503  502 -0.20923261714E+02  0.28672241019E+02  0.11729127437E+02  0.37382518859E+02  0.00000000000E+00 0. -1.
          1    1    1    2  501    0 -0.72603393003E+02  0.10546249054E+02 -0.80989605719E+02  0.10927850786E+03  0.00000000000E+00 0. -1.
<scales pt_clust_5="13000.00000" pt_clust_6="13000.00000" pt_clust_7="13000.00000" pt_clust_8="13000.00000" pt_clust_9="35.49479" pt_clust_10="13000.00000"></scales>
<clustering>
<clus scale="   35.495">  2  9  1 -1</clus>
<clus scale="   69.867">  7  8 -1 -1</clus>
<clus scale="   79.595">  5  6 -1 -1</clus>
<clus scale="   92.446">  7 10 -1 -1</clus>
<clus scale="  117.202">  1  5  2 -1</clus>
<clus scale="   35.495">  2  5  1 -1</clus>
</clustering>
</event>
<event>
10    4  0.2565852E-005  0.1119905E+04  0.7546771E-02  0.9964163E-01
         21   -1    0    0  503  502  0.00000000000E+00  0.00000000000E+00  0.30743780268E+03  0.30743780268E+03  0.00000000000E+00 0. -1.
          2   -1    0    0  502    0 -0.00000000000E+00 -0.00000000000E+00 -0.14769891554E+04  0.14769891554E+04  0.00000000000E+00 0. -1.
         24    2    1    2    0    0 -0.15688992328E+02  0.80436929803E+01 -0.19360013845E+03  0.20813789137E+03  0.74360760740E+02 0.  0.
         23    2    1    2    0    0 -0.34205885567E+03 -0.12527477768E+03  0.40915521316E+02  0.37733999097E+03  0.89517362769E+02 0.  0.
        -11    1    3    3    0    0  0.15223260979E+02 -0.18528873341E+02 -0.24849172157E+02  0.34533290881E+02  0.00000000000E+00 0.  1.
         12    1    3    3    0    0 -0.30912253307E+02  0.26572566321E+02 -0.16875096629E+03  0.17360460048E+03  0.00000000000E+00 0. -1.
        -11    1    4    4    0    0 -0.11465283751E+03 -0.78518417239E+01  0.39131188356E+02  0.12140088332E+03  0.00000000000E+00 0.  1.
         11    1    4    4    0    0 -0.22740601816E+03 -0.11742293596E+03  0.17843329599E+01  0.25593910766E+03  0.00000000000E+00 0. -1.
         21    1    1    2  503  501 -0.25894628016E+02 -0.34041932173E+02  0.43626460280E+02  0.61095441260E+02  0.00000000000E+00 0.  1.
          1    1    1    2  501    0  0.38364247602E+03  0.15127301688E+03 -0.10604931959E+04  0.11378536345E+04  0.00000000000E+00 0. -1.
<scales pt_clust_5="13000.00000" pt_clust_6="13000.00000" pt_clust_7="13000.00000" pt_clust_8="13000.00000" pt_clust_9="42.77131" pt_clust_10="13000.00000"></scales>
<clustering>
<clus scale="   42.771">  1  9  2 -1</clus>
<clus scale="   74.361">  5  6 -1 -1</clus>
<clus scale="   76.481">  2  5  1 -1</clus>
<clus scale="   89.517">  7  8 -1 -1</clus>
<clus scale="  396.252">  7 10 -1 -1</clus>
<clus scale="   42.771">  1  5  2 -1</clus>
</clustering>
</event>
<event>
10    4  0.2565852E-005  0.5316044E+03  0.7546771E-02  0.1029054E+00
         21   -1    0    0  503  502  0.00000000000E+00  0.00000000000E+00  0.33445547632E+03  0.33445547632E+03  0.00000000000E+00 0. -1.
          2   -1    0    0  502    0 -0.00000000000E+00 -0.00000000000E+00 -0.29416798195E+04  0.29416798195E+04  0.00000000000E+00 0. -1.
         24    2    1    2    0    0  0.22204644122E+03 -0.11509623560E+03 -0.10341290652E+04  0.10668861776E+04  0.79192341567E+02 0.  0.
         23    2    1    2    0    0  0.17028728197E+03  0.25720265940E+03 -0.10554277163E+04  0.11032241414E+04  0.89581669188E+02 0.  0.
        -11    1    3    3    0    0  0.11814921517E+03 -0.30255011747E+02 -0.60920107990E+03  0.62128943217E+03  0.00000000000E+00 0.  1.
         12    1    3    3    0    0  0.10389722605E+03 -0.84841223852E+02 -0.42492798532E+03  0.44559674545E+03  0.00000000000E+00 0. -1.
        -11    1    4    4    0    0  0.65237985866E+02  0.13877724710E+03 -0.65337424978E+03  0.67112817657E+03  0.00000000000E+00 0. -1.
         11    1    4    4    0    0  0.10504929610E+03  0.11842541230E+03 -0.40205346653E+03  0.43209596485E+03  0.00000000000E+00 0.  1.
         21    1    1    2  503  501 -0.43626891586E+03 -0.71780970508E+02  0.12386348656E+03  0.45915709509E+03  0.00000000000E+00 0. -1.
          1    1    1    2  501    0  0.43935192667E+02 -0.70325453295E+02 -0.64153104819E+03  0.64686788166E+03  0.00000000000E+00 0. -1.
<scales pt_clust_5="13000.00000" pt_clust_6="13000.00000" pt_clust_7="13000.00000" pt_clust_8="13000.00000" pt_clust_9="424.57574" pt_clust_10="13000.00000"></scales>
<clustering>
<clus scale="   79.192">  5  6 -1 -1</clus>
<clus scale="   89.582">  7  8 -1 -1</clus>
<clus scale="   82.922">  7 10 -1 -1</clus>
<clus scale="  262.342">  2  5  1 -1</clus>
<clus scale="  424.576">  1  9  2 -1</clus>
<clus scale="  424.576">  1  5  2 -1</clus>
</clustering>
</event>
<event>
10    4  0.2565852E-005  0.4287635E+03  0.7546771E-02  0.1076754E+00
          2   -1    0    0  503    0 -0.00000000000E+00  0.00000000000E+00  0.82508369271E+03  0.82508369271E+03  0.00000000000E+00 0. -1.
         21   -1    0    0  501  502  0.00000000000E+00 -0.00000000000E+00 -0.17250281921E+03  0.17250281921E+03  0.00000000000E+00 0. -1.
         24    2    1    2    0    0  0.94761033356E+02 -0.56546305126E+02  0.15442995633E+03  0.20603404429E+03  0.80151593419E+02 0.  0.
         23    2    1    2    0    0 -0.13345556104E+03  0.11775501462E+03  0.55960918977E+03  0.59383420542E+03  0.88317540786E+02 0.  0.
        -11    1    3    3    0    0  0.22890117082E+02  0.20633552496E+02  0.31556076799E+02  0.44107674293E+02  0.00000000000E+00 0.  1.
         12    1    3    3    0    0  0.71870916275E+02 -0.77179857622E+02  0.12287387953E+03  0.16192636999E+03  0.00000000000E+00 0. -1.
        -11    1    4    4    0    0 -0.27009767311E+02 -0.12693729647E+02  0.70469800843E+02  0.76528760171E+02  0.00000000000E+00 0.  1.
         11    1    4    4    0    0 -0.10644579373E+03  0.13044874427E+03  0.48913938893E+03  0.51730544525E+03  0.00000000000E+00 0. -1.
         21    1    1    2  503  502 -0.17180008862E+02  0.39358872118E+02 -0.70249080174E+02  0.82335938594E+02  0.00000000000E+00 0. -1.
          1    1    1    2  501    0  0.55874536549E+02 -0.10056758161E+03  0.87908075750E+01  0.11538232362E+03  0.00000000000E+00 0. -1.
<scales pt_clust_5="13000.00000" pt_clust_6="13000.00000" pt_clust_7="13000.00000" pt_clust_8="13000.00000" pt_clust_9="42.94501" pt_clust_10="13000.00000"></scales>
<clustering>
<clus scale="   42.945">  2  9  1 -1</clus>
<clus scale="   80.152">  5  6 -1 -1</clus>
<clus scale="   88.318">  7  8 -1 -1</clus>
<clus scale="   91.394">  7 10 -1 -1</clus>
<clus scale="  129.101">  1  5  2 -1</clus>
<clus scale="   42.945">  2  5  1 -1</clus>
</clustering>
</event>
<event>
10    4  0.2565852E-005  0.2916882E+03  0.7546771E-02  0.1137319E+00
         -1   -1    0    0    0  501 -0.00000000000E+00  0.00000000000E+00  0.95806630902E+03  0.95806630902E+03  0.00000000000E+00 0.  1.
         21   -1    0    0  501  502  0.00000000000E+00 -0.00000000000E+00 -0.55699196827E+02  0.55699196827E+02  0.00000000000E+00 0.  1.
         24    2    1    2    0    0  0.18921479650E+02 -0.33941819838E+00  0.19667152253E+03  0.21546628584E+03  0.85952864763E+02 0.  0.
         23    2    1    2    0    0  0.48062733279E+02 -0.93497556506E+02  0.17606584023E+03  0.22230803798E+03  0.85847913484E+02 0.  0.
        -11    1    3    3    0    0  0.28915249682E+02  0.20937593262E+02  0.18644315766E+03  0.18983025447E+03  0.00000000000E+00 0.  1.
         12    1    3    3    0    0 -0.99937700314E+01 -0.21277011460E+02  0.10228364872E+02  0.25636031363E+02  0.00000000000E+00 0. -1.
        -11    1    4    4    0    0 -0.24987005405E+02 -0.27964636727E+02  0.52312720095E+02  0.64366078256E+02  0.00000000000E+00 0. -1.
         11    1    4    4    0    0  0.73049738684E+02 -0.65532919779E+02  0.12375312014E+03  0.15794195972E+03  0.00000000000E+00 0.  1.
         21    1    1    2  503  502 -0.28240049446E+02 -0.97810255780E+01 -0.47676203702E+01  0.30263824247E+02  0.00000000000E+00 0.  1.
         -2    1    1    2    0  503 -0.38744163483E+02  0.10361800028E+03  0.53439736980E+03  0.54572735778E+03  0.00000000000E+00 0.  1.
<scales pt_clust_5="13000.00000" pt_clust_6="13000.00000" pt_clust_7="13000.00000" pt_clust_8="13000.00000" pt_clust_9="29.88593" pt_clust_10="13000.00000"></scales>
<clustering>
<clus scale="   29.886">  2  9  1 -1</clus>
<clus scale="   85.848">  7  8 -1 -1</clus>
<clus scale="   85.953">  5  6 -1 -1</clus>
<clus scale="   86.826">  1  5  2 -1</clus>
<clus scale="  105.882">  7 10 -1 -1</clus>
<clus scale="   29.886">  2  5  1 -1</clus>
</clustering>
</event>
<event>
10    4  0.2565852E-005  0.2434327E+03  0.7546771E-02  0.1159120E+00
         21   -1    0    0  501  502  0.00000000000E+00  0.00000000000E+00  0.10222494807E+03  0.10222494807E+03  0.00000000000E+00 0. -1.
          2   -1    0    0  503    0 -0.00000000000E+00 -0.00000000000E+00 -0.87794795426E+03  0.87794795426E+03  0.00000000000E+00 0. -1.
         24    2    1    2    0    0  0.33664787837E+01 -0.87327596250E+00 -0.47679955371E+02  0.93384801432E+02  0.80219992546E+02 0.  0.
         23    2    1    2    0    0 -0.57633671687E+02 -0.30706452272E+02 -0.25309429976E+03  0.27629245907E+03  0.89533636388E+02 0.  0.
        -13    1    3    3    0    0  0.11741457296E+02  0.17510581981E+02 -0.64019967883E+02  0.67402066648E+02  0.00000000000E+00 0.  1.
         14    1    3    3    0    0 -0.83749785121E+01 -0.18383857943E+02  0.16340012512E+02  0.25982734784E+02  0.00000000000E+00 0. -1.
        -11    1    4    4    0    0  0.95885453914E+01 -0.41572205033E+02 -0.93084663981E+02  0.10239601116E+03  0.00000000000E+00 0.  1.
         11    1    4    4    0    0 -0.67222217078E+02  0.10865752761E+02 -0.16000963577E+03  0.17389644790E+03  0.00000000000E+00 0. -1.
         21    1    1    2  503  502 -0.39995621354E+02 -0.62368157851E+02  0.36089221806E+02  0.82412794952E+02  0.00000000000E+00 0. -1.
          1    1    1    2  501    0  0.94262814257E+02  0.93947886085E+02 -0.51103797287E+03  0.52808284687E+03  0.00000000000E+00 0. -1.
<scales pt_clust_5="13000.00000" pt_clust_6="13000.00000" pt_clust_7="13000.00000" pt_clust_8="13000.00000" pt_clust_9="74.09073" pt_clust_10="13000.00000"></scales>
<clustering>
<clus scale="   74.091">  1  9  2 -1</clus>
<clus scale="   80.220">  5  6 -1 -1</clus>
<clus scale="   88.963">  2  5  1 -1</clus>
<clus scale="   89.534">  7  8 -1 -1</clus>
<clus scale="   98.875">  7 10 -1 -1</clus>
<clus scale="   74.091">  1  5  2 -1</clus>
</clustering>
</event>
<event>
10    4  0.2565852E-005  0.2222764E+03  0.7546771E-02  0.1166415E+00
          2   -1    0    0  502    0 -0.00000000000E+00  0.00000000000E+00  0.91165642434E+03  0.91165642434E+03  0.00000000000E+00 0. -1.
         21   -1    0    0  503  502  0.00000000000E+00 -0.00000000000E+00 -0.39472672540E+02  0.39472672540E+02  0.00000000000E+00 0. -1.
         24    2    1    2    0    0 -0.58196326430E+02 -0.19908909376E+02  0.46225024912E+03  0.47314064394E+03  0.80022490880E+02 0.  0.
         23    2    1    2    0    0 -0.39727129325E+02 -0.50118018571E+01  0.78979244690E+02  0.12807075659E+03  0.92525859299E+02 0.  0.
        -13    1    3    3    0    0 -0.36736059889E+02 -0.30015593342E+02  0.10635089551E+03  0.11645165055E+03  0.00000000000E+00 0.  1.
         14    1    3    3    0    0 -0.21460266541E+02  0.10106683966E+02  0.35589935361E+03  0.35668899338E+03  0.00000000000E+00 0. -1.
        -13    1    4    4    0    0  0.22312339915E+02  0.91422447317E-01 -0.56468023788E+01  0.23015978095E+02  0.00000000000E+00 0. -1.
         13    1    4    4    0    0 -0.62039469240E+02 -0.51032243044E+01  0.84626047069E+02  0.10505477849E+03  0.00000000000E+00 0.  1.
         21    1    1    2  503  501  0.26748191871E+02 -0.33905956917E+01  0.34828271205E+02  0.44045094876E+02  0.00000000000E+00 0. -1.
          1    1    1    2  501    0  0.71175263884E+02  0.28311306925E+02  0.29612598678E+03  0.30587260148E+03  0.00000000000E+00 0. -1.
<scales pt_clust_5="13000.00000" pt_clust_6="13000.00000" pt_clust_7="13000.00000" pt_clust_8="13000.00000" pt_clust_9="26.96223" pt_clust_10="13000.00000"></scales>
<clustering>
<clus scale="   26.962">  2  9  1 -1</clus>
<clus scale="   80.022">  5  6 -1 -1</clus>
<clus scale="   92.526">  7  8 -1 -1</clus>
<clus scale="   79.919">  7 10 -1 -1</clus>
<clus scale="   98.688">  1  5  2 -1</clus>
<clus scale="   26.962">  2  5  1 -1</clus>
</clustering>
</event>
<event>
10    4  0.2565852E-005  0.3480924E+03  0.7546771E-02  0.1093341E+00
          2   -1    0    0  502    0 -0.00000000000E+00  0.00000000000E+00  0.13934061971E+04  0.13934061971E+04  0.00000000000E+00 0. -1.
         21   -1    0    0  503  502  0.00000000000E+00 -0.00000000000E+00 -0.60884639123E+02  0.60884639123E+02  0.00000000000E+00 0. -1.
         24    2    1    2    0    0  0.10016643482E+03 -0.98229049207E+02  0.38635148527E+03  0.41890498903E+03  0.80818679102E+02 0.  0.
         23    2    1    2    0    0  0.50162984409E+02 -0.84741652962E+02  0.38085783013E+03  0.40135038376E+03  0.79573682964E+02 0.  0.
        -11    1    3    3    0    0  0.49380016295E+02 -0.39827019186E+02  0.28163325481E+03  0.28868991614E+03  0.00000000000E+00 0.  1.
         12    1    3    3    0    0  0.50786418529E+02 -0.58402030021E+02  0.10471823047E+03  0.13021507290E+03  0.00000000000E+00 0. -1.
        -11    1    4    4    0    0  0.31829884825E+02 -0.70731293409E+01  0.41722458134E+02  0.52952188240E+02  0.00000000000E+00 0.  1.
         11    1    4    4    0    0  0.18333099583E+02 -0.77668523621E+02  0.33913537200E+03  0.34839819552E+03  0.00000000000E+00 0. -1.
         21    1    1    2  503  501 -0.25106590882E+02  0.74077547576E+01 -0.28443923040E+01  0.26330710280E+02  0.00000000000E+00 0. -1.
          1    1    1    2  501    0 -0.12522282835E+03  0.17556294741E+03  0.56815663487E+03  0.60770475314E+03  0.00000000000E+00 0. -1.
<scales pt_clust_5="13000.00000" pt_clust_6="13000.00000" pt_clust_7="13000.00000" pt_clust_8="13000.00000" pt_clust_9="26.17663" pt_clust_10="13000.00000"></scales>
<clustering>
<clus scale="   26.177">  2  9  1 -1</clus>
<clus scale="   79.574">  7  8 -1 -1</clus>
<clus scale="   80.819">  5  6 -1 -1</clus>
<clus scale="  154.980">  1  5  2 -1</clus>
<clus scale="  142.195">  7 10 -1 -1</clus>
<clus scale="   26.177">  2  5  1 -1</clus>
</clustering>
</event>
<event>
10    4  0.2565852E-005  0.1025172E+04  0.7546771E-02  0.9578347E-01
         21   -1    0    0  503  502  0.00000000000E+00  0.00000000000E+00  0.50459924167E+03  0.50459924167E+03  0.00000000000E+00 0. -1.
          2   -1    0    0  502    0 -0.00000000000E+00 -0.00000000000E+00 -0.27447720300E+04  0.27447720300E+04  0.00000000000E+00 0. -1.
         24    2    1    2    0    0  0.37831743065E+03 -0.21323649306E+03 -0.41897479256E+03  0.60852004171E+03  0.78504038429E+02 0.  0.
         23    2    1    2    0    0  0.89722868327E+01 -0.35302513804E+03 -0.10652436459E+04  0.11258532096E+04  0.89967629930E+02 0.  0.
        -13    1    3    3    0    0  0.72770001508E+02 -0.45944326010E+02 -0.13004571270E+03  0.15594307168E+03  0.00000000000E+00 0.  1.
         14    1    3    3    0    0  0.30554742915E+03 -0.16729216705E+03 -0.28892907986E+03  0.45257697003E+03  0.00000000000E+00 0. -1.
        -11    1    4    4    0    0 -0.30901610500E+02 -0.21523647378E+03 -0.56315626443E+03  0.60367758559E+03  0.00000000000E+00 0.  1.
         11    1    4    4    0    0  0.39873897332E+02 -0.13778866426E+03 -0.50208738150E+03  0.52217562405E+03  0.00000000000E+00 0. -1.
         21    1    1    2  503  501 -0.24723453820E+03 -0.23411982276E+02  0.24242871153E+03  0.34705146300E+03  0.00000000000E+00 0. -1.
          1    1    1    2  501    0 -0.14005517928E+03  0.58967361337E+03 -0.99838306133E+03  0.11679465573E+04  0.00000000000E+00 0. -1.
<scales pt_clust_5="13000.00000" pt_clust_6="13000.00000" pt_clust_7="13000.00000" pt_clust_8="13000.00000" pt_clust_9="248.34057" pt_clust_10="13000.00000"></scales>
<clustering>
<clus scale="   78.504">  5  6 -1 -1</clus>
<clus scale="   89.968">  7  8 -1 -1</clus>
<clus scale="  248.341">  1  9  2 -1</clus>
<clus scale="  356.882">  2  5  1 -1</clus>
<clus scale="  477.892">  7 10 -1 -1</clus>
<clus scale="  248.341">  1  5  2 -1</clus>
</clustering>
</event>
<event>
10    4  0.2565852E-005  0.4313702E+03  0.7546771E-02  0.1062341E+00
          2   -1    0    0  502    0 -0.00000000000E+00  0.00000000000E+00  0.90157467130E+03  0.90157467130E+03  0.00000000000E+00 0. -1.
         21   -1    0    0  503  502  0.00000000000E+00 -0.00000000000E+00 -0.24415629540E+03  0.24415629540E+03  0.00000000000E+00 0. -1.
         24    2    1    2    0    0  0.18126745204E+03  0.27356832663E+02  0.19162793747E+03  0.27710622807E+03  0.80376052111E+02 0.  0.
         23    2    1    2    0    0 -0.67841938606E+02 -0.18024250578E+03  0.14526808895E+03  0.25785865123E+03  0.91095427006E+02 0.  0.
        -11    1    3    3    0    0  0.10046550006E+03  0.50995416222E+02  0.84380116288E+02  0.14076168940E+03  0.00000000000E+00 0.  1.
         12    1    3    3    0    0  0.80801951978E+02 -0.23638583559E+02  0.10724782118E+03  0.13634453867E+03  0.00000000000E+00 0. -1.
        -13    1    4    4    0    0 -0.95115324913E+01 -0.13037852700E+03  0.11891875939E+03  0.17672210074E+03  0.00000000000E+00 0. -1.
         13    1    4    4    0    0 -0.58330406115E+02 -0.49863978778E+02  0.26349329556E+02  0.81136550488E+02  0.00000000000E+00 0.  1.
         21    1    1    2  503  501 -0.39089201161E+02  0.26548965766E+02 -0.12929935206E+03  0.13766312387E+03  0.00000000000E+00 0. -1.
          1    1    1    2  501    0 -0.74336312272E+02  0.12633670735E+03  0.44982170153E+03  0.47310296354E+03  0.00000000000E+00 0. -1.
<scales pt_clust_5="13000.00000" pt_clust_6="13000.00000" pt_clust_7="13000.00000" pt_clust_8="13000.00000" pt_clust_9="47.25265" pt_clust_10="13000.00000"></scales>
<clustering>
<clus scale="   47.253">  2  9  1 -1</clus>
<clus scale="   80.376">  5  6 -1 -1</clus>
<clus scale="   91.095">  7  8 -1 -1</clus>
<clus scale="  151.091">  7 10 -1 -1</clus>
<clus scale="  188.383">  1  5  2 -1</clus>
<clus scale="   47.253">  2  5  1 -1</clus>
</clustering>
</event>
<event>
10    4  0.2565852E-005  0.5381033E+03  0.7546771E-02  0.1045921E+00
         21   -1    0    0  503  502  0.00000000000E+00  0.00000000000E+00  0.15951808374E+03  0.15951808374E+03  0.00000000000E+00 0. -1.
          2   -1    0    0  502    0 -0.00000000000E+00 -0.00000000000E+00 -0.11318642880E+04  0.11318642880E+04  0.00000000000E+00 0. -1.
         24    2    1    2    0    0  0.12783692478E+03  0.41052631066E+02 -0.50297956813E+03  0.52661353123E+03  0.79408862591E+02 0.  0.
         23    2    1    2    0    0  0.13151766904E+03  0.78638370881E+02 -0.41279535750E+03  0.44883093043E+03  0.86996013075E+02 0.  0.
        -13    1    3    3    0    0  0.73088620172E+02  0.45943997445E+02 -0.40658063217E+03  0.41564480961E+03  0.00000000000E+00 0.  1.
         14    1    3    3    0    0  0.54748304611E+02 -0.48913663793E+01 -0.96398935963E+02  0.11096872162E+03  0.00000000000E+00 0. -1.
        -11    1    4    4    0    0  0.84376918731E+02  0.51789384834E+00 -0.18008806630E+03  0.19887544909E+03  0.00000000000E+00 0.  1.
         11    1    4    4    0    0  0.47140750309E+02  0.78120477032E+02 -0.23270729120E+03  0.24995548133E+03  0.00000000000E+00 0. -1.
         21    1    1    2  503  501 -0.21173412151E+02  0.29728770463E+01  0.27785137799E+02  0.35059453256E+02  0.00000000000E+00 0.  1.
          1    1    1    2  501    0 -0.23818118167E+03 -0.12266387899E+03 -0.84356416398E+02  0.28087845681E+03  0.00000000000E+00 0. -1.
<scales pt_clust_5="13000.00000" pt_clust_6="13000.00000" pt_clust_7="13000.00000" pt_clust_8="13000.00000" pt_clust_9="21.38110" pt_clust_10="13000.00000"></scales>
<clustering>
<clus scale="   21.381">  1  9  2 -1</clus>
<clus scale="   79.409">  5  6 -1 -1</clus>
<clus scale="   86.996">  7  8 -1 -1</clus>
<clus scale="  154.468">  2  5  1 -1</clus>
<clus scale="  238.698">  7 10 -1 -1</clus>
<clus scale="   21.381">  1  5  2 -1</clus>
</clustering>
</event>
<event>
10    4  0.2565852E-005  0.1841116E+03  0.7546771E-02  0.1182254E+00
          2   -1    0    0  502    0 -0.00000000000E+00  0.00000000000E+00  0.58042127519E+03  0.58042127519E+03  0.00000000000E+00 0. -1.
         21   -1    0    0  503  502  0.00000000000E+00 -0.00000000000E+00 -0.54199393627E+02  0.54199393627E+02  0.00000000000E+00 0.  1.
         24    2    1    2    0    0  0.95193622778E+02 -0.26051062169E+01  0.32844613138E+03  0.35136636817E+03  0.80702237086E+02 0.  0.
         23    2    1    2    0    0  0.21085228781E+01  0.24450755760E+02  0.12801612774E+03  0.15964977113E+03  0.92182618386E+02 0.  0.
        -11    1    3    3    0    0  0.40620445034E+02 -0.33019038766E+02  0.22064532036E+03  0.22677000435E+03  0.00000000000E+00 0.  1.
         12    1    3    3    0    0  0.54573177744E+02  0.30413932549E+02  0.10780081101E+03  0.12459636382E+03  0.00000000000E+00 0. -1.
        -13    1    4    4    0    0  0.26245294479E+02  0.41209734858E+02  0.30020916041E+02  0.57343815091E+02  0.00000000000E+00 0.  1.
         13    1    4    4    0    0 -0.24136771601E+02 -0.16758979098E+02  0.97995211703E+02  0.10230595604E+03  0.00000000000E+00 0. -1.
         21    1    1    2  503  501 -0.19488705963E+02 -0.60193008706E+01  0.46575965600E+01  0.20922113870E+02  0.00000000000E+00 0.  1.
          1    1    1    2  501    0 -0.77813439693E+02 -0.15826348673E+02  0.65102025885E+02  0.10268241565E+03  0.00000000000E+00 0. -1.
<scales pt_clust_5="13000.00000" pt_clust_6="13000.00000" pt_clust_7="13000.00000" pt_clust_8="13000.00000" pt_clust_9="20.39710" pt_clust_10="13000.00000"></scales>
<clustering>
<clus scale="   20.397">  2  9  1 -1</clus>
<clus scale="   80.702">  5  6 -1 -1</clus>
<clus scale="   92.183">  7  8 -1 -1</clus>
<clus scale="   87.690">  7 10 -1 -1</clus>
<clus scale="  121.210">  1  5  2 -1</clus>
<clus scale="   20.397">  2  5  1 -1</clus>
</clustering>
</event>
<event>
10    4  0.2565852E-005  0.1672841E+03  0.7546771E-02  0.1187405E+00
         21   -1    0    0  503  502  0.00000000000E+00  0.00000000000E+00  0.36619941035E+02  0.36619941035E+02  0.00000000000E+00 0. -1.
         -3   -1    0    0    0  501 -0.00000000000E+00 -0.00000000000E+00 -0.11172339587E+04  0.11172339587E+04  0.00000000000E+00 0.  1.
         24    2    1    2    0    0 -0.99955107912E+02  0.37884224901E+02 -0.19366908762E+03  0.23578977207E+03  0.81626362300E+02 0.  0.
         23    2    1    2    0    0  0.78522865770E+02 -0.39289629469E+02 -0.57501602370E+03  0.58859926287E+03  0.89978604666E+02 0.  0.
        -11    1    3    3    0    0 -0.11358184320E+03  0.26445152680E+02 -0.17077589324E+03  0.20679600315E+03  0.00000000000E+00 0.  1.
         12    1    3    3    0    0  0.13626735288E+02  0.11439072221E+02 -0.22893194376E+02  0.28993768927E+02  0.00000000000E+00 0. -1.
        -11    1    4    4    0    0  0.45439202148E+02  0.23939921204E+02 -0.17977480501E+03  0.18696743416E+03  0.00000000000E+00 0. -1.
         11    1    4    4    0    0  0.33083663622E+02 -0.63229550673E+02 -0.39524121870E+03  0.40163182871E+03  0.00000000000E+00 0.  1.
         21    1    1    2  503  501  0.51723616395E+01  0.44958875343E+02 -0.71764165179E+02  0.84841907103E+02  0.00000000000E+00 0.  1.
         -4    1    1    2    0  502  0.16259880503E+02 -0.43553470775E+02 -0.24016474115E+03  0.24462295768E+03  0.00000000000E+00 0.  1.
<scales pt_clust_5="13000.00000" pt_clust_6="13000.00000" pt_clust_7="13000.00000" pt_clust_8="13000.00000" pt_clust_9="45.25543" pt_clust_10="13000.00000"></scales>
<clustering>
<clus scale="   45.255">  1  9  2 -1</clus>
<clus scale="   81.626">  5  6 -1 -1</clus>
<clus scale="   89.979">  7  8 -1 -1</clus>
<clus scale="   43.529">  7 10 -1 -1</clus>
<clus scale="  144.063">  2  5  1 -1</clus>
<clus scale="   45.255">  1  5  2 -1</clus>
</clustering>
</event>
<event>
10    4  0.2565852E-005  0.2386383E+03  0.7546771E-02  0.1147569E+00
          2   -1    0    0  502    0 -0.00000000000E+00  0.00000000000E+00  0.21625894995E+03  0.21625894995E+03  0.00000000000E+00 0. -1.
         21   -1    0    0  503  502  0.00000000000E+00 -0.00000000000E+00 -0.22615495016E+03  0.22615495016E+03  0.00000000000E+00 0.  1.
         24    2    1    2    0    0  0.33168142895E+02  0.81729403320E+02  0.33081979481E+02  0.12335183658E+03  0.79633141030E+02 0.  0.
         23    2    1    2    0    0 -0.75935767493E+01 -0.19060379079E+02 -0.69240225070E+02  0.11602789593E+03  0.90814665158E+02 0.  0.
        -11    1    3    3    0    0  0.51077175194E+02  0.24172908719E+02  0.46352693109E+01  0.56698263318E+02  0.00000000000E+00 0.  1.
         12    1    3    3    0    0 -0.17909032299E+02  0.57556494601E+02  0.28446710170E+02  0.66653573258E+02  0.00000000000E+00 0. -1.
        -11    1    4    4    0    0 -0.10767008274E+02 -0.42671221103E+02 -0.78881733117E+02  0.90327677913E+02  0.00000000000E+00 0.  1.
         11    1    4    4    0    0  0.31734315248E+01  0.23610842025E+02  0.96415080464E+01  0.25700218018E+02  0.00000000000E+00 0. -1.
         21    1    1    2  503  501  0.15907744270E+02  0.18848453898E+02 -0.67610894855E+02  0.71969115912E+02  0.00000000000E+00 0.  1.
          1    1    1    2  501    0 -0.41482310416E+02 -0.81517478140E+02  0.93873140233E+02  0.13106505170E+03  0.00000000000E+00 0. -1.
<scales pt_clust_5="13000.00000" pt_clust_6="13000.00000" pt_clust_7="13000.00000" pt_clust_8="13000.00000" pt_clust_9="24.66416" pt_clust_10="13000.00000"></scales>
<clustering>
<clus scale="   24.664">  2  9  1 -1</clus>
<clus scale="   79.633">  5  6 -1 -1</clus>
<clus scale="   90.815">  7  8 -1 -1</clus>
<clus scale="   88.612">  7 10 -1 -1</clus>
<clus scale="  123.959">  1  5  2 -1</clus>
<clus scale="   24.664">  2  5  1 -1</clus>
</clustering>
</event>
<event>
10    4  0.2565852E-005  0.2408528E+03  0.7546771E-02  0.1134477E+00
         21   -1    0    0  501  502  0.00000000000E+00  0.00000000000E+00  0.22439070214E+03  0.22439070214E+03  0.00000000000E+00 0. -1.
          2   -1    0    0  503    0 -0.00000000000E+00 -0.00000000000E+00 -0.28753900084E+03  0.28753900084E+03  0.00000000000E+00 0. -1.
         24    2    1    2    0    0 -0.12575162029E+03  0.32309700369E+02 -0.35710685033E+02  0.15787676718E+03  0.82416223199E+02 0.  0.
         23    2    1    2    0    0  0.48479572645E+02 -0.46204903077E+02 -0.86015854012E+02  0.14165134037E+03  0.90450058348E+02 0.  0.
        -11    1    3    3    0    0 -0.13531253995E+02  0.37390632200E+02  0.75530927175E+00  0.39770902719E+02  0.00000000000E+00 0.  1.
         12    1    3    3    0    0 -0.11222036629E+03 -0.50809318313E+01 -0.36465994305E+02  0.11810586446E+03  0.00000000000E+00 0. -1.
        -11    1    4    4    0    0 -0.15255695255E+01  0.25259828844E+02 -0.20375030838E+02  0.32488893445E+02  0.00000000000E+00 0.  1.
         11    1    4    4    0    0  0.50005142171E+02 -0.71464731921E+02 -0.65640823174E+02  0.10916244693E+03  0.00000000000E+00 0. -1.
         21    1    1    2  503  502 -0.40899856439E+02 -0.37888368384E+02  0.61942453113E+02  0.83337831824E+02  0.00000000000E+00 0.  1.
          1    1    1    2  501    0  0.11817190408E+03  0.51783571092E+02 -0.33642127608E+01  0.12906376361E+03  0.00000000000E+00 0. -1.
<scales pt_clust_5="13000.00000" pt_clust_6="13000.00000" pt_clust_7="13000.00000" pt_clust_8="13000.00000" pt_clust_9="55.75237" pt_clust_10="13000.00000"></scales>
<clustering>
<clus scale="   55.752">  1  9  2 -1</clus>
<clus scale="   82.416">  5  6 -1 -1</clus>
<clus scale="   90.450">  7  8 -1 -1</clus>
<clus scale="  107.474">  7 10 -1 -1</clus>
<clus scale="  165.253">  2  5  1 -1</clus>
<clus scale="   55.752">  1  5  2 -1</clus>
</clustering>
</event>
<event>
10    4  0.2565852E-005  0.2028117E+03  0.7546771E-02  0.1151576E+00
          2   -1    0    0  503    0 -0.00000000000E+00  0.00000000000E+00  0.10319709858E+04  0.10319709858E+04  0.00000000000E+00 0. -1.
         21   -1    0    0  501  502  0.00000000000E+00 -0.00000000000E+00 -0.87534772475E+02  0.87534772475E+02  0.00000000000E+00 0. -1.
         24    2    1    2    0    0 -0.19485329801E+02 -0.16363526370E+03  0.44578163439E+03  0.48212381559E+03  0.81030428826E+02 0.  0.
         23    2    1    2    0    0 -0.76767474609E+02  0.62709725837E+01  0.55827668330E+02  0.13072841222E+03  0.89669498475E+02 0.  0.
        -13    1    3    3    0    0  0.11628605030E+02 -0.14711643919E+03  0.37678235752E+03  0.40465221619E+03  0.00000000000E+00 0.  1.
         14    1    3    3    0    0 -0.31113934831E+02 -0.16518824509E+02  0.68999276876E+02  0.77471599397E+02  0.00000000000E+00 0. -1.
        -11    1    4    4    0    0 -0.85834933869E+02 -0.21140332883E+02  0.34766311831E+02  0.94990767893E+02  0.00000000000E+00 0. -1.
         11    1    4    4    0    0  0.90674592594E+01  0.27411305467E+02  0.21061356498E+02  0.35737644331E+02  0.00000000000E+00 0.  1.
         21    1    1    2  503  502  0.13839503226E+03  0.13508830667E+03  0.30837258506E+03  0.36399956974E+03  0.00000000000E+00 0. -1.
          1    1    1    2  501    0 -0.42142227850E+02  0.22275984438E+02  0.13445432549E+03  0.14265396067E+03  0.00000000000E+00 0. -1.
<scales pt_clust_5="13000.00000" pt_clust_6="13000.00000" pt_clust_7="13000.00000" pt_clust_8="13000.00000" pt_clust_9="132.50044" pt_clust_10="13000.00000"></scales>
<clustering>
<clus scale="   81.030">  5  6 -1 -1</clus>
<clus scale="   89.669">  7  8 -1 -1</clus>
<clus scale="   47.667">  7 10 -1 -1</clus>
<clus scale="  183.636">  1  5  2 -1</clus>
<clus scale="  132.500">  2  9  1 -1</clus>
<clus scale="  132.500">  2  5  1 -1</clus>
</clustering>
</event>
<event>
10    4  0.2565852E-005  0.2326386E+03  0.7546771E-02  0.1154949E+00
         21   -1    0    0  503  502  0.00000000000E+00  0.00000000000E+00  0.34255381209E+02  0.34255381209E+02  0.00000000000E+00 0. -1.
          2   -1    0    0  502    0 -0.00000000000E+00 -0.00000000000E+00 -0.15294513042E+04  0.15294513042E+04  0.00000000000E+00 0. -1.
         24    2    1    2    0    0 -0.80674325816E+02 -0.23996208761E+02 -0.77833789284E+03  0.78686410109E+03  0.79126943992E+02 0.  0.
         23    2    1    2    0    0 -0.29188545207E+02 -0.49176412973E+02 -0.49645304640E+03  0.50828760415E+03  0.92845950267E+02 0.  0.
        -11    1    3    3    0    0 -0.11537199784E+02 -0.32941350196E+02 -0.12386136211E+03  0.12868518390E+03  0.00000000000E+00 0.  1.
         12    1    3    3    0    0 -0.69137126032E+02  0.89451414347E+01 -0.65447653073E+03  0.65817891719E+03  0.00000000000E+00 0. -1.
        -13    1    4    4    0    0 -0.24795313213E+02  0.20571938693E+02 -0.84213164395E+02  0.90165787726E+02  0.00000000000E+00 0.  1.
         13    1    4    4    0    0 -0.43932319942E+01 -0.69748351666E+02 -0.41223988201E+03  0.41812181642E+03  0.00000000000E+00 0. -1.
         21    1    1    2  503  501  0.14892286114E+02  0.33884682873E+02 -0.17150251357E+02  0.40793173947E+02  0.00000000000E+00 0. -1.
          1    1    1    2  501    0  0.94970584909E+02  0.39287938861E+02 -0.20325473239E+03  0.22776180623E+03  0.00000000000E+00 0. -1.
<scales pt_clust_5="13000.00000" pt_clust_6="13000.00000" pt_clust_7="13000.00000" pt_clust_8="13000.00000" pt_clust_9="37.01286" pt_clust_10="13000.00000"></scales>
<clustering>
<clus scale="   37.013">  1  9  2 -1</clus>
<clus scale="   79.127">  5  6 -1 -1</clus>
<clus scale="   92.846">  7  8 -1 -1</clus>
<clus scale="  112.379">  2  5  1 -1</clus>
<clus scale="   89.147">  7 10 -1 -1</clus>
<clus scale="   37.013">  1  5  2 -1</clus>
</clustering>
</event>
<event>
10    4  0.2565852E-005  0.2728675E+03  0.7546771E-02  0.1127295E+00
         -1   -1    0    0    0  501 -0.00000000000E+00  0.00000000000E+00  0.17715881072E+04  0.17715881072E+04  0.00000000000E+00 0.  1.
         21   -1    0    0  501  502  0.00000000000E+00 -0.00000000000E+00 -0.30193675414E+03  0.30193675414E+03  0.00000000000E+00 0.  1.
         24    2    1    2    0    0  0.32008958884E+01 -0.82837787664E+02  0.59247192114E+02  0.12930493880E+03  0.79606486075E+02 0.  0.
         23    2    1    2    0    0 -0.25252382059E+02 -0.49241044888E+02  0.42259178193E+03  0.43592515370E+03  0.91567254880E+02 0.  0.
        -13    1    3    3    0    0 -0.19044450593E+02 -0.84924428128E+02  0.29077027822E+02  0.91762318727E+02  0.00000000000E+00 0.  1.
         14    1    3    3    0    0  0.22245346482E+02  0.20866404640E+01  0.30170164292E+02  0.37542620073E+02  0.00000000000E+00 0. -1.
        -13    1    4    4    0    0  0.11436140004E+02 -0.61823440194E+02  0.32269842947E+03  0.32876617746E+03  0.00000000000E+00 0. -1.
         13    1    4    4    0    0 -0.36688522063E+02  0.12582395307E+02  0.99893352461E+02  0.10715897624E+03  0.00000000000E+00 0.  1.
         21    1    1    2  503  502  0.66402987001E+02 -0.17447295732E+02 -0.25073550455E+03  0.25996549396E+03  0.00000000000E+00 0.  1.
         -2    1    1    2    0  503 -0.44351500831E+02  0.14952612828E+03  0.12385478836E+04  0.12483292749E+04  0.00000000000E+00 0.  1.
<scales pt_clust_5="13000.00000" pt_clust_6="13000.00000" pt_clust_7="13000.00000" pt_clust_8="13000.00000" pt_clust_9="68.65686" pt_clust_10="13000.00000"></scales>
<clustering>
<clus scale="   68.657">  2  9  1 -1</clus>
<clus scale="   79.606">  5  6 -1 -1</clus>
<clus scale="   91.567">  7  8 -1 -1</clus>
<clus scale="  135.528">  1  5  2 -1</clus>
<clus scale="   77.247">  7 10 -1 -1</clus>
<clus scale="   68.657">  2  5  1 -1</clus>
</clustering>
</event>
<event>
10    4  0.2565852E-005  0.6272379E+03  0.7546771E-02  0.1043299E+00
          2   -1    0    0  502    0 -0.00000000000E+00  0.00000000000E+00  0.17191713622E+04  0.17191713622E+04  0.00000000000E+00 0. -1.
         21   -1    0    0  503  502  0.00000000000E+00 -0.00000000000E+00 -0.10225388274E+03  0.10225388274E+03  0.00000000000E+00 0. -1.
         24    2    1    2    0    0  0.29374321576E+02  0.60163444085E+02  0.42533096421E+03  0.43806539845E+03  0.80699277785E+02 0.  0.
         23    2    1    2    0    0 -0.25260519557E+03  0.17072181572E+03  0.51507345766E+03  0.60478032424E+03  0.86621305772E+02 0.  0.
        -11    1    3    3    0    0 -0.61338393501E+01  0.29008486513E+02  0.39690023391E+02  0.49542045090E+02  0.00000000000E+00 0.  1.
         12    1    3    3    0    0  0.35508160926E+02  0.31154957573E+02  0.38564094082E+03  0.38852335336E+03  0.00000000000E+00 0. -1.
        -11    1    4    4    0    0 -0.22067925535E+03  0.13970726854E+03  0.48563607253E+03  0.55141622172E+03  0.00000000000E+00 0. -1.
         11    1    4    4    0    0 -0.31925940217E+02  0.31014547174E+02  0.29437385125E+02  0.53364102523E+02  0.00000000000E+00 0.  1.
         21    1    1    2  503  501  0.21120076436E+02 -0.29980628406E+01 -0.12861707491E+02  0.24909225782E+02  0.00000000000E+00 0. -1.
          1    1    1    2  501    0  0.20211079756E+03 -0.22788719696E+03  0.68937476511E+03  0.75367029648E+03  0.00000000000E+00 0. -1.
<scales pt_clust_5="13000.00000" pt_clust_6="13000.00000" pt_clust_7="13000.00000" pt_clust_8="13000.00000" pt_clust_9="21.33181" pt_clust_10="13000.00000"></scales>
<clustering>
<clus scale="   21.332">  2  9  1 -1</clus>
<clus scale="   80.699">  5  6 -1 -1</clus>
<clus scale="   86.621">  7  8 -1 -1</clus>
<clus scale="  105.189">  1  5  2 -1</clus>
<clus scale="  299.608">  7 10 -1 -1</clus>
<clus scale="   21.332">  2  5  1 -1</clus>
</clustering>
</event>
<event>
10    4  0.2565852E-005  0.3378955E+03  0.7546771E-02  0.1108317E+00
         21   -1    0    0  501  502  0.00000000000E+00  0.00000000000E+00  0.51920784575E+03  0.51920784575E+03  0.00000000000E+00 0. -1.
          2   -1    0    0  503    0 -0.00000000000E+00 -0.00000000000E+00 -0.26248053220E+03  0.26248053220E+03  0.00000000000E+00 0. -1.
         24    2    1    2    0    0  0.59387530234E+02  0.53723629961E+02  0.84521142516E+02  0.14267940469E+03  0.82465033974E+02 0.  0.
         23    2    1    2    0    0  0.32781194537E+02  0.48657256330E+02 -0.13238511813E+03  0.17141835527E+03  0.91740382135E+02 0.  0.
        -13    1    3    3    0    0  0.74826957209E+02  0.57030041707E+02  0.54418361910E+02  0.10868696930E+03  0.00000000000E+00 0.  1.
         14    1    3    3    0    0 -0.15439426975E+02 -0.33064117456E+01  0.30102780606E+02  0.33992435396E+02  0.00000000000E+00 0. -1.
        -11    1    4    4    0    0 -0.23621296062E+02 -0.75293257180E+01 -0.13194923311E+02  0.28084913648E+02  0.00000000000E+00 0.  1.
         11    1    4    4    0    0  0.56402490599E+02  0.56186582048E+02 -0.11919019481E+03  0.14333344162E+03  0.00000000000E+00 0. -1.
         21    1    1    2  503  502 -0.17943491391E+03 -0.16705118704E+03  0.22692479509E+03  0.33406264389E+03  0.00000000000E+00 0. -1.
          1    1    1    2  501    0  0.87266189135E+02  0.64670300744E+02  0.77666494070E+02  0.13352797409E+03  0.00000000000E+00 0. -1.
<scales pt_clust_5="13000.00000" pt_clust_6="13000.00000" pt_clust_7="13000.00000" pt_clust_8="13000.00000" pt_clust_9="226.78122" pt_clust_10="13000.00000"></scales>
<clustering>
<clus scale="   82.465">  5  6 -1 -1</clus>
<clus scale="   91.740">  7  8 -1 -1</clus>
<clus scale="  108.617">  7 10 -1 -1</clus>
<clus scale="  114.950">  2  5  1 -1</clus>
<clus scale="  226.781">  1  9  2 -1</clus>
<clus scale="  226.781">  1  5  2 -1</clus>
</clustering>
</event>
<event>
10    4  0.2565852E-005  0.1555457E+03  0.7546771E-02  0.1215288E+00
          2   -1    0    0  502    0 -0.00000000000E+00  0.00000000000E+00  0.17609471119E+03  0.17609471119E+03  0.00000000000E+00 0. -1.
         21   -1    0    0  503  502  0.00000000000E+00 -0.00000000000E+00 -0.12066080886E+03  0.12066080886E+03  0.00000000000E+00 0.  1.
         24    2    1    2    0    0  0.47042211122E+02 -0.36447821722E+02  0.59971063359E+02  0.11775807673E+03  0.82030621470E+02 0.  0.
         23    2    1    2    0    0 -0.55036017276E+02 -0.25923508560E+01 -0.30174117299E+02  0.10928950750E+03  0.89431737178E+02 0.  0.
        -11    1    3    3    0    0  0.60950867814E+02 -0.14088905151E+02  0.65796714884E+02  0.90789389387E+02  0.00000000000E+00 0.  1.
         12    1    3    3    0    0 -0.13908656692E+02 -0.22358916571E+02 -0.58256515251E+01  0.26968687341E+02  0.00000000000E+00 0. -1.
        -13    1    4    4    0    0 -0.27586806123E+02  0.22015448866E+02  0.24773504576E+02  0.43121205802E+02  0.00000000000E+00 0. -1.
         13    1    4    4    0    0 -0.27449211152E+02 -0.24607799722E+02 -0.54947621875E+02  0.66168301699E+02  0.00000000000E+00 0.  1.
         21    1    1    2  503  501 -0.89596247715E+01  0.23920070499E+02 -0.10013058539E+02  0.27435487785E+02  0.00000000000E+00 0. -1.
          1    1    1    2  501    0  0.16953430925E+02  0.15120102079E+02  0.35650014809E+02  0.42272448035E+02  0.00000000000E+00 0. -1.
<scales pt_clust_5="13000.00000" pt_clust_6="13000.00000" pt_clust_7="13000.00000" pt_clust_8="13000.00000" pt_clust_9="25.54300" pt_clust_10="13000.00000"></scales>
<clustering>
<clus scale="   25.543">  2  9  1 -1</clus>
<clus scale="   82.031">  5  6 -1 -1</clus>
<clus scale="   89.432">  7  8 -1 -1</clus>
<clus scale="   23.029">  7 10 -1 -1</clus>
<clus scale="   97.927">  1  5  2 -1</clus>
<clus scale="   25.543">  2  5  1 -1</clus>
</clustering>
</event>
<event>
10    4  0.2565852E-005  0.8023105E+03  0.7546771E-02  0.1002387E+00
          2   -1    0    0  503    0 -0.00000000000E+00  0.00000000000E+00  0.21616972371E+04  0.21616972371E+04  0.00000000000E+00 0. -1.
         21   -1    0    0  501  502  0.00000000000E+00 -0.00000000000E+00 -0.46870940661E+03  0.46870940661E+03  0.00000000000E+00 0.  1.
         24    2    1    2    0    0 -0.16179279776E+03  0.65182835212E+02  0.53719189827E+02  0.19989913701E+03  0.81536508435E+02 0.  0.
         23    2    1    2    0    0 -0.24762936780E+03 -0.17375407641E+03  0.13706778144E+04  0.14061773945E+04  0.84061947466E+02 0.  0.
        -11    1    3    3    0    0 -0.37062059000E+02 -0.16769907152E+02 -0.16537953810E+01  0.40713155643E+02  0.00000000000E+00 0.  1.
         12    1    3    3    0    0 -0.12473073876E+03  0.81952742364E+02  0.55372985208E+02  0.15918598136E+03  0.00000000000E+00 0. -1.
        -13    1    4    4    0    0 -0.24553253029E+02 -0.55929734309E+02  0.23411902102E+03  0.24195601546E+03  0.00000000000E+00 0.  1.
         13    1    4    4    0    0 -0.22307611477E+03 -0.11782434210E+03  0.11365587934E+04  0.11642213790E+04  0.00000000000E+00 0. -1.
         21    1    1    2  503  502  0.39048076045E+02 -0.29373959281E+02 -0.31540395932E+03  0.31916647581E+03  0.00000000000E+00 0.  1.
          1    1    1    2  501    0  0.37037408951E+03  0.13794520048E+03  0.58399478554E+03  0.70516363637E+03  0.00000000000E+00 0. -1.
<scales pt_clust_5="13000.00000" pt_clust_6="13000.00000" pt_clust_7="13000.00000" pt_clust_8="13000.00000" pt_clust_9="48.86289" pt_clust_10="13000.00000"></scales>
<clustering>
<clus scale="   48.863">  2  9  1 -1</clus>
<clus scale="   81.537">  5  6 -1 -1</clus>
<clus scale="   84.062">  7  8 -1 -1</clus>
<clus scale="  172.287">  1  5  2 -1</clus>
<clus scale="  367.582">  7 10 -1 -1</clus>
<clus scale="   48.863">  2  5  1 -1</clus>
</clustering>
</event>
<event>
10    4  0.2565852E-005  0.2856769E+03  0.7546771E-02  0.1099693E+00
         21   -1    0    0  503  502  0.00000000000E+00  0.00000000000E+00  0.12195919169E+03  0.12195919169E+03  0.00000000000E+00 0. -1.
          4   -1    0    0  502    0 -0.00000000000E+00 -0.00000000000E+00 -0.98165158033E+03  0.98165158033E+03  0.00000000000E+00 0. -1.
         24    2    1    2    0    0 -0.20278464000E+03 -0.99096247602E+02 -0.10388345841E+03  0.26138379676E+03  0.81166740512E+02 0.  0.
         23    2    1    2    0    0  0.17696149093E+03  0.34702224645E+02 -0.40620163503E+03  0.45362286338E+03  0.90853289497E+02 0.  0.
        -13    1    3    3    0    0 -0.10798297319E+03 -0.69716616401E+02 -0.98595558581E+02  0.16199325070E+03  0.00000000000E+00 0.  1.
         14    1    3    3    0    0 -0.94801666815E+02 -0.29379631201E+02 -0.52878998284E+01  0.99390546055E+02  0.00000000000E+00 0. -1.
        -11    1    4    4    0    0  0.26042618702E+02 -0.16990020710E+02 -0.23413982480E+02  0.38924200290E+02  0.00000000000E+00 0.  1.
         11    1    4    4    0    0  0.15091887223E+03  0.51692245355E+02 -0.38278765255E+03  0.41469866309E+03  0.00000000000E+00 0. -1.
         21    1    1    2  503  501 -0.58666581154E+01  0.21346499928E+02  0.10534722306E+02  0.24516751634E+02  0.00000000000E+00 0. -1.
          3    1    1    2  501    0  0.31689807189E+02  0.43047523029E+02 -0.36014201750E+03  0.36408736024E+03  0.00000000000E+00 0. -1.
<scales pt_clust_5="13000.00000" pt_clust_6="13000.00000" pt_clust_7="13000.00000" pt_clust_8="13000.00000" pt_clust_9="22.13799" pt_clust_10="13000.00000"></scales>
<clustering>
<clus scale="   22.138">  1  9  2 -1</clus>
<clus scale="   81.167">  5  6 -1 -1</clus>
<clus scale="   90.853">  7  8 -1 -1</clus>
<clus scale="   53.714">  7 10 -1 -1</clus>
<clus scale="  237.513">  2  5  1 -1</clus>
<clus scale="   22.138">  1  5  2 -1</clus>
</clustering>
</event>
<event>
10    4  0.2565852E-005  0.1812124E+03  0.7546771E-02  0.1180140E+00
          4   -1    0    0  502    0 -0.00000000000E+00  0.00000000000E+00  0.48534913829E+02  0.48534913829E+02  0.00000000000E+00 0. -1.
         21   -1    0    0  503  502  0.00000000000E+00 -0.00000000000E+00 -0.85917561999E+03  0.85917561999E+03  0.00000000000E+00 0.  1.
         24    2    1    2    0    0  0.54546308959E+02  0.11925770510E+03 -0.41941486770E+03  0.44657165001E+03  0.79496586670E+02 0.  0.
         23    2    1    2    0    0 -0.73514489690E+02 -0.89185762826E+02 -0.17170353053E+03  0.22601550477E+03  0.90787804878E+02 0.  0.
        -11    1    3    3    0    0  0.22310684711E+02  0.11498874663E+03 -0.36330210494E+03  0.38171795603E+03  0.00000000000E+00 0.  1.
         12    1    3    3    0    0  0.32235624249E+02  0.42689584684E+01 -0.56112762765E+02  0.64853693975E+02  0.00000000000E+00 0. -1.
        -13    1    4    4    0    0 -0.33970126707E+02 -0.56037934499E+02 -0.16029094577E+03  0.17316872381E+03  0.00000000000E+00 0.  1.
         13    1    4    4    0    0 -0.39544362983E+02 -0.33147828327E+02 -0.11412584761E+02  0.52846780956E+02  0.00000000000E+00 0. -1.
         21    1    1    2  503  501 -0.66115758342E+01 -0.37889761695E+02 -0.19525654777E+03  0.19900870941E+03  0.00000000000E+00 0.  1.
          3    1    1    2  501    0  0.25579756565E+02  0.78178194205E+01 -0.24265760161E+02  0.36114669632E+02  0.00000000000E+00 0. -1.
<scales pt_clust_5="13000.00000" pt_clust_6="13000.00000" pt_clust_7="13000.00000" pt_clust_8="13000.00000" pt_clust_9="38.46228" pt_clust_10="13000.00000"></scales>
<clustering>
<clus scale="   38.462">  2  9  1 -1</clus>
<clus scale="   79.497">  5  6 -1 -1</clus>
<clus scale="   90.788">  7  8 -1 -1</clus>
<clus scale="   26.002">  7 10 -1 -1</clus>
<clus scale="  133.296">  1  5  2 -1</clus>
<clus scale="   38.462">  2  5  1 -1</clus>
</clustering>
</event>
<event>
10    4  0.2565852E-005  0.1441190E+03  0.7546771E-02  0.1223983E+00
          2   -1    0    0  502    0 -0.00000000000E+00  0.00000000000E+00  0.40642074498E+03  0.40642074498E+03  0.00000000000E+00 0. -1.
         21   -1    0    0  503  502  0.00000000000E+00 -0.00000000000E+00 -0.12871888807E+03  0.12871888807E+03  0.00000000000E+00 0.  1.
         24    2    1    2    0    0  0.49408830047E+02  0.12842414370E+02  0.33326332055E+03  0.34875297111E+03  0.89207813219E+02 0.  0.
         23    2    1    2    0    0 -0.50001723797E+01 -0.58430119257E+02 -0.37165490117E+02  0.11492072165E+03  0.91577388303E+02 0.  0.
        -13    1    3    3    0    0  0.61895397925E+02 -0.14858563859E+02  0.14938925418E+03  0.16238524092E+03  0.00000000000E+00 0.  1.
         14    1    3    3    0    0 -0.12486567877E+02  0.27700978229E+02  0.18387406637E+03  0.18636773018E+03  0.00000000000E+00 0. -1.
        -11    1    4    4    0    0 -0.95828901025E+01 -0.80354224510E+02 -0.12981701452E+02  0.81958268356E+02  0.00000000000E+00 0.  1.
         11    1    4    4    0    0  0.45827177228E+01  0.21924105253E+02 -0.24183788665E+02  0.32962453293E+02  0.00000000000E+00 0. -1.
         21    1    1    2  503  501 -0.14097744847E+02  0.27978107667E+02 -0.18553001377E+02  0.36410641006E+02  0.00000000000E+00 0.  1.
          1    1    1    2  501    0 -0.30310912820E+02  0.17609597219E+02  0.15702785428E+00  0.35055299285E+02  0.00000000000E+00 0. -1.
<scales pt_clust_5="13000.00000" pt_clust_6="13000.00000" pt_clust_7="13000.00000" pt_clust_8="13000.00000" pt_clust_9="31.32923" pt_clust_10="13000.00000"></scales>
<clustering>
<clus scale="   31.329">  2  9  1 -1</clus>
<clus scale="   89.208">  5  6 -1 -1</clus>
<clus scale="   91.577">  7  8 -1 -1</clus>
<clus scale="   39.688">  7 10 -1 -1</clus>
<clus scale="  102.559">  1  5  2 -1</clus>
<clus scale="   31.329">  2  5  1 -1</clus>
</clustering>
</event>
<event>
10    4  0.2565852E-005  0.7601717E+03  0.7546771E-02  0.1020431E+00
          2   -1    0    0  503    0 -0.00000000000E+00  0.00000000000E+00  0.20709947435E+04  0.20709947435E+04  0.00000000000E+00 0. -1.
         21   -1    0    0  501  502  0.00000000000E+00 -0.00000000000E+00 -0.11746773652E+03  0.11746773652E+03  0.00000000000E+00 0. -1.
         24    2    1    2    0    0 -0.79982697829E+02  0.79907068116E+01  0.34642512822E+03  0.36432640512E+03  0.79134547803E+02 0.  0.
         23    2    1    2    0    0  0.16183218015E+02  0.36709005181E+03  0.85802706358E+03  0.93791938502E+03  0.92007218623E+02 0.  0.
        -11    1    3    3    0    0 -0.30961296897E+02  0.14449126147E+02  0.34676431833E+02  0.48680941616E+02  0.00000000000E+00 0.  1.
         12    1    3    3    0    0 -0.49021400932E+02 -0.64584193351E+01  0.31174869639E+03  0.31564546351E+03  0.00000000000E+00 0. -1.
        -11    1    4    4    0    0 -0.79867156688E+01  0.16460197722E+03  0.27903718307E+03  0.32406688826E+03  0.00000000000E+00 0. -1.
         11    1    4    4    0    0  0.24169933684E+02  0.20248807459E+03  0.57898988051E+03  0.61385249676E+03  0.00000000000E+00 0.  1.
         21    1    1    2  503  502 -0.51384680116E+02 -0.69268018176E+01  0.10398972822E+02  0.52881987196E+02  0.00000000000E+00 0. -1.
          1    1    1    2  501    0  0.11518415993E+03 -0.36815395680E+03  0.73867584238E+03  0.83333470270E+03  0.00000000000E+00 0. -1.
<scales pt_clust_5="13000.00000" pt_clust_6="13000.00000" pt_clust_7="13000.00000" pt_clust_8="13000.00000" pt_clust_9="51.84945" pt_clust_10="13000.00000"></scales>
<clustering>
<clus scale="   51.849">  2  9  1 -1</clus>
<clus scale="   79.135">  5  6 -1 -1</clus>
<clus scale="   92.007">  7  8 -1 -1</clus>
<clus scale="  116.193">  1  5  2 -1</clus>
<clus scale="  371.546">  7 10 -1 -1</clus>
<clus scale="   51.849">  2  5  1 -1</clus>
</clustering>
</event>
<event>
10    4  0.2786945E-005  0.1238066E+04  0.7546771E-02  0.9637559E-01
         21   -1    0    0  501  502  0.00000000000E+00  0.00000000000E+00  0.89105958724E+03  0.89105958724E+03  0.00000000000E+00 0.  1.
          2   -1    0    0  503    0 -0.00000000000E+00 -0.00000000000E+00 -0.65519932394E+03  0.65519932394E+03  0.00000000000E+00 0. -1.
         24    2    1    2    0    0  0.11046379107E+03 -0.10288336614E+03  0.19592391332E+03  0.26033949738E+03  0.81260309600E+02 0.  0.
         23    2    1    2    0    0  0.32608595101E+03 -0.89689694741E+02  0.47523057557E+03  0.59047618554E+03  0.91878925457E+02 0.  0.
        -11    1    3    3    0    0  0.24585777043E+02  0.11000624670E+02  0.18430169321E+02  0.32636564113E+02  0.00000000000E+00 0.  1.
         12    1    3    3    0    0  0.85878014026E+02 -0.11388399081E+03  0.17749374400E+03  0.22770293326E+03  0.00000000000E+00 0. -1.
        -11    1    4    4    0    0  0.13135944819E+03  0.18759004039E+01  0.22407642140E+03  0.25974808230E+03  0.00000000000E+00 0. -1.
         11    1    4    4    0    0  0.19472650282E+03 -0.91565595145E+02  0.25115415417E+03  0.33072810324E+03  0.00000000000E+00 0.  1.
         21    1    1    2  503  502  0.69385274727E+01  0.47151968577E+02  0.11832146046E+02  0.49106526900E+02  0.00000000000E+00 0. -1.
          1    1    1    2  501    0 -0.44348826955E+03  0.14542109231E+03 -0.44712637165E+03  0.64633670137E+03  0.00000000000E+00 0. -1.
<scales pt_clust_5="13000.00000" pt_clust_6="13000.00000" pt_clust_7="13000.00000" pt_clust_8="13000.00000" pt_clust_9="47.65975" pt_clust_10="13000.00000"></scales>
<clustering>
<clus scale="   47.660">  1  9  2 -1</clus>
<clus scale="   81.260">  5  6 -1 -1</clus>
<clus scale="   91.879">  7  8 -1 -1</clus>
<clus scale="  165.483">  2  5  1 -1</clus>
<clus scale="  350.197">  7 10 -1 -1</clus>
<clus scale="   47.660">  1  5  2 -1</clus>
</clustering>
</event>
<event>
10    4  0.2565852E-005  0.1556832E+03  0.7546771E-02  0.1214455E+00
         21   -1    0    0  503  502  0.00000000000E+00  0.00000000000E+00  0.20971460891E+03  0.20971460891E+03  0.00000000000E+00 0. -1.
          2   -1    0    0  502    0 -0.00000000000E+00 -0.00000000000E+00 -0.22944870032E+03  0.22944870032E+03  0.00000000000E+00 0. -1.
         24    2    1    2    0    0  0.35546072923E+02 -0.40752002741E+02 -0.80554405190E+02  0.12661117055E+03  0.81345726899E+02 0.  0.
         23    2    1    2    0    0 -0.56343763733E+02 -0.48849990362E+01 -0.23078300041E+02  0.11177696404E+03  0.93610890557E+02 0.  0.
        -13    1    3    3    0    0  0.30640432430E+02  0.12984397439E+02 -0.48280165503E+01  0.33626483910E+02  0.00000000000E+00 0.  1.
         14    1    3    3    0    0  0.49056404930E+01 -0.53736400180E+02 -0.75726388640E+02  0.92984686639E+02  0.00000000000E+00 0. -1.
        -11    1    4    4    0    0  0.13847500658E+02 -0.31379439874E+02 -0.87221789006E+01  0.35390661566E+02  0.00000000000E+00 0.  1.
         11    1    4    4    0    0 -0.70191264390E+02  0.26494440838E+02 -0.14356121141E+02  0.76386302478E+02  0.00000000000E+00 0. -1.
         21    1    1    2  503  501  0.21503534902E+02  0.73768922820E+01  0.13501864255E+03  0.13691915275E+03  0.00000000000E+00 0. -1.
          1    1    1    2  501    0 -0.70584409142E+00  0.38260109495E+02 -0.51120028724E+02  0.63856021887E+02  0.00000000000E+00 0. -1.
<scales pt_clust_5="13000.00000" pt_clust_6="13000.00000" pt_clust_7="13000.00000" pt_clust_8="13000.00000" pt_clust_9="22.73369" pt_clust_10="13000.00000"></scales>
<clustering>
<clus scale="   22.734">  1  9  2 -1</clus>
<clus scale="   81.346">  5  6 -1 -1</clus>
<clus scale="   93.611">  7  8 -1 -1</clus>
<clus scale="   38.914">  7 10 -1 -1</clus>
<clus scale="   99.405">  2  5  1 -1</clus>
<clus scale="   22.734">  1  5  2 -1</clus>
</clustering>
</event>
<event>
10    4  0.2565852E-005  0.3550106E+03  0.7546771E-02  0.1087652E+00
         21   -1    0    0  501  502  0.00000000000E+00  0.00000000000E+00  0.81917291318E+02  0.81917291318E+02  0.00000000000E+00 0. -1.
          2   -1    0    0  503    0 -0.00000000000E+00 -0.00000000000E+00 -0.21323940657E+04  0.21323940657E+04  0.00000000000E+00 0. -1.
         24    2    1    2    0    0 -0.58114108259E+02 -0.14569183620E+03 -0.63445706599E+03  0.65841217592E+03  0.79796391597E+02 0.  0.
         23    2    1    2    0    0  0.11590502894E+02 -0.48656805171E+02 -0.16462169110E+03  0.19410866495E+03  0.89866835822E+02 0.  0.
        -11    1    3    3    0    0 -0.64882713939E+02 -0.10286458321E+03 -0.55212442909E+03  0.56536030481E+03  0.00000000000E+00 0.  1.
         12    1    3    3    0    0  0.67686056802E+01 -0.42827252983E+02 -0.82332636892E+02  0.93051871118E+02  0.00000000000E+00 0. -1.
        -11    1    4    4    0    0  0.40275176697E+02  0.63292236342E+01 -0.68585055489E+02  0.79787585289E+02  0.00000000000E+00 0.  1.
         11    1    4    4    0    0 -0.28684673803E+02 -0.54986028806E+02 -0.96036635612E+02  0.11432107966E+03  0.00000000000E+00 0. -1.
         21    1    1    2  503  502 -0.19970425310E+02  0.29723199621E+02  0.42610087080E+02  0.55658835810E+02  0.00000000000E+00 0. -1.
          1    1    1    2  501    0  0.66494030675E+02  0.16462544175E+03 -0.12940081044E+04  0.13061316804E+04  0.00000000000E+00 0. -1.
<scales pt_clust_5="13000.00000" pt_clust_6="13000.00000" pt_clust_7="13000.00000" pt_clust_8="13000.00000" pt_clust_9="35.80903" pt_clust_10="13000.00000"></scales>
<clustering>
<clus scale="   35.809">  1  9  2 -1</clus>
<clus scale="   79.796">  5  6 -1 -1</clus>
<clus scale="   89.867">  7  8 -1 -1</clus>
<clus scale="  169.781">  2  5  1 -1</clus>
<clus scale="   50.232">  7 10 -1 -1</clus>
<clus scale="   35.809">  1  5  2 -1</clus>
</clustering>
</event>
<event>
10    4  0.2565852E-005  0.4682761E+03  0.7546771E-02  0.1047093E+00
         21   -1    0    0  503  502  0.00000000000E+00  0.00000000000E+00  0.26973201164E+03  0.26973201164E+03  0.00000000000E+00 0. -1.
          4   -1    0    0  502    0 -0.00000000000E+00 -0.00000000000E+00 -0.56288472486E+03  0.56288472486E+03  0.00000000000E+00 0. -1.
         24    2    1    2    0    0  0.20345842267E+03 -0.53579856435E+02 -0.19897584087E+02  0.22489073263E+03  0.76901215843E+02 0.  0.
         23    2    1    2    0    0  0.10504014778E+03  0.86834278757E+02 -0.43334790024E+02  0.17023513992E+03  0.92349738619E+02 0.  0.
        -11    1    3    3    0    0  0.10255689357E+03 -0.35642092039E+02  0.27462541589E+02  0.11199315307E+03  0.00000000000E+00 0.  1.
         12    1    3    3    0    0  0.10090152910E+03 -0.17937764396E+02 -0.47360125676E+02  0.11289757956E+03  0.00000000000E+00 0. -1.
        -11    1    4    4    0    0  0.55524491320E+02  0.80441135401E+02  0.86906238605E+01  0.98128855818E+02  0.00000000000E+00 0. -1.
         11    1    4    4    0    0  0.49515656460E+02  0.63931433556E+01 -0.52025413885E+02  0.72106284099E+02  0.00000000000E+00 0.  1.
         21    1    1    2  503  501 -0.13138143925E+02 -0.60263837914E+02  0.86622854173E+00  0.61685422409E+02  0.00000000000E+00 0. -1.
          3    1    1    2  501    0 -0.29536042652E+03  0.27009415593E+02 -0.23078656765E+03  0.37580544155E+03  0.00000000000E+00 0. -1.
<scales pt_clust_5="13000.00000" pt_clust_6="13000.00000" pt_clust_7="13000.00000" pt_clust_8="13000.00000" pt_clust_9="61.67934" pt_clust_10="13000.00000"></scales>
<clustering>
<clus scale="   61.679">  1  9  2 -1</clus>
<clus scale="   76.901">  5  6 -1 -1</clus>
<clus scale="   92.350">  7  8 -1 -1</clus>
<clus scale="  226.629">  2  5  1 -1</clus>
<clus scale="  160.087">  7 10 -1 -1</clus>
<clus scale="   61.679">  1  5  2 -1</clus>
</clustering>
</event>
<event>
10    4  0.2565852E-005  0.2227739E+03  0.7546771E-02  0.1168265E+00
          2   -1    0    0  502    0 -0.00000000000E+00  0.00000000000E+00  0.10233152847E+04  0.10233152847E+04  0.00000000000E+00 0. -1.
         21   -1    0    0  503  502  0.00000000000E+00 -0.00000000000E+00 -0.52100941839E+02  0.52100941839E+02  0.00000000000E+00 0. -1.
         24    2    1    2    0    0 -0.19191782882E+02  0.41218319894E+02  0.10801733710E+03  0.14206712044E+03  0.80299733310E+02 0.  0.
         23    2    1    2    0    0  0.57363546222E+02  0.11029990994E+02  0.51260901120E+03  0.52417890503E+03  0.92646041314E+02 0.  0.
        -11    1    3    3    0    0 -0.47999249150E+02  0.27742200073E+02  0.89458790839E+02  0.10524463332E+03  0.00000000000E+00 0.  1.
         12    1    3    3    0    0  0.28807466268E+02  0.13476119821E+02  0.18558546262E+02  0.36822487118E+02  0.00000000000E+00 0. -1.
        -11    1    4    4    0    0  0.38942087525E+02  0.50714579283E+02  0.34967012422E+03  0.35546821307E+03  0.00000000000E+00 0. -1.
         11    1    4    4    0    0  0.18421458696E+02 -0.39684588289E+02  0.16293888698E+03  0.16871069195E+03  0.00000000000E+00 0.  1.
         21    1    1    2  503  501  0.52841846198E+02  0.12572977059E+02  0.16311990109E+02  0.56713503533E+02  0.00000000000E+00 0. -1.
          1    1    1    2  501    0 -0.91013609538E+02 -0.64821287947E+02  0.33427600441E+03  0.35245669751E+03  0.00000000000E+00 0. -1.
<scales pt_clust_5="13000.00000" pt_clust_6="13000.00000" pt_clust_7="13000.00000" pt_clust_8="13000.00000" pt_clust_9="54.31704" pt_clust_10="13000.00000"></scales>
<clustering>
<clus scale="   54.317">  2  9  1 -1</clus>
<clus scale="   80.300">  5  6 -1 -1</clus>
<clus scale="   92.646">  7  8 -1 -1</clus>
<clus scale="   93.949">  1  5  2 -1</clus>
<clus scale="   86.298">  7 10 -1 -1</clus>
<clus scale="   54.317">  2  5  1 -1</clus>
</clustering>
</event>
<event>
10    4  0.2565852E-005  0.3140612E+03  0.7546771E-02  0.1119289E+00
         21   -1    0    0  501  502  0.00000000000E+00  0.00000000000E+00  0.23635537548E+03  0.23635537548E+03  0.00000000000E+00 0.  1.
         -1   -1    0    0    0  501 -0.00000000000E+00 -0.00000000000E+00 -0.48975998232E+03  0.48975998232E+03  0.00000000000E+00 0.  1.
         24    2    1    2    0    0  0.73185971623E+02 -0.12274112225E+02 -0.28851993098E+03  0.30844148426E+03  0.79909688796E+02 0.  0.
         23    2    1    2    0    0 -0.75531240771E+02 -0.71460002957E+02 -0.15347790767E+03  0.20676794608E+03  0.91575187841E+02 0.  0.
        -11    1    3    3    0    0  0.72259107049E+02 -0.87865472788E+01 -0.29344353898E+03  0.30233705121E+03  0.00000000000E+00 0.  1.
         12    1    3    3    0    0  0.92686457438E+00 -0.34875649459E+01  0.49236079947E+01  0.61044330512E+01  0.00000000000E+00 0. -1.
        -13    1    4    4    0    0 -0.32097149867E+02 -0.86372013033E+02 -0.11043189599E+03  0.14382473820E+03  0.00000000000E+00 0.  1.
         13    1    4    4    0    0 -0.43434090904E+02  0.14912010077E+02 -0.43046011682E+02  0.62943207886E+02  0.00000000000E+00 0. -1.
         21    1    1    2  503  502 -0.88202663118E+01  0.21740040919E+02  0.96632350934E+02  0.99439618483E+02  0.00000000000E+00 0.  1.
         -2    1    1    2    0  503  0.11165535460E+02  0.61994074263E+02  0.91960880876E+02  0.11146630898E+03  0.00000000000E+00 0.  1.
<scales pt_clust_5="13000.00000" pt_clust_6="13000.00000" pt_clust_7="13000.00000" pt_clust_8="13000.00000" pt_clust_9="23.46117" pt_clust_10="13000.00000"></scales>
<clustering>
<clus scale="   23.461">  1  9  2 -1</clus>
<clus scale="   79.910">  5  6 -1 -1</clus>
<clus scale="   91.575">  7  8 -1 -1</clus>
<clus scale="   78.121">  7 10 -1 -1</clus>
<clus scale="  108.461">  2  5  1 -1</clus>
<clus scale="   23.461">  1  5  2 -1</clus>
</clustering>
</event>
<event>
10    4  0.2565852E-005  0.3076596E+03  0.7546771E-02  0.1090161E+00
         21   -1    0    0  503  502  0.00000000000E+00  0.00000000000E+00  0.35657848198E+03  0.35657848198E+03  0.00000000000E+00 0. -1.
          2   -1    0    0  502    0 -0.00000000000E+00 -0.00000000000E+00 -0.43651338312E+03  0.43651338312E+03  0.00000000000E+00 0. -1.
         24    2    1    2    0    0  0.98971552603E+02 -0.21832719482E+03 -0.26608019364E+03  0.36677729746E+03  0.79150390137E+02 0.  0.
         23    2    1    2    0    0 -0.34186353401E+02  0.10326202669E+02 -0.18123199941E+00  0.95823339550E+02  0.88919864693E+02 0.  0.
        -11    1    3    3    0    0 -0.82805724299E+01 -0.46325968632E+02 -0.72875376811E+02  0.86749546366E+02  0.00000000000E+00 0.  1.
         12    1    3    3    0    0  0.10725212503E+03 -0.17200122619E+03 -0.19320481683E+03  0.28002775109E+03  0.00000000000E+00 0. -1.
        -13    1    4    4    0    0  0.28680828686E+02 -0.77881243963E+00 -0.11640012947E+02  0.30962661131E+02  0.00000000000E+00 0.  1.
         13    1    4    4    0    0 -0.62867182087E+02  0.11105015109E+02  0.11458780948E+02  0.64860678419E+02  0.00000000000E+00 0. -1.
         21    1    1    2  503  501 -0.52614216696E+02  0.21423643521E+02  0.11882348998E+03  0.13170516342E+03  0.00000000000E+00 0. -1.
          1    1    1    2  501    0 -0.12170982505E+02  0.18657734863E+03  0.67503034523E+02  0.19878606467E+03  0.00000000000E+00 0. -1.
<scales pt_clust_5="13000.00000" pt_clust_6="13000.00000" pt_clust_7="13000.00000" pt_clust_8="13000.00000" pt_clust_9="56.80870" pt_clust_10="13000.00000"></scales>
<clustering>
<clus scale="   56.809">  1  9  2 -1</clus>
<clus scale="   79.150">  5  6 -1 -1</clus>
<clus scale="   88.920">  7  8 -1 -1</clus>
<clus scale="  203.389">  7 10 -1 -1</clus>
<clus scale="  244.084">  2  5  1 -1</clus>
<clus scale="   56.809">  1  5  2 -1</clus>
</clustering>
</event>
<event>
10    4  0.2565852E-005  0.3972169E+03  0.7546771E-02  0.1086024E+00
          2   -1    0    0  502    0 -0.00000000000E+00  0.00000000000E+00  0.88654342598E+03  0.88654342598E+03  0.00000000000E+00 0. -1.
         21   -1    0    0  503  502  0.00000000000E+00 -0.00000000000E+00 -0.87891973409E+02  0.87891973409E+02  0.00000000000E+00 0.  1.
         24    2    1    2    0    0 -0.10065612283E+03  0.16762427394E+02  0.28973977075E+03  0.31718385716E+03  0.79017912221E+02 0.  0.
         23    2    1    2    0    0 -0.10770926473E+03  0.94197339743E+02  0.16985063657E+03  0.23955957126E+03  0.89806040536E+02 0.  0.
        -11    1    3    3    0    0 -0.33746147705E+02  0.44339890882E+02  0.10708950592E+03  0.12071864266E+03  0.00000000000E+00 0.  1.
         12    1    3    3    0    0 -0.66909975123E+02 -0.27577463488E+02  0.18265026483E+03  0.19646521449E+03  0.00000000000E+00 0. -1.
        -13    1    4    4    0    0 -0.95891848898E+02  0.50681303640E+02  0.16017325235E+03  0.19344071958E+03  0.00000000000E+00 0.  1.
         13    1    4    4    0    0 -0.11817415827E+02  0.43516036103E+02  0.96773842226E+01  0.46118851681E+02  0.00000000000E+00 0. -1.
         21    1    1    2  503  501  0.21001705069E+02  0.74196114355E+01  0.29012401900E+02  0.36576518611E+02  0.00000000000E+00 0.  1.
          1    1    1    2  501    0  0.18736368248E+03 -0.11837937857E+03  0.31004864335E+03  0.38111545236E+03  0.00000000000E+00 0. -1.
<scales pt_clust_5="13000.00000" pt_clust_6="13000.00000" pt_clust_7="13000.00000" pt_clust_8="13000.00000" pt_clust_9="22.27380" pt_clust_10="13000.00000"></scales>
<clustering>
<clus scale="   22.274">  2  9  1 -1</clus>
<clus scale="   79.018">  5  6 -1 -1</clus>
<clus scale="   89.806">  7  8 -1 -1</clus>
<clus scale="  126.572">  1  5  2 -1</clus>
<clus scale="  169.971">  7 10 -1 -1</clus>
<clus scale="   22.274">  2  5  1 -1</clus>
</clustering>
</event>
<event>
10    4  0.2565852E-005  0.5391015E+03  0.7546771E-02  0.1038803E+00
          2   -1    0    0  502    0 -0.00000000000E+00  0.00000000000E+00  0.12318475090E+04  0.12318475090E+04  0.00000000000E+00 0. -1.
         21   -1    0    0  503  502  0.00000000000E+00 -0.00000000000E+00 -0.12571914003E+03  0.12571914003E+03  0.00000000000E+00 0. -1.
         24    2    1    2    0    0  0.88559704418E+02  0.15721023527E+03  0.33391300210E+03  0.38798544519E+03  0.80479397252E+02 0.  0.
         23    2    1    2    0    0 -0.10699338477E+02  0.15874989199E+03  0.51221930116E+03  0.54416603243E+03  0.91826218021E+02 0.  0.
        -11    1    3    3    0    0  0.65418925815E+02  0.51112976905E+02  0.19289642927E+03  0.21000286828E+03  0.00000000000E+00 0.  1.
         12    1    3    3    0    0  0.23140778603E+02  0.10609725836E+03  0.14101657284E+03  0.17798257690E+03  0.00000000000E+00 0. -1.
        -11    1    4    4    0    0 -0.34355425269E+02  0.14311610873E+03  0.47559169411E+03  0.49784533274E+03  0.00000000000E+00 0. -1.
         11    1    4    4    0    0  0.23656086792E+02  0.15633783257E+02  0.36627607045E+02  0.46320699683E+02  0.00000000000E+00 0.  1.
         21    1    1    2  503  501 -0.30230132965E+02 -0.28493623899E+02  0.13286345090E+02  0.43615072026E+02  0.00000000000E+00 0.  1.
          1    1    1    2  501    0 -0.47630232976E+02 -0.28746650336E+03  0.24670972061E+03  0.38180009938E+03  0.00000000000E+00 0. -1.
<scales pt_clust_5="13000.00000" pt_clust_6="13000.00000" pt_clust_7="13000.00000" pt_clust_8="13000.00000" pt_clust_9="41.54212" pt_clust_10="13000.00000"></scales>
<clustering>
<clus scale="   41.542">  2  9  1 -1</clus>
<clus scale="   80.479">  5  6 -1 -1</clus>
<clus scale="   91.826">  7  8 -1 -1</clus>
<clus scale="  188.779">  1  5  2 -1</clus>
<clus scale="  244.255">  7 10 -1 -1</clus>
<clus scale="   41.542">  2  5  1 -1</clus>
</clustering>
</event>
<event>
10    4  0.2565852E-005  0.3595241E+03  0.7546771E-02  0.1073353E+00
         21   -1    0    0  501  502  0.00000000000E+00  0.00000000000E+00  0.20428125405E+03  0.20428125405E+03  0.00000000000E+00 0.  1.
         -1   -1    0    0    0  501 -0.00000000000E+00 -0.00000000000E+00 -0.11840584590E+04  0.11840584590E+04  0.00000000000E+00 0.  1.
         24    2    1    2    0    0  0.65483306280E+02  0.18939229447E+03 -0.71897871476E+02  0.22878066008E+03  0.83748324751E+02 0.  0.
         23    2    1    2    0    0 -0.83885367010E+02 -0.25823269540E+03 -0.98222940434E+03  0.10234655517E+04  0.94795849483E+02 0.  0.
        -13    1    3    3    0    0  0.43921194193E+02  0.10601663400E+03  0.27869434309E+01  0.11478834887E+03  0.00000000000E+00 0.  1.
         14    1    3    3    0    0  0.21562112087E+02  0.83375660472E+02 -0.74684814906E+02  0.11399231121E+03  0.00000000000E+00 0. -1.
        -13    1    4    4    0    0  0.16813307410E+02 -0.88506959515E+02 -0.32330414961E+03  0.33562142712E+03  0.00000000000E+00 0. -1.
         13    1    4    4    0    0 -0.10069867442E+03 -0.16972573589E+03 -0.65892525473E+03  0.68784412462E+03  0.00000000000E+00 0.  1.
         21    1    1    2  503  502  0.56627840342E+01  0.34985879595E+02  0.89965538821E+02  0.96694762368E+02  0.00000000000E+00 0. -1.
         -2    1    1    2    0  503  0.12739276696E+02  0.33854521339E+02 -0.15615467980E+02  0.39398738889E+02  0.00000000000E+00 0.  1.
<scales pt_clust_5="13000.00000" pt_clust_6="13000.00000" pt_clust_7="13000.00000" pt_clust_8="13000.00000" pt_clust_9="35.44120" pt_clust_10="13000.00000"></scales>
<clustering>
<clus scale="   35.441">  1  9  2 -1</clus>
<clus scale="   83.748">  5  6 -1 -1</clus>
<clus scale="   94.796">  7  8 -1 -1</clus>
<clus scale="   39.902">  7 10 -1 -1</clus>
<clus scale="  240.193">  2  5  1 -1</clus>
<clus scale="   35.441">  1  5  2 -1</clus>
</clustering>
</event>
<event>
10    4  0.2565852E-005  0.2003425E+03  0.7546771E-02  0.1168482E+00
         21   -1    0    0  503  502  0.00000000000E+00  0.00000000000E+00  0.35175165631E+03  0.35175165631E+03  0.00000000000E+00 0. -1.
         -1   -1    0    0    0  501 -0.00000000000E+00 -0.00000000000E+00 -0.18053193390E+03  0.18053193390E+03  0.00000000000E+00 0.  1.
         24    2    1    2    0    0 -0.69069199603E+02  0.20506486873E+02  0.98289677574E+02  0.14578582913E+03  0.80009855149E+02 0.  0.
         23    2    1    2    0    0  0.32986478975E+02 -0.40328899677E+02 -0.10573920860E+03  0.14923286221E+03  0.91515785441E+02 0.  0.
        -11    1    3    3    0    0  0.13322638635E+02  0.20232831097E+02  0.31406655099E+02  0.39664066092E+02  0.00000000000E+00 0.  1.
         12    1    3    3    0    0 -0.82391838238E+02  0.27365577576E+00  0.66883022475E+02  0.10612176304E+03  0.00000000000E+00 0. -1.
        -11    1    4    4    0    0  0.32192706316E+01  0.27059005449E+02 -0.49667906488E+02  0.56652046867E+02  0.00000000000E+00 0. -1.
         11    1    4    4    0    0  0.29767208344E+02 -0.67387905126E+02 -0.56071302110E+02  0.92580815346E+02  0.00000000000E+00 0.  1.
         21    1    1    2  503  501 -0.28465446935E+02  0.48190245272E+02  0.15183855506E+03  0.16182561049E+03  0.00000000000E+00 0. -1.
         -2    1    1    2    0  502  0.64548167563E+02 -0.28367832469E+02  0.26830698370E+02  0.75439288370E+02  0.00000000000E+00 0.  1.
<scales pt_clust_5="13000.00000" pt_clust_6="13000.00000" pt_clust_7="13000.00000" pt_clust_8="13000.00000" pt_clust_9="55.96947" pt_clust_10="13000.00000"></scales>
<clustering>
<clus scale="   55.969">  1  9  2 -1</clus>
<clus scale="   80.010">  5  6 -1 -1</clus>
<clus scale="   91.516">  7  8 -1 -1</clus>
<clus scale="   59.207">  7 10 -1 -1</clus>
<clus scale="  128.530">  2  5  1 -1</clus>
<clus scale="   55.969">  1  5  2 -1</clus>
</clustering>
</event>
<event>
10    4  0.2565852E-005  0.2141010E+03  0.7546771E-02  0.1164167E+00
          2   -1    0    0  502    0 -0.00000000000E+00  0.00000000000E+00  0.11452971434E+04  0.11452971434E+04  0.00000000000E+00 0. -1.
         21   -1    0    0  503  502  0.00000000000E+00 -0.00000000000E+00 -0.35423274352E+02  0.35423274352E+02  0.00000000000E+00 0. -1.
         24    2    1    2    0    0  0.81107155707E+02 -0.55327222726E+02  0.36602521308E+03  0.38814740492E+03  0.83931394918E+02 0.  0.
         23    2    1    2    0    0  0.10488925202E+01 -0.39232463494E+02  0.22778048383E+03  0.24853787598E+03  0.91361045388E+02 0.  0.
        -13    1    3    3    0    0  0.37371011499E+02 -0.40181614347E+02  0.31295514749E+03  0.31772956893E+03  0.00000000000E+00 0.  1.
         14    1    3    3    0    0  0.43736144207E+02 -0.15145608378E+02  0.53070065584E+02  0.70417835982E+02  0.00000000000E+00 0. -1.
        -13    1    4    4    0    0 -0.10307931807E+02  0.24757183571E+02  0.11759517383E+03  0.12061424669E+03  0.00000000000E+00 0.  1.
         13    1    4    4    0    0  0.11356824327E+02 -0.63989647065E+02  0.11018531000E+03  0.12792362929E+03  0.00000000000E+00 0. -1.
         21    1    1    2  503  501 -0.51166410528E+02  0.33174258094E+01  0.64999662815E+02  0.82788664964E+02  0.00000000000E+00 0. -1.
          1    1    1    2  501    0 -0.30989637699E+02  0.91242260410E+02  0.45106850930E+03  0.46124647187E+03  0.00000000000E+00 0. -1.
<scales pt_clust_5="13000.00000" pt_clust_6="13000.00000" pt_clust_7="13000.00000" pt_clust_8="13000.00000" pt_clust_9="51.27384" pt_clust_10="13000.00000"></scales>
<clustering>
<clus scale="   51.274">  2  9  1 -1</clus>
<clus scale="   83.931">  5  6 -1 -1</clus>
<clus scale="   91.361">  7  8 -1 -1</clus>
<clus scale="  100.532">  7 10 -1 -1</clus>
<clus scale="  116.307">  1  5  2 -1</clus>
<clus scale="   51.274">  2  5  1 -1</clus>
</clustering>
</event>
<event>
10    4  0.2565852E-005  0.2101476E+03  0.7546771E-02  0.1165362E+00
         21   -1    0    0  503  502  0.00000000000E+00  0.00000000000E+00  0.27852560334E+03  0.27852560334E+03  0.00000000000E+00 0. -1.
          2   -1    0    0  502    0 -0.00000000000E+00 -0.00000000000E+00 -0.18456956198E+03  0.18456956198E+03  0.00000000000E+00 0. -1.
         24    2    1    2    0    0  0.24752419135E+02  0.65371171553E+02 -0.91082433869E+01  0.10821411418E+03  0.82105189154E+02 0.  0.
         23    2    1    2    0    0 -0.20736191438E+02 -0.38675763167E+02  0.10588203078E+03  0.14806360029E+03  0.93733777247E+02 0.  0.
        -11    1    3    3    0    0  0.11040447358E+02 -0.19100036555E+02  0.73099950993E+00  0.22073450898E+02  0.00000000000E+00 0.  1.
         12    1    3    3    0    0  0.13711971776E+02  0.84471208108E+02 -0.98392428969E+01  0.86140663278E+02  0.00000000000E+00 0. -1.
        -13    1    4    4    0    0  0.33440852040E+02 -0.20521054541E+01  0.16590369727E+02  0.37386389096E+02  0.00000000000E+00 0.  1.
         13    1    4    4    0    0 -0.54177043478E+02 -0.36623657713E+02  0.89291661049E+02  0.11067721119E+03  0.00000000000E+00 0. -1.
         21    1    1    2  503  501 -0.16806719148E+02  0.88695311182E+02  0.53581785292E+01  0.90432483718E+02  0.00000000000E+00 0. -1.
          1    1    1    2  501    0  0.12790491452E+02 -0.11539071957E+03 -0.81759245601E+01  0.11638496714E+03  0.00000000000E+00 0. -1.
<scales pt_clust_5="13000.00000" pt_clust_6="13000.00000" pt_clust_7="13000.00000" pt_clust_8="13000.00000" pt_clust_9="90.27365" pt_clust_10="13000.00000"></scales>
<clustering>
<clus scale="   82.105">  5  6 -1 -1</clus>
<clus scale="   90.274">  1  9  2 -1</clus>
<clus scale="   93.734">  7  8 -1 -1</clus>
<clus scale="   94.996">  7 10 -1 -1</clus>
<clus scale="  119.651">  2  5  1 -1</clus>
<clus scale="   90.274">  1  5  2 -1</clus>
</clustering>
</event>
<event>
10    4  0.2565852E-005  0.3772319E+03  0.7546771E-02  0.1062080E+00
          2   -1    0    0  503    0 -0.00000000000E+00  0.00000000000E+00  0.76700947974E+03  0.76700947974E+03  0.00000000000E+00 0. -1.
         21   -1    0    0  501  502  0.00000000000E+00 -0.00000000000E+00 -0.19437676863E+03  0.19437676863E+03  0.00000000000E+00 0. -1.
         24    2    1    2    0    0 -0.12607346843E+03 -0.23670364502E+03  0.69240584551E+02  0.28824640017E+03  0.79803468906E+02 0.  0.
         23    2    1    2    0    0  0.49294205884E+01  0.21338071075E+02  0.35593339944E+02  0.10106618211E+03  0.92021056577E+02 0.  0.
        -13    1    3    3    0    0 -0.72984107288E+02 -0.18214572020E+03  0.19230645416E+02  0.19716379239E+03  0.00000000000E+00 0.  1.
         14    1    3    3    0    0 -0.53089361146E+02 -0.54557924818E+02  0.50009939136E+02  0.91082607778E+02  0.00000000000E+00 0. -1.
        -13    1    4    4    0    0 -0.36594103209E+02 -0.14840992569E+02  0.16084307745E+02  0.42639047900E+02  0.00000000000E+00 0.  1.
         13    1    4    4    0    0  0.41523523798E+02  0.36179063645E+02  0.19509032199E+02  0.58427134211E+02  0.00000000000E+00 0. -1.
         21    1    1    2  503  502  0.51428208069E+02 -0.30311309679E+02  0.34036231727E+02  0.68717546157E+02  0.00000000000E+00 0. -1.
          1    1    1    2  501    0  0.69715839776E+02  0.24567688363E+03  0.43376255488E+03  0.50335611994E+03  0.00000000000E+00 0. -1.
<scales pt_clust_5="13000.00000" pt_clust_6="13000.00000" pt_clust_7="13000.00000" pt_clust_8="13000.00000" pt_clust_9="59.69620" pt_clust_10="13000.00000"></scales>
<clustering>
<clus scale="   59.696">  2  9  1 -1</clus>
<clus scale="   79.803">  5  6 -1 -1</clus>
<clus scale="   92.021">  7  8 -1 -1</clus>
<clus scale="  252.660">  7 10 -1 -1</clus>
<clus scale="  283.743">  1  5  2 -1</clus>
<clus scale="   59.696">  2  5  1 -1</clus>
</clustering>
</event>
<event>
10    4  0.2565852E-005  0.2715070E+03  0.7546771E-02  0.1131546E+00
          4   -1    0    0  502    0 -0.00000000000E+00  0.00000000000E+00  0.82066528597E+03  0.82066528597E+03  0.00000000000E+00 0. -1.
         21   -1    0    0  503  502  0.00000000000E+00 -0.00000000000E+00 -0.15901905281E+03  0.15901905281E+03  0.00000000000E+00 0. -1.
         24    2    1    2    0    0  0.46670187372E+02  0.83257059286E+02  0.64449710086E+03  0.65642818305E+03  0.80072480732E+02 0.  0.
         23    2    1    2    0    0  0.87977956427E+02  0.10413383365E+02  0.41310189426E+02  0.13235442061E+03  0.89233410423E+02 0.  0.
        -13    1    3    3    0    0  0.11682142515E+01  0.29496809292E+02  0.52287328664E+02  0.60044910041E+02  0.00000000000E+00 0.  1.
         14    1    3    3    0    0  0.45501973121E+02  0.53760249994E+02  0.59220977220E+03  0.59638327301E+03  0.00000000000E+00 0. -1.
        -13    1    4    4    0    0  0.52715484584E+02  0.41530993002E+02  0.51059042872E+02  0.84325390919E+02  0.00000000000E+00 0.  1.
         13    1    4    4    0    0  0.35262471843E+02 -0.31117609637E+02 -0.97488534458E+01  0.48029029696E+02  0.00000000000E+00 0. -1.
         21    1    1    2  503  501 -0.26832584604E+02 -0.39985494851E+01 -0.41521414291E+02  0.49598425774E+02  0.00000000000E+00 0. -1.
          3    1    1    2  501    0 -0.10781555919E+03 -0.89671893166E+02  0.17360357156E+02  0.14130330934E+03  0.00000000000E+00 0. -1.
<scales pt_clust_5="13000.00000" pt_clust_6="13000.00000" pt_clust_7="13000.00000" pt_clust_8="13000.00000" pt_clust_9="27.12888" pt_clust_10="13000.00000"></scales>
<clustering>
<clus scale="   27.129">  2  9  1 -1</clus>
<clus scale="   80.072">  5  6 -1 -1</clus>
<clus scale="   89.233">  7  8 -1 -1</clus>
<clus scale="  123.923">  1  5  2 -1</clus>
<clus scale="  108.292">  7 10 -1 -1</clus>
<clus scale="   27.129">  2  5  1 -1</clus>
</clustering>
</event>
<event>
10    4  0.2565852E-005  0.2074789E+03  0.7546771E-02  0.1182689E+00
         -1   -1    0    0    0  501 -0.00000000000E+00  0.00000000000E+00  0.14453517217E+03  0.14453517217E+03  0.00000000000E+00 0.  1.
         21   -1    0    0  503  502  0.00000000000E+00 -0.00000000000E+00 -0.54711674794E+03  0.54711674794E+03  0.00000000000E+00 0.  1.
         24    2    1    2    0    0  0.11156578895E+01  0.61179395310E+00  0.91821129565E+02  0.12435670891E+03  0.83856140095E+02 0.  0.
         23    2    1    2    0    0  0.26210600187E+02 -0.30079012928E+02 -0.24543897892E+03  0.27450519359E+03  0.11628012021E+03 0.  0.
        -11    1    3    3    0    0 -0.14544900465E+02 -0.37097310985E+02  0.62369512414E+02  0.74011625375E+02  0.00000000000E+00 0.  1.
         12    1    3    3    0    0  0.15660558354E+02  0.37709104938E+02  0.29451617151E+02  0.50345083534E+02  0.00000000000E+00 0. -1.
        -11    1    4    4    0    0 -0.15316769358E+02 -0.60759190952E+02 -0.18330502989E+03  0.19371891155E+03  0.00000000000E+00 0.  1.
         11    1    4    4    0    0  0.41527369544E+02  0.30680178024E+02 -0.62133949023E+02  0.80786282041E+02  0.00000000000E+00 0. -1.
         21    1    1    2  503  501 -0.10527562326E+02 -0.60988758506E+02 -0.10739810103E+03  0.12395487218E+03  0.00000000000E+00 0. -1.
         -2    1    1    2    0  502 -0.16798695751E+02  0.90455977480E+02 -0.14156562538E+03  0.16883514542E+03  0.00000000000E+00 0.  1.
<scales pt_clust_5="13000.00000" pt_clust_6="13000.00000" pt_clust_7="13000.00000" pt_clust_8="13000.00000" pt_clust_9="61.89070" pt_clust_10="13000.00000"></scales>
<clustering>
<clus scale="   61.891">  2  9  1 -1</clus>
<clus scale="   83.856">  5  6 -1 -1</clus>
<clus scale="   83.876">  1  5  2 -1</clus>
<clus scale="  116.280">  7  8 -1 -1</clus>
<clus scale="   70.936">  7 10 -1 -1</clus>
<clus scale="   61.891">  2  5  1 -1</clus>
</clustering>
</event>
<event>
10    4  0.2565852E-005  0.1067137E+04  0.7546771E-02  0.9484786E-01
         21   -1    0    0  503  502  0.00000000000E+00  0.00000000000E+00  0.84916341813E+03  0.84916341813E+03  0.00000000000E+00 0. -1.
          2   -1    0    0  502    0 -0.00000000000E+00 -0.00000000000E+00 -0.15462220067E+04  0.15462220067E+04  0.00000000000E+00 0. -1.
         24    2    1    2    0    0  0.43057839635E+03 -0.54376911357E+01 -0.10162369435E+04  0.11066551581E+04  0.80751406218E+02 0.  0.
         23    2    1    2    0    0 -0.38342458237E+02  0.20542214172E+03 -0.35086036410E+03  0.41865699124E+03  0.92207813150E+02 0.  0.
        -11    1    3    3    0    0  0.56125843746E+02  0.22577129804E+02 -0.10674224331E+03  0.12269369842E+03  0.00000000000E+00 0.  1.
         12    1    3    3    0    0  0.37445255260E+03 -0.28014820940E+02 -0.90949470022E+03  0.98396145964E+03  0.00000000000E+00 0. -1.
        -11    1    4    4    0    0 -0.57520318332E+02  0.16961447451E+03 -0.23227477670E+03  0.29330739656E+03  0.00000000000E+00 0. -1.
         11    1    4    4    0    0  0.19177860094E+02  0.35807667218E+02 -0.11858558740E+03  0.12534959469E+03  0.00000000000E+00 0.  1.
         21    1    1    2  503  501 -0.12748029277E+01  0.51604165929E+02  0.20914220175E+03  0.21541837344E+03  0.00000000000E+00 0. -1.
          1    1    1    2  501    0 -0.39096113518E+03 -0.25158861652E+03  0.46089651729E+03  0.65465490209E+03  0.00000000000E+00 0. -1.
<scales pt_clust_5="13000.00000" pt_clust_6="13000.00000" pt_clust_7="13000.00000" pt_clust_8="13000.00000" pt_clust_9="51.61991" pt_clust_10="13000.00000"></scales>
<clustering>
<clus scale="   51.620">  1  9  2 -1</clus>
<clus scale="   80.751">  5  6 -1 -1</clus>
<clus scale="   92.208">  7  8 -1 -1</clus>
<clus scale="  438.000">  2  5  1 -1</clus>
<clus scale="  373.885">  7 10 -1 -1</clus>
<clus scale="   51.620">  1  5  2 -1</clus>
</clustering>
</event>
<event>
10    4  0.2565852E-005  0.2850516E+03  0.7546771E-02  0.1119526E+00
         21   -1    0    0  503  502  0.00000000000E+00  0.00000000000E+00  0.17933490471E+03  0.17933490471E+03  0.00000000000E+00 0.  1.
          2   -1    0    0  502    0 -0.00000000000E+00 -0.00000000000E+00 -0.56051036423E+03  0.56051036423E+03  0.00000000000E+00 0. -1.
         24    2    1    2    0    0  0.12189328043E+03 -0.83858722908E+02 -0.28957839351E+02  0.16973094210E+03  0.77972937779E+02 0.  0.
         23    2    1    2    0    0  0.27881541440E+02  0.69001308710E+02 -0.80463676459E+02  0.14225637514E+03  0.90685787646E+02 0.  0.
        -13    1    3    3    0    0  0.52461510510E+02 -0.81505306755E+02 -0.84577648277E+01  0.97297784661E+02  0.00000000000E+00 0.  1.
         14    1    3    3    0    0  0.69431769916E+02 -0.23534161536E+01 -0.20500074523E+02  0.72433157440E+02  0.00000000000E+00 0. -1.
        -13    1    4    4    0    0  0.40131702058E+02 -0.64101093318E+01 -0.23376112160E+02  0.46883745919E+02  0.00000000000E+00 0. -1.
         13    1    4    4    0    0 -0.12250160618E+02  0.75411418041E+02 -0.57087564299E+02  0.95372629217E+02  0.00000000000E+00 0.  1.
         21    1    1    2  503  501 -0.24286902374E+02  0.42491352929E+02  0.56855496124E+02  0.75019438416E+02  0.00000000000E+00 0. -1.
          1    1    1    2  501    0 -0.12548791949E+03 -0.27633938731E+02 -0.32860943983E+03  0.35283851328E+03  0.00000000000E+00 0. -1.
<scales pt_clust_5="13000.00000" pt_clust_6="13000.00000" pt_clust_7="13000.00000" pt_clust_8="13000.00000" pt_clust_9="48.94250" pt_clust_10="13000.00000"></scales>
<clustering>
<clus scale="   48.943">  1  9  2 -1</clus>
<clus scale="   77.973">  5  6 -1 -1</clus>
<clus scale="   90.686">  7  8 -1 -1</clus>
<clus scale="  130.148">  7 10 -1 -1</clus>
<clus scale="  144.202">  2  5  1 -1</clus>
<clus scale="   48.943">  1  5  2 -1</clus>
</clustering>
</event>
<event>
10    4  0.2565852E-005  0.1724346E+03  0.7546771E-02  0.1206209E+00
         21   -1    0    0  503  502  0.00000000000E+00  0.00000000000E+00  0.45841169204E+03  0.45841169204E+03  0.00000000000E+00 0.  1.
          4   -1    0    0  502    0 -0.00000000000E+00 -0.00000000000E+00 -0.31226863146E+03  0.31226863146E+03  0.00000000000E+00 0. -1.
         24    2    1    2    0    0  0.31724590297E+02 -0.11061532115E+02 -0.21560169137E+03  0.23258111030E+03  0.80505132905E+02 0.  0.
         23    2    1    2    0    0 -0.33689056498E+02 -0.39574181598E+02 -0.17296546240E+02  0.10647917042E+03  0.91310321677E+02 0.  0.
        -11    1    3    3    0    0 -0.51198099551E+01  0.29749819046E+02 -0.53769690953E+02  0.61663959104E+02  0.00000000000E+00 0.  1.
         12    1    3    3    0    0  0.36844400252E+02 -0.40811351160E+02 -0.16183200042E+03  0.17091715120E+03  0.00000000000E+00 0. -1.
        -11    1    4    4    0    0 -0.13089252146E+01 -0.51837521616E+02 -0.39641100390E+02  0.65270657823E+02  0.00000000000E+00 0. -1.
         11    1    4    4    0    0 -0.32380131284E+02  0.12263340018E+02  0.22344554150E+02  0.41208512598E+02  0.00000000000E+00 0.  1.
         21    1    1    2  503  501  0.43179718392E+02  0.97431647909E+02  0.34391603300E+03  0.36004951305E+03  0.00000000000E+00 0.  1.
          3    1    1    2  501    0 -0.41215252190E+02 -0.46795934197E+02  0.35125265193E+02  0.71570529726E+02  0.00000000000E+00 0. -1.
<scales pt_clust_5="13000.00000" pt_clust_6="13000.00000" pt_clust_7="13000.00000" pt_clust_8="13000.00000" pt_clust_9="106.86584" pt_clust_10="13000.00000"></scales>
<clustering>
<clus scale="   80.505">  5  6 -1 -1</clus>
<clus scale="   87.235">  2  5  1 -1</clus>
<clus scale="   91.310">  7  8 -1 -1</clus>
<clus scale="   60.086">  7 10 -1 -1</clus>
<clus scale="  106.866">  1  9  2 -1</clus>
<clus scale="  106.866">  1  5  2 -1</clus>
</clustering>
</event>
<event>
10    4  0.2565852E-005  0.2864010E+03  0.7546771E-02  0.1131550E+00
         21   -1    0    0  501  502  0.00000000000E+00  0.00000000000E+00  0.75119752158E+03  0.75119752158E+03  0.00000000000E+00 0. -1.
          2   -1    0    0  503    0 -0.00000000000E+00 -0.00000000000E+00 -0.11854394177E+03  0.11854394177E+03  0.00000000000E+00 0. -1.
         24    2    1    2    0    0 -0.30461630543E+02  0.53125416062E+02 -0.63147174320E+01  0.10150860321E+03  0.80708736226E+02 0.  0.
         23    2    1    2    0    0  0.36847163613E+02  0.24767917443E+02  0.25475324079E+03  0.27987648327E+03  0.10705358002E+03 0.  0.
        -13    1    3    3    0    0  0.11298027636E+02  0.56483659758E+02 -0.13086556187E+02  0.59070358057E+02  0.00000000000E+00 0.  1.
         14    1    3    3    0    0 -0.41759658178E+02 -0.33582436962E+01  0.67718387553E+01  0.42438245157E+02  0.00000000000E+00 0. -1.
        -11    1    4    4    0    0  0.28937358109E+02 -0.40654522793E+02  0.11540580551E+03  0.12573249725E+03  0.00000000000E+00 0.  1.
         11    1    4    4    0    0  0.79098055043E+01  0.65422440235E+02  0.13934743528E+03  0.15414398602E+03  0.00000000000E+00 0. -1.
         21    1    1    2  503  502  0.26709723808E+02  0.91645229365E+02  0.25604536568E+03  0.27326084004E+03  0.00000000000E+00 0. -1.
          1    1    1    2  501    0 -0.33095256879E+02 -0.16953856287E+03  0.12816969077E+03  0.21509553682E+03  0.00000000000E+00 0. -1.
<scales pt_clust_5="13000.00000" pt_clust_6="13000.00000" pt_clust_7="13000.00000" pt_clust_8="13000.00000" pt_clust_9="95.45814" pt_clust_10="13000.00000"></scales>
<clustering>
<clus scale="   80.709">  5  6 -1 -1</clus>
<clus scale="   95.458">  1  9  2 -1</clus>
<clus scale="  105.569">  2  5  1 -1</clus>
<clus scale="  107.054">  7  8 -1 -1</clus>
<clus scale="  110.700">  7 10 -1 -1</clus>
<clus scale="   95.458">  1  5  2 -1</clus>
</clustering>
</event>
<event>
10    4  0.2565852E-005  0.2415460E+03  0.7546771E-02  0.1148127E+00
         21   -1    0    0  501  502  0.00000000000E+00  0.00000000000E+00  0.98591100423E+02  0.98591100423E+02  0.00000000000E+00 0.  1.
         -1   -1    0    0    0  501 -0.00000000000E+00 -0.00000000000E+00 -0.42635827922E+03  0.42635827922E+03  0.00000000000E+00 0.  1.
         24    2    1    2    0    0 -0.69837008567E+02  0.31534345497E+02 -0.62971048112E+02  0.12742221314E+03  0.79996529854E+02 0.  0.
         23    2    1    2    0    0 -0.12533903585E+02 -0.10684695700E+03 -0.87487566367E+02  0.16577220441E+03  0.90845905396E+02 0.  0.
        -11    1    3    3    0    0 -0.74535129732E+02  0.50188273587E+02 -0.59772282880E+02  0.10792161123E+03  0.00000000000E+00 0.  1.
         12    1    3    3    0    0  0.46981211650E+01 -0.18653928090E+02 -0.31987652315E+01  0.19500601906E+02  0.00000000000E+00 0. -1.
        -13    1    4    4    0    0 -0.22255041447E+02 -0.77014270377E+00  0.70418051455E+01  0.23355235158E+02  0.00000000000E+00 0. -1.
         13    1    4    4    0    0  0.97211378612E+01 -0.10607681430E+03 -0.94529371512E+02  0.14241696926E+03  0.00000000000E+00 0.  1.
         21    1    1    2  503  502 -0.62829912637E+01  0.42912064085E+02 -0.18795395947E+02  0.47267199326E+02  0.00000000000E+00 0.  1.
         -2    1    1    2    0  503  0.88653903416E+02  0.32400547423E+02 -0.15851316838E+03  0.18448776277E+03  0.00000000000E+00 0.  1.
<scales pt_clust_5="13000.00000" pt_clust_6="13000.00000" pt_clust_7="13000.00000" pt_clust_8="13000.00000" pt_clust_9="43.36959" pt_clust_10="13000.00000"></scales>
<clustering>
<clus scale="   43.370">  1  9  2 -1</clus>
<clus scale="   79.997">  5  6 -1 -1</clus>
<clus scale="   90.846">  7  8 -1 -1</clus>
<clus scale="   95.971">  7 10 -1 -1</clus>
<clus scale="  117.961">  2  5  1 -1</clus>
<clus scale="   43.370">  1  5  2 -1</clus>
</clustering>
</event>
<event>
10    4  0.2565852E-005  0.2427023E+03  0.7546771E-02  0.1145216E+00
         21   -1    0    0  501  502  0.00000000000E+00  0.00000000000E+00  0.14902307613E+03  0.14902307613E+03  0.00000000000E+00 0. -1.
          2   -1    0    0  503    0 -0.00000000000E+00 -0.00000000000E+00 -0.12674091756E+04  0.12674091756E+04  0.00000000000E+00 0. -1.
         24    2    1    2    0    0  0.54317238798E+02  0.76204822762E+02 -0.10970638067E+04  0.11041170607E+04  0.82267553057E+02 0.  0.
         23    2    1    2    0    0 -0.55883433471E+02 -0.72730171782E+02 -0.82243844159E+02  0.15451081812E+03  0.93257208785E+02 0.  0.
        -13    1    3    3    0    0 -0.13286684376E+01  0.55891312568E+02 -0.32409604249E+03  0.32888272824E+03  0.00000000000E+00 0.  1.
         14    1    3    3    0    0  0.55645907235E+02  0.20313510194E+02 -0.77296776420E+03  0.77523433243E+03  0.00000000000E+00 0. -1.
        -13    1    4    4    0    0 -0.77883273575E+02 -0.35264629212E+02 -0.41855821012E+02  0.95190903603E+02  0.00000000000E+00 0. -1.
         13    1    4    4    0    0  0.21999840104E+02 -0.37465542570E+02 -0.40388023147E+02  0.59319914518E+02  0.00000000000E+00 0.  1.
         21    1    1    2  503  502  0.49254265826E+02 -0.33655970090E+02 -0.16594565910E+02  0.61920001958E+02  0.00000000000E+00 0. -1.
          1    1    1    2  501    0 -0.47688071153E+02  0.30181319111E+02  0.77516117306E+02  0.95884370967E+02  0.00000000000E+00 0. -1.
<scales pt_clust_5="13000.00000" pt_clust_6="13000.00000" pt_clust_7="13000.00000" pt_clust_8="13000.00000" pt_clust_9="59.65490" pt_clust_10="13000.00000"></scales>
<clustering>
<clus scale="   59.655">  1  9  2 -1</clus>
<clus scale="   82.268">  5  6 -1 -1</clus>
<clus scale="   93.257">  7  8 -1 -1</clus>
<clus scale="   15.597">  7 10 -1 -1</clus>
<clus scale="  124.637">  2  5  1 -1</clus>
<clus scale="   59.655">  1  5  2 -1</clus>
</clustering>
</event>
<event>
10    4  0.2565852E-005  0.3645747E+03  0.7546771E-02  0.1069352E+00
         21   -1    0    0  501  502  0.00000000000E+00  0.00000000000E+00  0.67940541682E+03  0.67940541682E+03  0.00000000000E+00 0.  1.
         -1   -1    0    0    0  501 -0.00000000000E+00 -0.00000000000E+00 -0.23490523613E+03  0.23490523613E+03  0.00000000000E+00 0.  1.
         24    2    1    2    0    0  0.10055026225E+03 -0.25130138272E+03  0.36589372925E+03  0.46254128508E+03  0.82483204964E+02 0.  0.
         23    2    1    2    0    0 -0.19210781946E+02  0.25327263896E+02  0.90108968792E+02  0.13299445328E+03  0.92506074980E+02 0.  0.
        -13    1    3    3    0    0  0.60543465334E+02 -0.22950368169E+03  0.30390087955E+03  0.38560756696E+03  0.00000000000E+00 0.  1.
         14    1    3    3    0    0  0.40006796917E+02 -0.21797701029E+02  0.61992849697E+02  0.76933718117E+02  0.00000000000E+00 0. -1.
        -11    1    4    4    0    0  0.25043591183E+02 -0.57218800063E+00 -0.44360275540E+01  0.25439874192E+02  0.00000000000E+00 0. -1.
         11    1    4    4    0    0 -0.44254373130E+02  0.25899451896E+02  0.94544996346E+02  0.10755457909E+03  0.00000000000E+00 0.  1.
         21    1    1    2  503  502 -0.25386107863E+02  0.31813647130E+02  0.85456622673E+02  0.94654091167E+02  0.00000000000E+00 0. -1.
         -2    1    1    2    0  503 -0.55953372441E+02  0.19416047170E+03 -0.96959140015E+02  0.22412082342E+03  0.00000000000E+00 0.  1.
<scales pt_clust_5="13000.00000" pt_clust_6="13000.00000" pt_clust_7="13000.00000" pt_clust_8="13000.00000" pt_clust_9="40.70089" pt_clust_10="13000.00000"></scales>
<clustering>
<clus scale="   40.701">  1  9  2 -1</clus>
<clus scale="   82.483">  5  6 -1 -1</clus>
<clus scale="   92.506">  7  8 -1 -1</clus>
<clus scale="  206.125">  7 10 -1 -1</clus>
<clus scale="  257.018">  2  5  1 -1</clus>
<clus scale="   40.701">  1  5  2 -1</clus>
</clustering>
</event>
<event>
10    4  0.2565852E-005  0.3042371E+03  0.7546771E-02  0.1125929E+00
          2   -1    0    0  503    0 -0.00000000000E+00  0.00000000000E+00  0.11789759944E+04  0.11789759944E+04  0.00000000000E+00 0. -1.
         21   -1    0    0  501  502  0.00000000000E+00 -0.00000000000E+00 -0.16415572942E+03  0.16415572942E+03  0.00000000000E+00 0. -1.
         24    2    1    2    0    0 -0.92654979803E+01  0.47843931243E+02  0.13768607676E+03  0.16677115233E+03  0.80500126127E+02 0.  0.
         23    2    1    2    0    0  0.37555294256E+02 -0.53854316618E+02  0.12543139204E+03  0.16755773469E+03  0.89620716362E+02 0.  0.
        -13    1    3    3    0    0  0.58959337236E+01  0.68276997736E+02  0.10417439806E+03  0.12469489030E+03  0.00000000000E+00 0.  1.
         14    1    3    3    0    0 -0.15161431704E+02 -0.20433066493E+02  0.33511678697E+02  0.42076262034E+02  0.00000000000E+00 0. -1.
        -11    1    4    4    0    0  0.56735879866E+02 -0.40082099283E+02  0.12606404158E+03  0.14393636555E+03  0.00000000000E+00 0.  1.
         11    1    4    4    0    0 -0.19180585611E+02 -0.13772217335E+02 -0.63264954607E+00  0.23621369142E+02  0.00000000000E+00 0. -1.
         21    1    1    2  503  502  0.78521874807E+02  0.26894612499E+02 -0.11136911010E+03  0.13889594555E+03  0.00000000000E+00 0. -1.
          1    1    1    2  501    0 -0.10681167108E+03 -0.20884227124E+02  0.86307190624E+03  0.86990689120E+03  0.00000000000E+00 0. -1.
<scales pt_clust_5="13000.00000" pt_clust_6="13000.00000" pt_clust_7="13000.00000" pt_clust_8="13000.00000" pt_clust_9="83.00003" pt_clust_10="13000.00000"></scales>
<clustering>
<clus scale="   80.500">  5  6 -1 -1</clus>
<clus scale="   83.000">  2  9  1 -1</clus>
<clus scale="   89.621">  7  8 -1 -1</clus>
<clus scale="  101.137">  1  5  2 -1</clus>
<clus scale="   88.444">  7 10 -1 -1</clus>
<clus scale="   83.000">  2  5  1 -1</clus>
</clustering>
</event>
<event>
10    4  0.2565852E-005  0.4781805E+03  0.7546771E-02  0.1042338E+00
         21   -1    0    0  501  502  0.00000000000E+00  0.00000000000E+00  0.73959285216E+03  0.73959285216E+03  0.00000000000E+00 0. -1.
          2   -1    0    0  503    0 -0.00000000000E+00 -0.00000000000E+00 -0.62082838579E+03  0.62082838579E+03  0.00000000000E+00 0. -1.
         24    2    1    2    0    0  0.20454028686E+03  0.11583569342E+03  0.15567611982E+03  0.28951561584E+03  0.65799701472E+02 0.  0.
         23    2    1    2    0    0  0.20974514385E+03 -0.12298731425E+03 -0.28598485928E+03  0.38516400543E+03  0.86284798810E+02 0.  0.
        -11    1    3    3    0    0  0.10622032682E+03  0.67364031294E+02  0.44590071327E+02  0.13345015925E+03  0.00000000000E+00 0.  1.
         12    1    3    3    0    0  0.98319960042E+02  0.48471662121E+02  0.11108604850E+03  0.15606545659E+03  0.00000000000E+00 0. -1.
        -13    1    4    4    0    0  0.22149427606E+02 -0.53510435100E+02 -0.67007001310E+02  0.88565806226E+02  0.00000000000E+00 0.  1.
         13    1    4    4    0    0  0.18759571624E+03 -0.69476879148E+02 -0.21897785797E+03  0.29659819920E+03  0.00000000000E+00 0. -1.
         21    1    1    2  503  502 -0.24679551500E+03 -0.21141532899E+02  0.39203087020E+03  0.46372749954E+03  0.00000000000E+00 0. -1.
          1    1    1    2  501    0 -0.16748991571E+03  0.28293153732E+02 -0.14295766437E+03  0.22201411715E+03  0.00000000000E+00 0. -1.
<scales pt_clust_5="13000.00000" pt_clust_6="13000.00000" pt_clust_7="13000.00000" pt_clust_8="13000.00000" pt_clust_9="233.95614" pt_clust_10="13000.00000"></scales>
<clustering>
<clus scale="   65.800">  5  6 -1 -1</clus>
<clus scale="   86.285">  7  8 -1 -1</clus>
<clus scale="  169.863">  7 10 -1 -1</clus>
<clus scale="  244.099">  2  5  1 -1</clus>
<clus scale="  233.956">  1  9  2 -1</clus>
<clus scale="  233.956">  1  5  2 -1</clus>
</clustering>
</event>
<event>
10    4  0.2565852E-005  0.3525859E+03  0.7546771E-02  0.1113186E+00
         -3   -1    0    0    0  501 -0.00000000000E+00  0.00000000000E+00  0.27587497665E+03  0.27587497665E+03  0.00000000000E+00 0.  1.
         21   -1    0    0  501  502  0.00000000000E+00 -0.00000000000E+00 -0.29222244354E+03  0.29222244354E+03  0.00000000000E+00 0. -1.
         24    2    1    2    0    0  0.41689219403E+02 -0.10303618646E+02  0.60291463391E+02  0.10917869032E+03  0.80254409785E+02 0.  0.
         23    2    1    2    0    0  0.61742673462E+02 -0.24527304170E+02 -0.13214866533E+03  0.17374962498E+03  0.91169710194E+02 0.  0.
        -13    1    3    3    0    0  0.40148983303E+02  0.12198938452E+02  0.72323536310E+02  0.83614884225E+02  0.00000000000E+00 0.  1.
         14    1    3    3    0    0  0.15402361003E+01 -0.22502557098E+02 -0.12032072919E+02  0.25563806092E+02  0.00000000000E+00 0. -1.
        -11    1    4    4    0    0  0.57633882333E+02  0.98827686700E+01 -0.29673173282E+02  0.65573094497E+02  0.00000000000E+00 0. -1.
         11    1    4    4    0    0  0.41087911289E+01 -0.34410072840E+02 -0.10247549204E+03  0.10817653048E+03  0.00000000000E+00 0.  1.
         21    1    1    2  503  502 -0.24465745682E+02  0.16024653728E+02 -0.10300606250E+03  0.10707759406E+03  0.00000000000E+00 0.  1.
         -4    1    1    2    0  503 -0.78966147183E+02  0.18806269089E+02  0.15851579755E+03  0.17809151083E+03  0.00000000000E+00 0.  1.
<scales pt_clust_5="13000.00000" pt_clust_6="13000.00000" pt_clust_7="13000.00000" pt_clust_8="13000.00000" pt_clust_9="29.24658" pt_clust_10="13000.00000"></scales>
<clustering>
<clus scale="   29.247">  2  9  1 -1</clus>
<clus scale="   80.254">  5  6 -1 -1</clus>
<clus scale="   89.387">  1  5  2 -1</clus>
<clus scale="   91.170">  7  8 -1 -1</clus>
<clus scale="   47.209">  7 10 -1 -1</clus>
<clus scale="   29.247">  2  5  1 -1</clus>
</clustering>
</event>
<event>
10    4  0.2565852E-005  0.2030035E+03  0.7546771E-02  0.1185698E+00
         21   -1    0    0  501  502  0.00000000000E+00  0.00000000000E+00  0.20790524558E+03  0.20790524558E+03  0.00000000000E+00 0.  1.
         -3   -1    0    0    0  501 -0.00000000000E+00 -0.00000000000E+00 -0.24714628006E+03  0.24714628006E+03  0.00000000000E+00 0.  1.
         24    2    1    2    0    0  0.12802237341E+02  0.18331737795E+02  0.10073149747E+03  0.12973315126E+03  0.78637815730E+02 0.  0.
         23    2    1    2    0    0  0.86938266853E+02 -0.20073019070E+02 -0.13335755064E+03  0.18564037074E+03  0.93364461100E+02 0.  0.
        -11    1    3    3    0    0  0.30852845775E+01  0.34147603139E+02  0.10519507374E+03  0.11064167985E+03  0.00000000000E+00 0.  1.
         12    1    3    3    0    0  0.97169527631E+01 -0.15815865345E+02 -0.44635762696E+01  0.19091471413E+02  0.00000000000E+00 0. -1.
        -11    1    4    4    0    0  0.13070445066E+02  0.19981949802E+02 -0.85856214410E+02  0.89114557761E+02  0.00000000000E+00 0.  1.
         11    1    4    4    0    0  0.73867821787E+02 -0.40054968872E+02 -0.47501336229E+02  0.96525812975E+02  0.00000000000E+00 0. -1.
         21    1    1    2  503  502 -0.27667658890E+02  0.13348595262E+02  0.41952160147E+02  0.51996808411E+02  0.00000000000E+00 0.  1.
         -4    1    1    2    0  503 -0.72072845303E+02 -0.11607313988E+02 -0.48567141460E+02  0.87681195234E+02  0.00000000000E+00 0.  1.
<scales pt_clust_5="13000.00000" pt_clust_6="13000.00000" pt_clust_7="13000.00000" pt_clust_8="13000.00000" pt_clust_9="30.71945" pt_clust_10="13000.00000"></scales>
<clustering>
<clus scale="   30.719">  1  9  2 -1</clus>
<clus scale="   78.638">  5  6 -1 -1</clus>
<clus scale="   83.731">  2  5  1 -1</clus>
<clus scale="   93.364">  7  8 -1 -1</clus>
<clus scale="   77.747">  7 10 -1 -1</clus>
<clus scale="   30.719">  1  5  2 -1</clus>
</clustering>
</event>
<event>
10    4  0.2565852E-005  0.3708970E+03  0.7546771E-02  0.1064095E+00
          2   -1    0    0  503    0 -0.00000000000E+00  0.00000000000E+00  0.40914488947E+03  0.40914488947E+03  0.00000000000E+00 0. -1.
         21   -1    0    0  501  502  0.00000000000E+00 -0.00000000000E+00 -0.60583454202E+03  0.60583454202E+03  0.00000000000E+00 0.  1.
         24    2    1    2    0    0 -0.79427401763E+02  0.28157719316E+03 -0.22765178799E+02  0.30269630743E+03  0.74245358836E+02 0.  0.
         23    2    1    2    0    0 -0.24734957007E+02 -0.14915757479E+03  0.12615507068E+03  0.21448815149E+03  0.85030965279E+02 0.  0.
        -11    1    3    3    0    0 -0.24153050513E+02  0.19778798427E+03 -0.32329558737E+02  0.20186296574E+03  0.00000000000E+00 0.  1.
         12    1    3    3    0    0 -0.55274351250E+02  0.83789208889E+02  0.95643799380E+01  0.10083334169E+03  0.00000000000E+00 0. -1.
        -11    1    4    4    0    0  0.13075338451E+02 -0.17378651550E+02 -0.75173329622E+01  0.23010699689E+02  0.00000000000E+00 0.  1.
         11    1    4    4    0    0 -0.37810295458E+02 -0.13177892324E+03  0.13367240365E+03  0.19147745180E+03  0.00000000000E+00 0. -1.
         21    1    1    2  503  502 -0.51950810570E+02 -0.56391407490E+02 -0.31435153279E+03  0.32356724761E+03  0.00000000000E+00 0.  1.
          1    1    1    2  501    0  0.15611316934E+03 -0.76028210878E+02  0.14271988356E+02  0.17422772495E+03  0.00000000000E+00 0. -1.
<scales pt_clust_5="13000.00000" pt_clust_6="13000.00000" pt_clust_7="13000.00000" pt_clust_8="13000.00000" pt_clust_9="76.67384" pt_clust_10="13000.00000"></scales>
<clustering>
<clus scale="   74.245">  5  6 -1 -1</clus>
<clus scale="   76.674">  2  9  1 -1</clus>
<clus scale="   85.031">  7  8 -1 -1</clus>
<clus scale="  168.751">  7 10 -1 -1</clus>
<clus scale="  282.251">  1  5  2 -1</clus>
<clus scale="   76.674">  2  5  1 -1</clus>
</clustering>
</event>
<event>
10    4  0.2565852E-005  0.2994433E+03  0.7546771E-02  0.1108835E+00
          4   -1    0    0  503    0 -0.00000000000E+00  0.00000000000E+00  0.68320364482E+03  0.68320364482E+03  0.00000000000E+00 0. -1.
         21   -1    0    0  501  502  0.00000000000E+00 -0.00000000000E+00 -0.56927364416E+03  0.56927364416E+03  0.00000000000E+00 0.  1.
         24    2    1    2    0    0 -0.11469507836E+03  0.87825926755E+02  0.48267961277E+03  0.50945581184E+03  0.75480204183E+02 0.  0.
         23    2    1    2    0    0 -0.14247168085E+03 -0.86922398749E+02  0.50047502285E+02  0.19589403504E+03  0.89532325048E+02 0.  0.
        -13    1    3    3    0    0 -0.28253767482E+02 -0.10948549786E+02  0.11961010322E+03  0.12338850397E+03  0.00000000000E+00 0.  1.
         14    1    3    3    0    0 -0.86441310880E+02  0.98774476541E+02  0.36306950955E+03  0.38606730787E+03  0.00000000000E+00 0. -1.
        -13    1    4    4    0    0 -0.29176535067E+02 -0.67382747767E+02  0.29356856556E+02  0.79079263540E+02  0.00000000000E+00 0.  1.
         13    1    4    4    0    0 -0.11329514578E+03 -0.19539650982E+02  0.20690645729E+02  0.11681477150E+03  0.00000000000E+00 0. -1.
         21    1    1    2  503  502  0.28481106123E+03  0.47047917767E+02 -0.38856586057E+03  0.48406019788E+03  0.00000000000E+00 0.  1.
          3    1    1    2  501    0 -0.27644302018E+02 -0.47951445773E+02 -0.30231253827E+02  0.63067244222E+02  0.00000000000E+00 0. -1.
<scales pt_clust_5="13000.00000" pt_clust_6="13000.00000" pt_clust_7="13000.00000" pt_clust_8="13000.00000" pt_clust_9="264.81776" pt_clust_10="13000.00000"></scales>
<clustering>
<clus scale="   75.480">  5  6 -1 -1</clus>
<clus scale="   89.532">  7  8 -1 -1</clus>
<clus scale="   55.349">  7 10 -1 -1</clus>
<clus scale="  162.990">  1  5  2 -1</clus>
<clus scale="  264.818">  2  9  1 -1</clus>
<clus scale="  264.818">  2  5  1 -1</clus>
</clustering>
</event>
<event>
10    4  0.2565852E-005  0.7208229E+03  0.7546771E-02  0.1018122E+00
         21   -1    0    0  501  502  0.00000000000E+00  0.00000000000E+00  0.51690688658E+03  0.51690688658E+03  0.00000000000E+00 0. -1.
          2   -1    0    0  503    0 -0.00000000000E+00 -0.00000000000E+00 -0.51870779441E+03  0.51870779441E+03  0.00000000000E+00 0. -1.
         24    2    1    2    0    0  0.12260537122E+03  0.29773716332E+02 -0.79684904747E+02  0.16866171035E+03  0.78603672036E+02 0.  0.
         23    2    1    2    0    0 -0.78187746745E+02  0.29231482755E+03  0.10019337020E+03  0.33085276747E+03  0.88676717157E+02 0.  0.
        -13    1    3    3    0    0  0.62292748093E+02  0.87850575016E+01  0.44148170557E+01  0.63063890697E+02  0.00000000000E+00 0.  1.
         14    1    3    3    0    0  0.60312623123E+02  0.20988658831E+02 -0.84099721803E+02  0.10559781965E+03  0.00000000000E+00 0. -1.
        -13    1    4    4    0    0 -0.25174231143E+02  0.21161196698E+03  0.39299854571E+02  0.21669758894E+03  0.00000000000E+00 0. -1.
         13    1    4    4    0    0 -0.53013515602E+02  0.80702860571E+02  0.60893515627E+02  0.11415517853E+03  0.00000000000E+00 0.  1.
         21    1    1    2  503  502 -0.34476981043E+02  0.33462446676E+02  0.13787377031E+03  0.14600539065E+03  0.00000000000E+00 0. -1.
          1    1    1    2  501    0 -0.99406434268E+01 -0.35555099056E+03 -0.16018314359E+03  0.39009481253E+03  0.00000000000E+00 0. -1.
<scales pt_clust_5="13000.00000" pt_clust_6="13000.00000" pt_clust_7="13000.00000" pt_clust_8="13000.00000" pt_clust_9="48.04579" pt_clust_10="13000.00000"></scales>
<clustering>
<clus scale="   48.046">  1  9  2 -1</clus>
<clus scale="   78.604">  5  6 -1 -1</clus>
<clus scale="   88.677">  7  8 -1 -1</clus>
<clus scale="  146.161">  2  5  1 -1</clus>
<clus scale="  328.162">  7 10 -1 -1</clus>
<clus scale="   48.046">  1  5  2 -1</clus>
</clustering>
</event>
<event>
10    4  0.2565852E-005  0.5137376E+03  0.7546771E-02  0.1059711E+00
          2   -1    0    0  503    0 -0.00000000000E+00  0.00000000000E+00  0.84965812677E+03  0.84965812677E+03  0.00000000000E+00 0. -1.
         21   -1    0    0  501  502  0.00000000000E+00 -0.00000000000E+00 -0.15951809745E+03  0.15951809745E+03  0.00000000000E+00 0. -1.
         24    2    1    2    0    0  0.10334060996E+03  0.67033654305E+01  0.30191552778E+03  0.32561243162E+03  0.64391404199E+02 0.  0.
         23    2    1    2    0    0 -0.23985674650E+03  0.94655050699E+02  0.47851581746E+02  0.27590437015E+03  0.85689031549E+02 0.  0.
        -11    1    3    3    0    0  0.99690262822E+02  0.16647220345E+02  0.29738608751E+03  0.31409196662E+03  0.00000000000E+00 0.  1.
         12    1    3    3    0    0  0.36503471349E+01 -0.99438549150E+01  0.45294402729E+01  0.11520465006E+02  0.00000000000E+00 0. -1.
        -11    1    4    4    0    0 -0.16510758097E+03  0.88285619738E+02  0.66348216578E+02  0.19863773506E+03  0.00000000000E+00 0. -1.
         11    1    4    4    0    0 -0.74749165530E+02  0.63694309611E+01 -0.18496634832E+02  0.77266635091E+02  0.00000000000E+00 0.  1.
         21    1    1    2  503  502 -0.26833583078E+02 -0.40670194099E+02  0.56929845323E+02  0.74934058727E+02  0.00000000000E+00 0. -1.
          1    1    1    2  501    0  0.16334971962E+03 -0.60688222031E+02  0.28344307447E+03  0.33272536372E+03  0.00000000000E+00 0. -1.
<scales pt_clust_5="13000.00000" pt_clust_6="13000.00000" pt_clust_7="13000.00000" pt_clust_8="13000.00000" pt_clust_9="48.72482" pt_clust_10="13000.00000"></scales>
<clustering>
<clus scale="   48.725">  2  9  1 -1</clus>
<clus scale="   64.391">  5  6 -1 -1</clus>
<clus scale="   85.689">  7  8 -1 -1</clus>
<clus scale="  120.024">  1  5  2 -1</clus>
<clus scale="  229.031">  7 10 -1 -1</clus>
<clus scale="   48.725">  2  5  1 -1</clus>
</clustering>
</event>
<event>
10    4  0.2565852E-005  0.3891012E+03  0.7546771E-02  0.1066688E+00
         21   -1    0    0  501  502  0.00000000000E+00  0.00000000000E+00  0.63538783963E+03  0.63538783963E+03  0.00000000000E+00 0.  1.
          2   -1    0    0  503    0 -0.00000000000E+00 -0.00000000000E+00 -0.22228551706E+04  0.22228551706E+04  0.00000000000E+00 0. -1.
         24    2    1    2    0    0 -0.38148534436E+03  0.38034233128E+02 -0.22295479909E+03  0.45039822821E+03  0.78562399907E+02 0.  0.
         23    2    1    2    0    0 -0.36931630059E+02 -0.22394928343E+02 -0.20296744639E+03  0.22641025835E+03  0.90555743483E+02 0.  0.
        -11    1    3    3    0    0 -0.33876919826E+03  0.11525140034E+02 -0.20901974874E+03  0.39822939859E+03  0.00000000000E+00 0.  1.
         12    1    3    3    0    0 -0.42716146108E+02  0.26509093094E+02 -0.13935050353E+02  0.52168829615E+02  0.00000000000E+00 0. -1.
        -11    1    4    4    0    0 -0.83235819724E+01 -0.53921538351E+02 -0.14136942724E+03  0.15153260136E+03  0.00000000000E+00 0.  1.
         11    1    4    4    0    0 -0.28608048086E+02  0.31526610008E+02 -0.61598019147E+02  0.74877656993E+02  0.00000000000E+00 0. -1.
         21    1    1    2  503  502  0.20475430545E+03  0.21845045907E+02  0.48173465660E+03  0.52389866482E+03  0.00000000000E+00 0.  1.
          1    1    1    2  501    0  0.21366266898E+03 -0.37484350692E+02 -0.16432797421E+04  0.16575358588E+04  0.00000000000E+00 0. -1.
<scales pt_clust_5="13000.00000" pt_clust_6="13000.00000" pt_clust_7="13000.00000" pt_clust_8="13000.00000" pt_clust_9="205.91632" pt_clust_10="13000.00000"></scales>
<clustering>
<clus scale="   78.562">  5  6 -1 -1</clus>
<clus scale="   90.556">  7  8 -1 -1</clus>
<clus scale="  205.916">  1  9  2 -1</clus>
<clus scale="  227.524">  2  5  1 -1</clus>
<clus scale="   42.049">  7 10 -1 -1</clus>
<clus scale="  205.916">  1  5  2 -1</clus>
</clustering>
</event>
<event>
10    4  0.2565852E-005  0.1707068E+03  0.7546771E-02  0.1202741E+00
         21   -1    0    0  501  502  0.00000000000E+00  0.00000000000E+00  0.51919355901E+02  0.51919355901E+02  0.00000000000E+00 0. -1.
          2   -1    0    0  503    0 -0.00000000000E+00 -0.00000000000E+00 -0.73432760315E+03  0.73432760315E+03  0.00000000000E+00 0. -1.
         24    2    1    2    0    0 -0.17707201487E+02 -0.48962046780E+02 -0.28575275628E+03  0.30169294628E+03  0.81566960862E+02 0.  0.
         23    2    1    2    0    0  0.92697488107E+02  0.50056028546E+02 -0.32055264120E+03  0.34975396340E+03  0.92061983693E+02 0.  0.
        -11    1    3    3    0    0  0.14919716336E+01  0.20575276464E+02 -0.10629898685E+03  0.10828223578E+03  0.00000000000E+00 0.  1.
         12    1    3    3    0    0 -0.19199173120E+02 -0.69537323243E+02 -0.17945376943E+03  0.19341071050E+03  0.00000000000E+00 0. -1.
        -13    1    4    4    0    0  0.71543340084E+02  0.72089466011E+02 -0.18750388167E+03  0.21324410018E+03  0.00000000000E+00 0. -1.
         13    1    4    4    0    0  0.21154148023E+02 -0.22033437465E+02 -0.13304875953E+03  0.13650986323E+03  0.00000000000E+00 0.  1.
         21    1    1    2  503  502 -0.53515055998E+02  0.29440270941E+02 -0.14511013945E+02  0.62778661161E+02  0.00000000000E+00 0. -1.
          1    1    1    2  501    0 -0.21475230623E+02 -0.30534252707E+02 -0.61591835822E+02  0.72021388202E+02  0.00000000000E+00 0. -1.
<scales pt_clust_5="13000.00000" pt_clust_6="13000.00000" pt_clust_7="13000.00000" pt_clust_8="13000.00000" pt_clust_9="61.07856" pt_clust_10="13000.00000"></scales>
<clustering>
<clus scale="   61.079">  1  9  2 -1</clus>
<clus scale="   81.567">  5  6 -1 -1</clus>
<clus scale="   92.062">  7  8 -1 -1</clus>
<clus scale="   40.235">  7 10 -1 -1</clus>
<clus scale="   96.890">  2  5  1 -1</clus>
<clus scale="   61.079">  1  5  2 -1</clus>
</clustering>
</event>
<event>
10    4  0.2565852E-005  0.2070372E+03  0.7546771E-02  0.1164152E+00
          2   -1    0    0  502    0 -0.00000000000E+00  0.00000000000E+00  0.91022402019E+03  0.91022402019E+03  0.00000000000E+00 0. -1.
         21   -1    0    0  503  502  0.00000000000E+00 -0.00000000000E+00 -0.74191196103E+02  0.74191196103E+02  0.00000000000E+00 0.  1.
         24    2    1    2    0    0  0.59038582434E+02 -0.92332976778E+02  0.34650437382E+03  0.37258300885E+03  0.82108980004E+02 0.  0.
         23    2    1    2    0    0  0.18995881192E+02  0.93865952863E+02  0.25641411841E+03  0.28828127013E+03  0.90477787231E+02 0.  0.
        -13    1    3    3    0    0 -0.13674385411E+02 -0.28522423177E+02  0.38970131262E+02  0.50191518913E+02  0.00000000000E+00 0.  1.
         14    1    3    3    0    0  0.72712967845E+02 -0.63810553601E+02  0.30753424255E+03  0.32239148994E+03  0.00000000000E+00 0. -1.
        -13    1    4    4    0    0  0.47826159819E+02  0.77530655978E+02  0.13828934825E+03  0.16559676331E+03  0.00000000000E+00 0.  1.
         13    1    4    4    0    0 -0.28830278626E+02  0.16335296884E+02  0.11812477015E+03  0.12268450682E+03  0.00000000000E+00 0. -1.
         21    1    1    2  503  501 -0.27473447435E+02  0.13285403197E+02 -0.37219309816E+02  0.48130751867E+02  0.00000000000E+00 0.  1.
          1    1    1    2  501    0 -0.50561016192E+02 -0.14818379282E+02  0.27033364168E+03  0.27542018544E+03  0.00000000000E+00 0. -1.
<scales pt_clust_5="13000.00000" pt_clust_6="13000.00000" pt_clust_7="13000.00000" pt_clust_8="13000.00000" pt_clust_9="30.51708" pt_clust_10="13000.00000"></scales>
<clustering>
<clus scale="   30.517">  2  9  1 -1</clus>
<clus scale="   82.109">  5  6 -1 -1</clus>
<clus scale="   90.478">  7  8 -1 -1</clus>
<clus scale="   54.539">  7 10 -1 -1</clus>
<clus scale="  128.666">  1  5  2 -1</clus>
<clus scale="   30.517">  2  5  1 -1</clus>
</clustering>
</event>
<event>
10    4  0.2565852E-005  0.1702257E+03  0.7546771E-02  0.1202640E+00
          2   -1    0    0  503    0 -0.00000000000E+00  0.00000000000E+00  0.15443190681E+04  0.15443190681E+04  0.00000000000E+00 0. -1.
         21   -1    0    0  501  502  0.00000000000E+00 -0.00000000000E+00 -0.19327541333E+02  0.19327541333E+02  0.00000000000E+00 0. -1.
         24    2    1    2    0    0  0.25622970155E+02 -0.46896981299E+02  0.95245673484E+03  0.95738107171E+03  0.80924787633E+02 0.  0.
         23    2    1    2    0    0  0.60132585666E+02  0.20244355201E+02  0.25541457095E+03  0.26952895440E+03  0.58167795459E+02 0.  0.
        -11    1    3    3    0    0 -0.90492167638E+01 -0.21488958049E+02  0.68114885257E+02  0.71995147306E+02  0.00000000000E+00 0.  1.
         12    1    3    3    0    0  0.34672186919E+02 -0.25408023250E+02  0.88434184959E+03  0.88538592440E+03  0.00000000000E+00 0. -1.
        -13    1    4    4    0    0  0.32471480397E+02  0.40404580674E+02  0.15613818549E+03  0.16451765908E+03  0.00000000000E+00 0.  1.
         13    1    4    4    0    0  0.27661105269E+02 -0.20160225473E+02  0.99276385454E+02  0.10501129532E+03  0.00000000000E+00 0. -1.
         21    1    1    2  503  502 -0.10686941309E+02 -0.19598813190E+02  0.98652074508E+02  0.10114621099E+03  0.00000000000E+00 0.  1.
          1    1    1    2  501    0 -0.75068614512E+02  0.46251439288E+02  0.21846814649E+03  0.23559037236E+03  0.00000000000E+00 0. -1.
<scales pt_clust_5="13000.00000" pt_clust_6="13000.00000" pt_clust_7="13000.00000" pt_clust_8="13000.00000" pt_clust_9="22.32319" pt_clust_10="13000.00000"></scales>
<clustering>
<clus scale="   22.323">  2  9  1 -1</clus>
<clus scale="   58.168">  7  8 -1 -1</clus>
<clus scale="   80.925">  5  6 -1 -1</clus>
<clus scale="   88.247">  7 10 -1 -1</clus>
<clus scale="   97.927">  1  5  2 -1</clus>
<clus scale="   22.323">  2  5  1 -1</clus>
</clustering>
</event>
<event>
10    4  0.2565852E-005  0.3763970E+03  0.7546771E-02  0.1067624E+00
         21   -1    0    0  503  502  0.00000000000E+00  0.00000000000E+00  0.13336204688E+04  0.13336204688E+04  0.00000000000E+00 0.  1.
          2   -1    0    0  502    0 -0.00000000000E+00 -0.00000000000E+00 -0.81170278652E+02  0.81170278652E+02  0.00000000000E+00 0. -1.
         24    2    1    2    0    0  0.17437794621E+03  0.16778262644E+03  0.61363681261E+03  0.66463446397E+03  0.81425764087E+02 0.  0.
         23    2    1    2    0    0  0.41539748389E+02 -0.35407952725E+01  0.28048516441E+03  0.29842336464E+03  0.92986499987E+02 0.  0.
        -13    1    3    3    0    0  0.17541022511E+03  0.14139793122E+03  0.50753192172E+03  0.55529341216E+03  0.00000000000E+00 0.  1.
         14    1    3    3    0    0 -0.10322788950E+01  0.26384695216E+02  0.10610489089E+03  0.10934105181E+03  0.00000000000E+00 0. -1.
        -11    1    4    4    0    0  0.49511993560E+02 -0.30905981671E+02  0.24986057542E+03  0.25658706975E+03  0.00000000000E+00 0.  1.
         11    1    4    4    0    0 -0.79722451713E+01  0.27365186399E+02  0.30624588988E+02  0.41836294894E+02  0.00000000000E+00 0. -1.
         21    1    1    2  503  501 -0.11266738522E+02 -0.20203719981E+02  0.46189290715E+02  0.51658303057E+02  0.00000000000E+00 0. -1.
          1    1    1    2  501    0 -0.20465095608E+03 -0.14403811118E+03  0.31213892237E+03  0.40007461573E+03  0.00000000000E+00 0. -1.
<scales pt_clust_5="13000.00000" pt_clust_6="13000.00000" pt_clust_7="13000.00000" pt_clust_8="13000.00000" pt_clust_9="23.13287" pt_clust_10="13000.00000"></scales>
<clustering>
<clus scale="   23.133">  1  9  2 -1</clus>
<clus scale="   81.426">  5  6 -1 -1</clus>
<clus scale="   92.986">  7  8 -1 -1</clus>
<clus scale="  244.936">  2  5  1 -1</clus>
<clus scale="   70.951">  7 10 -1 -1</clus>
<clus scale="   23.133">  1  5  2 -1</clus>
</clustering>
</event>
<event>
10    4  0.2565852E-005  0.3811593E+03  0.7546771E-02  0.1078239E+00
          2   -1    0    0  502    0 -0.00000000000E+00  0.00000000000E+00  0.10094270178E+04  0.10094270178E+04  0.00000000000E+00 0. -1.
         21   -1    0    0  503  502  0.00000000000E+00 -0.00000000000E+00 -0.19652777873E+03  0.19652777873E+03  0.00000000000E+00 0. -1.
         24    2    1    2    0    0  0.14640507709E+03 -0.51591826868E+02  0.74112175486E+03  0.76148057655E+03  0.80591871437E+02 0.  0.
         23    2    1    2    0    0 -0.27753840555E+03  0.14364295305E+02  0.37732523187E+02  0.29434350033E+03  0.89333383145E+02 0.  0.
        -11    1    3    3    0    0  0.83355272506E+02 -0.70348814939E+02  0.47099765483E+03  0.48346235435E+03  0.00000000000E+00 0.  1.
         12    1    3    3    0    0  0.63049804581E+02  0.18756988071E+02  0.27012410003E+03  0.27801822220E+03  0.00000000000E+00 0. -1.
        -11    1    4    4    0    0 -0.18810626518E+02 -0.11869437801E+02  0.25731666733E+02  0.34012378579E+02  0.00000000000E+00 0.  1.
         11    1    4    4    0    0 -0.25872777903E+03  0.26233733106E+02  0.12000856453E+02  0.26033112175E+03  0.00000000000E+00 0. -1.
         21    1    1    2  503  501  0.36288918998E+02  0.12179315237E+02 -0.14181474544E+02  0.40820773901E+02  0.00000000000E+00 0. -1.
          1    1    1    2  501    0  0.94844409468E+02  0.25048216326E+02  0.48226435525E+02  0.10930994571E+03  0.00000000000E+00 0. -1.
<scales pt_clust_5="13000.00000" pt_clust_6="13000.00000" pt_clust_7="13000.00000" pt_clust_8="13000.00000" pt_clust_9="38.27821" pt_clust_10="13000.00000"></scales>
<clustering>
<clus scale="   38.278">  2  9  1 -1</clus>
<clus scale="   80.592">  5  6 -1 -1</clus>
<clus scale="   89.333">  7  8 -1 -1</clus>
<clus scale="  104.999">  7 10 -1 -1</clus>
<clus scale="  176.524">  1  5  2 -1</clus>
<clus scale="   38.278">  2  5  1 -1</clus>
</clustering>
</event>
<event>
10    4  0.2565852E-005  0.4601442E+03  0.7546771E-02  0.1045956E+00
         21   -1    0    0  503  502  0.00000000000E+00  0.00000000000E+00  0.16700104632E+03  0.16700104632E+03  0.00000000000E+00 0. -1.
          2   -1    0    0  502    0 -0.00000000000E+00 -0.00000000000E+00 -0.15874517867E+04  0.15874517867E+04  0.00000000000E+00 0. -1.
         24    2    1    2    0    0 -0.44759094383E+02 -0.21132120175E+03 -0.46232177498E+02  0.23503395817E+03  0.80271541784E+02 0.  0.
         23    2    1    2    0    0 -0.47090294199E+02 -0.65783027719E+02 -0.65796874376E+03  0.66915570508E+03  0.91113046980E+02 0.  0.
        -13    1    3    3    0    0  0.10164341636E+02 -0.93151658274E+02  0.76657654060E+01  0.94017600689E+02  0.00000000000E+00 0.  1.
         14    1    3    3    0    0 -0.54923436019E+02 -0.11816954347E+03 -0.53897942904E+02  0.14101635748E+03  0.00000000000E+00 0. -1.
        -13    1    4    4    0    0 -0.13013727977E+02  0.23073481793E+02 -0.12845531791E+03  0.13115834467E+03  0.00000000000E+00 0.  1.
         13    1    4    4    0    0 -0.34076566222E+02 -0.88856509511E+02 -0.52951342585E+03  0.53799736041E+03  0.00000000000E+00 0. -1.
         21    1    1    2  503  501  0.14289824192E+02 -0.27183633175E+02  0.28575751769E+02  0.41949047393E+02  0.00000000000E+00 0.  1.
          1    1    1    2  501    0  0.77559564390E+02  0.30428786264E+03 -0.74482557091E+03  0.80831412239E+03  0.00000000000E+00 0. -1.
<scales pt_clust_5="13000.00000" pt_clust_6="13000.00000" pt_clust_7="13000.00000" pt_clust_8="13000.00000" pt_clust_9="30.71073" pt_clust_10="13000.00000"></scales>
<clustering>
<clus scale="   30.711">  1  9  2 -1</clus>
<clus scale="   80.272">  5  6 -1 -1</clus>
<clus scale="   91.113">  7  8 -1 -1</clus>
<clus scale="  246.787">  2  5  1 -1</clus>
<clus scale="  186.569">  7 10 -1 -1</clus>
<clus scale="   30.711">  1  5  2 -1</clus>
</clustering>
</event>
<event>
10    4  0.2565852E-005  0.4109319E+03  0.7546771E-02  0.1082015E+00
         21   -1    0    0  503  502  0.00000000000E+00  0.00000000000E+00  0.85559159621E+02  0.85559159621E+02  0.00000000000E+00 0.  1.
          2   -1    0    0  502    0 -0.00000000000E+00 -0.00000000000E+00 -0.11523085198E+04  0.11523085198E+04  0.00000000000E+00 0. -1.
         24    2    1    2    0    0  0.10393634470E+03 -0.25234225291E+02 -0.22031801997E+03  0.25759608934E+03  0.79851020316E+02 0.  0.
         23    2    1    2    0    0  0.51560113522E+02  0.65660541908E+02 -0.58605097651E+02  0.13793911789E+03  0.92859521341E+02 0.  0.
        -11    1    3    3    0    0  0.61655635390E+02  0.25865070351E+02 -0.10210302303E+03  0.12204690308E+03  0.00000000000E+00 0.  1.
         12    1    3    3    0    0  0.42280709308E+02 -0.51099295642E+02 -0.11821499694E+03  0.13554918626E+03  0.00000000000E+00 0. -1.
        -11    1    4    4    0    0  0.71200280870E+02  0.53814254224E+02 -0.17619149824E+02  0.90971909918E+02  0.00000000000E+00 0.  1.
         11    1    4    4    0    0 -0.19640167349E+02  0.11846287685E+02 -0.40985947828E+02  0.46967207972E+02  0.00000000000E+00 0. -1.
         21    1    1    2  503  501 -0.25407929164E+02  0.10808024315E+02  0.12196161070E+02  0.30184807418E+02  0.00000000000E+00 0.  1.
          1    1    1    2  501    0 -0.13008852906E+03 -0.51234340933E+02 -0.80002240362E+03  0.81214766476E+03  0.00000000000E+00 0. -1.
<scales pt_clust_5="13000.00000" pt_clust_6="13000.00000" pt_clust_7="13000.00000" pt_clust_8="13000.00000" pt_clust_9="27.61116" pt_clust_10="13000.00000"></scales>
<clustering>
<clus scale="   27.611">  1  9  2 -1</clus>
<clus scale="   79.851">  5  6 -1 -1</clus>
<clus scale="   92.860">  7  8 -1 -1</clus>
<clus scale="  127.249">  2  5  1 -1</clus>
<clus scale="   83.983">  7 10 -1 -1</clus>
<clus scale="   27.611">  1  5  2 -1</clus>
</clustering>
</event>
<event>
10    4  0.2565852E-005  0.5694962E+03  0.7546771E-02  0.1059368E+00
         21   -1    0    0  501  502  0.00000000000E+00  0.00000000000E+00  0.60146132369E+02  0.60146132369E+02  0.00000000000E+00 0.  1.
          2   -1    0    0  503    0 -0.00000000000E+00 -0.00000000000E+00 -0.20717051261E+04  0.20717051261E+04  0.00000000000E+00 0. -1.
         24    2    1    2    0    0  0.45355245737E+02  0.30204118600E+00 -0.21182577469E+03  0.23082699039E+03  0.79710420428E+02 0.  0.
         23    2    1    2    0    0 -0.22436256743E+03  0.90861105146E+02 -0.43804752426E+03  0.50896153555E+03  0.92530584477E+02 0.  0.
        -13    1    3    3    0    0  0.32660851102E+02 -0.33214039151E+02 -0.66797162494E+02  0.81435646425E+02  0.00000000000E+00 0.  1.
         14    1    3    3    0    0  0.12694394635E+02  0.33516080337E+02 -0.14502861219E+03  0.14939134396E+03  0.00000000000E+00 0. -1.
        -13    1    4    4    0    0 -0.92811401416E+02  0.69055299135E+01 -0.23581761982E+03  0.25351842614E+03  0.00000000000E+00 0.  1.
         13    1    4    4    0    0 -0.13155116602E+03  0.83955575233E+02 -0.20222990444E+03  0.25544310941E+03  0.00000000000E+00 0. -1.
         21    1    1    2  503  502 -0.34116663705E+02 -0.14900318915E+02 -0.58337077619E+02  0.69203907919E+02  0.00000000000E+00 0. -1.
          1    1    1    2  501    0  0.21312398540E+03 -0.76262827417E+02 -0.13033486172E+04  0.13228588246E+04  0.00000000000E+00 0. -1.
<scales pt_clust_5="13000.00000" pt_clust_6="13000.00000" pt_clust_7="13000.00000" pt_clust_8="13000.00000" pt_clust_9="37.22857" pt_clust_10="13000.00000"></scales>
<clustering>
<clus scale="   37.229">  1  9  2 -1</clus>
<clus scale="   79.710">  5  6 -1 -1</clus>
<clus scale="   88.959">  2  5  1 -1</clus>
<clus scale="   92.531">  7  8 -1 -1</clus>
<clus scale="  247.622">  7 10 -1 -1</clus>
<clus scale="   37.229">  1  5  2 -1</clus>
</clustering>
</event>
<event>
10    4  0.2565852E-005  0.5126410E+03  0.7546771E-02  0.1072556E+00
         -3   -1    0    0    0  501 -0.00000000000E+00  0.00000000000E+00  0.55601379784E+03  0.55601379784E+03  0.00000000000E+00 0.  1.
         21   -1    0    0  503  502  0.00000000000E+00 -0.00000000000E+00 -0.18142525721E+03  0.18142525721E+03  0.00000000000E+00 0. -1.
         24    2    1    2    0    0  0.26991934143E+01  0.24212292584E+02  0.72439599033E+02  0.11065129913E+03  0.80016834066E+02 0.  0.
         23    2    1    2    0    0  0.18786159488E+03 -0.52233099179E+02 -0.22888954487E+02  0.21866145952E+03  0.96273849839E+02 0.  0.
        -13    1    3    3    0    0 -0.24911657795E+02  0.35906631668E+02  0.15628552166E+02  0.46412590261E+02  0.00000000000E+00 0.  1.
         14    1    3    3    0    0  0.27610851210E+02 -0.11694339084E+02  0.56811046867E+02  0.64238708869E+02  0.00000000000E+00 0. -1.
        -11    1    4    4    0    0  0.10701146347E+03 -0.25970275512E+01 -0.52571065150E+02  0.11925566971E+03  0.00000000000E+00 0. -1.
         11    1    4    4    0    0  0.80850131402E+02 -0.49636071628E+02  0.29682110663E+02  0.99405789811E+02  0.00000000000E+00 0.  1.
         21    1    1    2  503  501  0.14439012349E+01  0.28991411168E+02 -0.17771385360E+01  0.29081695165E+02  0.00000000000E+00 0. -1.
         -4    1    1    2    0  502 -0.19200468953E+03 -0.97060457285E+00  0.32681503462E+03  0.37904460124E+03  0.00000000000E+00 0.  1.
<scales pt_clust_5="13000.00000" pt_clust_6="13000.00000" pt_clust_7="13000.00000" pt_clust_8="13000.00000" pt_clust_9="29.02735" pt_clust_10="13000.00000"></scales>
<clustering>
<clus scale="   29.027">  2  9  1 -1</clus>
<clus scale="   80.017">  5  6 -1 -1</clus>
<clus scale="   84.675">  1  5  2 -1</clus>
<clus scale="   96.274">  7  8 -1 -1</clus>
<clus scale="  191.187">  7 10 -1 -1</clus>
<clus scale="   29.027">  2  5  1 -1</clus>
</clustering>
</event>
<event>
10    4  0.2565852E-005  0.1841927E+03  0.7546771E-02  0.1199121E+00
         21   -1    0    0  503  502  0.00000000000E+00  0.00000000000E+00  0.62746829349E+03  0.62746829349E+03  0.00000000000E+00 0. -1.
          2   -1    0    0  502    0 -0.00000000000E+00 -0.00000000000E+00 -0.25751866307E+03  0.25751866307E+03  0.00000000000E+00 0. -1.
         24    2    1    2    0    0 -0.13529325873E+02  0.23755736504E+02 -0.20087657807E+03  0.21784355430E+03  0.79731028208E+02 0.  0.
         23    2    1    2    0    0 -0.67948440224E+02  0.65379985978E+02  0.12858133406E+03  0.18367209655E+03  0.91163295725E+02 0.  0.
        -13    1    3    3    0    0 -0.35368283014E+02 -0.98607647180E+01 -0.14160970319E+03  0.14629237219E+03  0.00000000000E+00 0.  1.
         14    1    3    3    0    0  0.21838957140E+02  0.33616501222E+02 -0.59266874877E+02  0.71551182108E+02  0.00000000000E+00 0. -1.
        -13    1    4    4    0    0  0.20817118374E+02  0.16806455136E+02  0.12057482184E+02  0.29346076880E+02  0.00000000000E+00 0.  1.
         13    1    4    4    0    0 -0.88765558597E+02  0.48573530842E+02  0.11652385187E+03  0.15432601967E+03  0.00000000000E+00 0. -1.
         21    1    1    2  503  501  0.48495958314E+02 -0.49059356691E+02  0.42225378952E+03  0.42785154110E+03  0.00000000000E+00 0. -1.
          1    1    1    2  501    0  0.32981807783E+02 -0.40076365791E+02  0.19991084905E+02  0.55619764610E+02  0.00000000000E+00 0. -1.
<scales pt_clust_5="13000.00000" pt_clust_6="13000.00000" pt_clust_7="13000.00000" pt_clust_8="13000.00000" pt_clust_9="68.98318" pt_clust_10="13000.00000"></scales>
<clustering>
<clus scale="   68.983">  1  9  2 -1</clus>
<clus scale="   79.731">  5  6 -1 -1</clus>
<clus scale="   83.427">  2  5  1 -1</clus>
<clus scale="   91.163">  7  8 -1 -1</clus>
<clus scale="   51.550">  7 10 -1 -1</clus>
<clus scale="   68.983">  1  5  2 -1</clus>
</clustering>
</event>
<event>
10    4  0.2565852E-005  0.1452922E+03  0.7546771E-02  0.1225409E+00
         21   -1    0    0  501  502  0.00000000000E+00  0.00000000000E+00  0.17737548732E+03  0.17737548732E+03  0.00000000000E+00 0.  1.
          2   -1    0    0  503    0 -0.00000000000E+00 -0.00000000000E+00 -0.35114012559E+03  0.35114012559E+03  0.00000000000E+00 0. -1.
         24    2    1    2    0    0 -0.45631094913E+02  0.60855962334E+01 -0.94689949513E+02  0.13316095678E+03  0.81525594551E+02 0.  0.
         23    2    1    2    0    0  0.50739228134E+01 -0.74959128717E+02 -0.12966595767E+03  0.17458573851E+03  0.89567314587E+02 0.  0.
        -13    1    3    3    0    0 -0.31054622563E+02 -0.31222315682E+02 -0.19907812595E+02  0.48327461980E+02  0.00000000000E+00 0.  1.
         14    1    3    3    0    0 -0.14576472350E+02  0.37307911916E+02 -0.74782136918E+02  0.84833494798E+02  0.00000000000E+00 0. -1.
        -11    1    4    4    0    0  0.45959570617E+02 -0.53947624188E+02 -0.75760506099E+02  0.10374142168E+03  0.00000000000E+00 0. -1.
         11    1    4    4    0    0 -0.40885647804E+02 -0.21011504530E+02 -0.53905451566E+02  0.70844316833E+02  0.00000000000E+00 0.  1.
         21    1    1    2  503  502  0.74964058556E+01  0.60021563365E+02  0.12500015624E+03  0.13886620622E+03  0.00000000000E+00 0.  1.
          1    1    1    2  501    0  0.33060766244E+02  0.88519691188E+01 -0.74408887325E+02  0.81902711401E+02  0.00000000000E+00 0. -1.
<scales pt_clust_5="13000.00000" pt_clust_6="13000.00000" pt_clust_7="13000.00000" pt_clust_8="13000.00000" pt_clust_9="60.48788" pt_clust_10="13000.00000"></scales>
<clustering>
<clus scale="   60.488">  1  9  2 -1</clus>
<clus scale="   81.526">  5  6 -1 -1</clus>
<clus scale="   89.567">  7  8 -1 -1</clus>
<clus scale="   36.397">  7 10 -1 -1</clus>
<clus scale="   97.164">  2  5  1 -1</clus>
<clus scale="   60.488">  1  5  2 -1</clus>
</clustering>
</event>
<event>
10    4  0.2565852E-005  0.2184610E+03  0.7546771E-02  0.1172883E+00
          2   -1    0    0  502    0 -0.00000000000E+00  0.00000000000E+00  0.80909937326E+03  0.80909937326E+03  0.00000000000E+00 0. -1.
         21   -1    0    0  503  502  0.00000000000E+00 -0.00000000000E+00 -0.54398010612E+02  0.54398010612E+02  0.00000000000E+00 0. -1.
         24    2    1    2    0    0  0.43962268366E+02 -0.33991215964E+02  0.20380248091E+03  0.22635639649E+03  0.81324554724E+02 0.  0.
         23    2    1    2    0    0  0.98129119706E+02 -0.74537059853E+01  0.32006486008E+03  0.34667092241E+03  0.89745929838E+02 0.  0.
        -11    1    3    3    0    0  0.27693194008E+02  0.21423284021E+02  0.11676067194E+03  0.12189718867E+03  0.00000000000E+00 0.  1.
         12    1    3    3    0    0  0.16269074358E+02 -0.55414499986E+02  0.87041808972E+02  0.10445920782E+03  0.00000000000E+00 0. -1.
        -11    1    4    4    0    0  0.15743167101E+02 -0.22278262495E+02  0.16737429153E+02  0.32004840647E+02  0.00000000000E+00 0.  1.
         11    1    4    4    0    0  0.82385952605E+02  0.14824556510E+02  0.30332743093E+03  0.31466608177E+03  0.00000000000E+00 0. -1.
         21    1    1    2  503  501 -0.63948713348E+02  0.99547512044E+01  0.27398711475E+02  0.70279615828E+02  0.00000000000E+00 0.  1.
          1    1    1    2  501    0 -0.78142674724E+02  0.31490170745E+02  0.20343531018E+03  0.22019044915E+03  0.00000000000E+00 0. -1.
<scales pt_clust_5="13000.00000" pt_clust_6="13000.00000" pt_clust_7="13000.00000" pt_clust_8="13000.00000" pt_clust_9="64.71889" pt_clust_10="13000.00000"></scales>
<clustering>
<clus scale="   64.719">  2  9  1 -1</clus>
<clus scale="   81.325">  5  6 -1 -1</clus>
<clus scale="   89.648">  1  5  2 -1</clus>
<clus scale="   89.746">  7  8 -1 -1</clus>
<clus scale="   84.762">  7 10 -1 -1</clus>
<clus scale="   64.719">  2  5  1 -1</clus>
</clustering>
</event>
<event>
10    4  0.2565852E-005  0.7730951E+03  0.7546771E-02  0.1004383E+00
         21   -1    0    0  501  502  0.00000000000E+00  0.00000000000E+00  0.36081435272E+03  0.36081435272E+03  0.00000000000E+00 0.  1.
          2   -1    0    0  503    0 -0.00000000000E+00 -0.00000000000E+00 -0.81945546215E+03  0.81945546215E+03  0.00000000000E+00 0. -1.
         24    2    1    2    0    0 -0.58781479260E+02 -0.15843463844E+03 -0.16152517310E+01  0.18712552939E+03  0.80352708413E+02 0.  0.
         23    2    1    2    0    0 -0.24527569325E+03 -0.18490702062E+03 -0.83847338069E+02  0.33174945743E+03  0.93148024288E+02 0.  0.
        -13    1    3    3    0    0 -0.25459645304E+02 -0.11431558608E+03  0.33270968931E+02  0.12175058165E+03  0.00000000000E+00 0.  1.
         14    1    3    3    0    0 -0.33321833956E+02 -0.44119052369E+02 -0.34886220662E+02  0.65374947741E+02  0.00000000000E+00 0. -1.
        -11    1    4    4    0    0 -0.15143639241E+03 -0.66947184371E+02 -0.15667189468E+02  0.16631406214E+03  0.00000000000E+00 0. -1.
         11    1    4    4    0    0 -0.93839300848E+02 -0.11795983625E+03 -0.68180148601E+02  0.16543539529E+03  0.00000000000E+00 0.  1.
         21    1    1    2  503  502  0.64204060934E+02  0.37762180521E+01  0.39613080109E+02  0.75535537192E+02  0.00000000000E+00 0.  1.
          1    1    1    2  501    0  0.23985311158E+03  0.33956544101E+03 -0.41279159974E+03  0.58585929085E+03  0.00000000000E+00 0. -1.
<scales pt_clust_5="13000.00000" pt_clust_6="13000.00000" pt_clust_7="13000.00000" pt_clust_8="13000.00000" pt_clust_9="64.31502" pt_clust_10="13000.00000"></scales>
<clustering>
<clus scale="   64.315">  1  9  2 -1</clus>
<clus scale="   80.353">  5  6 -1 -1</clus>
<clus scale="   93.148">  7  8 -1 -1</clus>
<clus scale="  180.902">  2  5  1 -1</clus>
<clus scale="  321.534">  7 10 -1 -1</clus>
<clus scale="   64.315">  1  5  2 -1</clus>
</clustering>
</event>
<event>
10    4  0.2565852E-005  0.2862685E+03  0.7546771E-02  0.1108135E+00
          2   -1    0    0  503    0 -0.00000000000E+00  0.00000000000E+00  0.15675539148E+04  0.15675539148E+04  0.00000000000E+00 0. -1.
         21   -1    0    0  501  502  0.00000000000E+00 -0.00000000000E+00 -0.40709200743E+03  0.40709200743E+03  0.00000000000E+00 0.  1.
         24    2    1    2    0    0  0.13063267256E+03  0.94996372609E+02  0.95978528852E+03  0.97661263653E+03  0.80593025958E+02 0.  0.
         23    2    1    2    0    0 -0.16586557991E+02 -0.12098140717E+03  0.18577638603E+03  0.24145736585E+03  0.94218783325E+02 0.  0.
        -13    1    3    3    0    0  0.94974985075E+02  0.20383223042E+02  0.56029474506E+03  0.56865272787E+03  0.00000000000E+00 0.  1.
         14    1    3    3    0    0  0.35657687485E+02  0.74613149567E+02  0.39949054346E+03  0.40795990866E+03  0.00000000000E+00 0. -1.
        -11    1    4    4    0    0 -0.24958100285E+02 -0.81319929494E+02  0.18181363969E+03  0.20072876545E+03  0.00000000000E+00 0. -1.
         11    1    4    4    0    0  0.83715422944E+01 -0.39661477677E+02  0.39627463383E+01  0.40728600399E+02  0.00000000000E+00 0.  1.
         21    1    1    2  503  502  0.38030807318E+02  0.56968518467E+02 -0.35178858757E+03  0.35839498427E+03  0.00000000000E+00 0.  1.
          1    1    1    2  501    0 -0.15207692189E+03 -0.30983483904E+02  0.36668882039E+03  0.39818093556E+03  0.00000000000E+00 0. -1.
<scales pt_clust_5="13000.00000" pt_clust_6="13000.00000" pt_clust_7="13000.00000" pt_clust_8="13000.00000" pt_clust_9="68.49638" pt_clust_10="13000.00000"></scales>
<clustering>
<clus scale="   68.496">  2  9  1 -1</clus>
<clus scale="   80.593">  5  6 -1 -1</clus>
<clus scale="   94.219">  7  8 -1 -1</clus>
<clus scale="  141.230">  7 10 -1 -1</clus>
<clus scale="  189.911">  1  5  2 -1</clus>
<clus scale="   68.496">  2  5  1 -1</clus>
</clustering>
</event>
<event>
10    4  0.2565852E-005  0.7025502E+03  0.7546771E-02  0.1021546E+00
          2   -1    0    0  502    0 -0.00000000000E+00  0.00000000000E+00  0.42206053500E+03  0.42206053500E+03  0.00000000000E+00 0. -1.
         21   -1    0    0  503  502  0.00000000000E+00 -0.00000000000E+00 -0.60062735390E+03  0.60062735390E+03  0.00000000000E+00 0.  1.
         24    2    1    2    0    0 -0.12083417540E+03 -0.66659913254E+02 -0.21135835519E+03  0.26553734010E+03  0.82421372817E+02 0.  0.
         23    2    1    2    0    0 -0.27563117383E+03 -0.15314108724E+02 -0.10936182995E+03  0.31110012493E+03  0.92823552881E+02 0.  0.
        -11    1    3    3    0    0 -0.70355774918E+02 -0.13132708175E+02 -0.16153437470E+03  0.17667981576E+03  0.00000000000E+00 0.  1.
         12    1    3    3    0    0 -0.50478400485E+02 -0.53527205079E+02 -0.49823980493E+02  0.88857524337E+02  0.00000000000E+00 0. -1.
        -13    1    4    4    0    0 -0.47673184634E+02  0.27657943118E+02 -0.11458408504E+01  0.55127192037E+02  0.00000000000E+00 0. -1.
         13    1    4    4    0    0 -0.22795798919E+03 -0.42972051842E+02 -0.10821598910E+03  0.25597293289E+03  0.00000000000E+00 0.  1.
         21    1    1    2  503  501  0.49122426371E+02  0.18296128719E+02 -0.21728812373E+02  0.56744183718E+02  0.00000000000E+00 0. -1.
          1    1    1    2  501    0  0.34734292286E+03  0.63677893259E+02  0.16388217861E+03  0.38930624015E+03  0.00000000000E+00 0. -1.
<scales pt_clust_5="13000.00000" pt_clust_6="13000.00000" pt_clust_7="13000.00000" pt_clust_8="13000.00000" pt_clust_9="52.41909" pt_clust_10="13000.00000"></scales>
<clustering>
<clus scale="   52.419">  2  9  1 -1</clus>
<clus scale="   82.421">  5  6 -1 -1</clus>
<clus scale="   92.824">  7  8 -1 -1</clus>
<clus scale="  142.320">  1  5  2 -1</clus>
<clus scale="  282.932">  7 10 -1 -1</clus>
<clus scale="   52.419">  2  5  1 -1</clus>
</clustering>
</event>
<event>
10    4  0.2565852E-005  0.3818333E+03  0.7546771E-02  0.1089401E+00
         -1   -1    0    0    0  501 -0.00000000000E+00  0.00000000000E+00  0.40703182695E+03  0.40703182695E+03  0.00000000000E+00 0.  1.
         21   -1    0    0  501  502  0.00000000000E+00 -0.00000000000E+00 -0.41757968242E+03  0.41757968242E+03  0.00000000000E+00 0.  1.
         24    2    1    2    0    0 -0.85303480956E+02 -0.55893182867E+02  0.66063708974E+02  0.14606638898E+03  0.81057045304E+02 0.  0.
         23    2    1    2    0    0  0.16137328894E+01  0.61420948531E+02  0.77845775947E+02  0.13784928715E+03  0.95746143958E+02 0.  0.
        -11    1    3    3    0    0 -0.46151822632E+02 -0.67798687147E+01  0.68886040800E+02  0.83194014022E+02  0.00000000000E+00 0.  1.
         12    1    3    3    0    0 -0.39151658324E+02 -0.49113314152E+02 -0.28223318253E+01  0.62872374962E+02  0.00000000000E+00 0. -1.
        -13    1    4    4    0    0  0.89609021695E+01 -0.23052266964E+02  0.34972754815E+02  0.42834546329E+02  0.00000000000E+00 0.  1.
         13    1    4    4    0    0 -0.73471692801E+01  0.84473215495E+02  0.42873021132E+02  0.95014740822E+02  0.00000000000E+00 0. -1.
         21    1    1    2  503  502  0.18966814243E+03  0.18265392543E+03 -0.18606557142E+03  0.32242341353E+03  0.00000000000E+00 0.  1.
         -2    1    1    2    0  503 -0.10597839437E+03 -0.18818169109E+03  0.31608231023E+02  0.21827241970E+03  0.00000000000E+00 0.  1.
<scales pt_clust_5="13000.00000" pt_clust_6="13000.00000" pt_clust_7="13000.00000" pt_clust_8="13000.00000" pt_clust_9="240.65427" pt_clust_10="13000.00000"></scales>
<clustering>
<clus scale="   81.057">  5  6 -1 -1</clus>
<clus scale="   95.746">  7  8 -1 -1</clus>
<clus scale="  130.273">  1  5  2 -1</clus>
<clus scale="  240.654">  2  9  1 -1</clus>
<clus scale="   89.020">  7 10 -1 -1</clus>
<clus scale="  240.654">  2  5  1 -1</clus>
</clustering>
</event>
<event>
10    4  0.2565852E-005  0.2443206E+03  0.7546771E-02  0.1156088E+00
         21   -1    0    0  503  502  0.00000000000E+00  0.00000000000E+00  0.53790291803E+02  0.53790291803E+02  0.00000000000E+00 0. -1.
         -1   -1    0    0    0  501 -0.00000000000E+00 -0.00000000000E+00 -0.74255384419E+03  0.74255384419E+03  0.00000000000E+00 0.  1.
         24    2    1    2    0    0 -0.17256916352E+02  0.48093449656E+02 -0.32642141038E+03  0.33996020086E+03  0.80070093999E+02 0.  0.
         23    2    1    2    0    0  0.18817987772E+02 -0.21893646256E+02 -0.32635171932E+03  0.34013094841E+03  0.91379258885E+02 0.  0.
        -13    1    3    3    0    0  0.28354831330E+02  0.12556314304E+02 -0.17785863332E+03  0.18054182600E+03  0.00000000000E+00 0.  1.
         14    1    3    3    0    0 -0.45611747682E+02  0.35537135352E+02 -0.14856277705E+03  0.15941837486E+03  0.00000000000E+00 0. -1.
        -13    1    4    4    0    0 -0.10690439372E+02  0.32000614719E+02 -0.13522660276E+03  0.13937201631E+03  0.00000000000E+00 0. -1.
         13    1    4    4    0    0  0.29508427144E+02 -0.53894260976E+02 -0.19112511656E+03  0.20075893210E+03  0.00000000000E+00 0.  1.
         21    1    1    2  503  501  0.30757412975E+02  0.20652491742E+01 -0.59712809612E+02  0.67200471269E+02  0.00000000000E+00 0.  1.
         -2    1    1    2    0  502 -0.32318484394E+02 -0.28265052574E+02  0.23722386926E+02  0.49052515450E+02  0.00000000000E+00 0.  1.
<scales pt_clust_5="13000.00000" pt_clust_6="13000.00000" pt_clust_7="13000.00000" pt_clust_8="13000.00000" pt_clust_9="30.82669" pt_clust_10="13000.00000"></scales>
<clustering>
<clus scale="   30.827">  1  9  2 -1</clus>
<clus scale="   80.070">  5  6 -1 -1</clus>
<clus scale="   91.379">  7  8 -1 -1</clus>
<clus scale="   28.555">  7 10 -1 -1</clus>
<clus scale="   94.460">  2  5  1 -1</clus>
<clus scale="   30.827">  1  5  2 -1</clus>
</clustering>
</event>
<event>
10    4  0.2565852E-005  0.1922471E+03  0.7546771E-02  0.1184407E+00
         -1   -1    0    0    0  501 -0.00000000000E+00  0.00000000000E+00  0.38324714581E+03  0.38324714581E+03  0.00000000000E+00 0.  1.
         21   -1    0    0  503  502  0.00000000000E+00 -0.00000000000E+00 -0.41736653938E+03  0.41736653938E+03  0.00000000000E+00 0.  1.
         24    2    1    2    0    0  0.46139690734E+02  0.12371262157E+02  0.11223362739E+03  0.14551851079E+03  0.79355722406E+02 0.  0.
         23    2    1    2    0    0 -0.57511395764E+02  0.48906123197E+02  0.11132139798E+03  0.16290634607E+03  0.91905682149E+02 0.  0.
        -13    1    3    3    0    0  0.40391078501E+02 -0.27413177548E+01  0.12067065353E+03  0.12728063744E+03  0.00000000000E+00 0.  1.
         14    1    3    3    0    0  0.57486122337E+01  0.15112579912E+02 -0.84370261399E+01  0.18237873349E+02  0.00000000000E+00 0. -1.
        -13    1    4    4    0    0  0.21796514740E+02  0.30070330667E+02  0.29724545657E+02  0.47569543363E+02  0.00000000000E+00 0.  1.
         13    1    4    4    0    0 -0.79307910503E+02  0.18835792529E+02  0.81596852326E+02  0.11533680270E+03  0.00000000000E+00 0. -1.
         21    1    1    2  503  501  0.52652959079E+02  0.18408189245E+02 -0.35525936621E+03  0.35961147480E+03  0.00000000000E+00 0.  1.
         -2    1    1    2    0  502 -0.41281254049E+02 -0.79685574599E+02  0.97584947270E+02  0.13257735353E+03  0.00000000000E+00 0.  1.
<scales pt_clust_5="13000.00000" pt_clust_6="13000.00000" pt_clust_7="13000.00000" pt_clust_8="13000.00000" pt_clust_9="55.77809" pt_clust_10="13000.00000"></scales>
<clustering>
<clus scale="   55.778">  2  9  1 -1</clus>
<clus scale="   79.356">  5  6 -1 -1</clus>
<clus scale="   91.906">  7  8 -1 -1</clus>
<clus scale="   78.699">  7 10 -1 -1</clus>
<clus scale="  101.464">  1  5  2 -1</clus>
<clus scale="   55.778">  2  5  1 -1</clus>
</clustering>
</event>
<event>
10    4  0.2565852E-005  0.1379851E+03  0.7546771E-02  0.1238962E+00
          2   -1    0    0  503    0 -0.00000000000E+00  0.00000000000E+00  0.10656488044E+03  0.10656488044E+03  0.00000000000E+00 0. -1.
         21   -1    0    0  501  502  0.00000000000E+00 -0.00000000000E+00 -0.20407306361E+03  0.20407306361E+03  0.00000000000E+00 0. -1.
         24    2    1    2    0    0 -0.28790942375E+02  0.11713354458E+02  0.42543597759E+02  0.96462810474E+02  0.80802197116E+02 0.  0.
         23    2    1    2    0    0 -0.40136784798E+02 -0.20010718375E+02 -0.66030906888E+02  0.96862961230E+02  0.54872235694E+02 0.  0.
        -11    1    3    3    0    0  0.27953123992E+02  0.49000736881E+00  0.20032035771E+02  0.34393309019E+02  0.00000000000E+00 0.  1.
         12    1    3    3    0    0 -0.56744066367E+02  0.11223347089E+02  0.22511561988E+02  0.62069501455E+02  0.00000000000E+00 0. -1.
        -13    1    4    4    0    0 -0.17062176772E+02 -0.21154739870E+02 -0.68436063494E+02  0.73635152486E+02  0.00000000000E+00 0.  1.
         13    1    4    4    0    0 -0.23074608026E+02  0.11440214946E+01  0.24051566056E+01  0.23227808744E+02  0.00000000000E+00 0. -1.
         21    1    1    2  503  502  0.93019021804E+01 -0.18692759882E+02 -0.36261738594E+01  0.21191833168E+02  0.00000000000E+00 0.  1.
          1    1    1    2  501    0  0.59625824993E+02  0.26990123799E+02 -0.70394700187E+02  0.96120339176E+02  0.00000000000E+00 0. -1.
<scales pt_clust_5="13000.00000" pt_clust_6="13000.00000" pt_clust_7="13000.00000" pt_clust_8="13000.00000" pt_clust_9="20.87930" pt_clust_10="13000.00000"></scales>
<clustering>
<clus scale="   20.879">  2  9  1 -1</clus>
<clus scale="   54.872">  7  8 -1 -1</clus>
<clus scale="   66.404">  7 10 -1 -1</clus>
<clus scale="   80.802">  5  6 -1 -1</clus>
<clus scale="   85.830">  1  5  2 -1</clus>
<clus scale="   20.879">  2  5  1 -1</clus>
</clustering>
</event>
<event>
10    4  0.2565852E-005  0.2418684E+03  0.7546771E-02  0.1162449E+00
          2   -1    0    0  503    0 -0.00000000000E+00  0.00000000000E+00  0.46302383019E+03  0.46302383019E+03  0.00000000000E+00 0. -1.
         21   -1    0    0  501  502  0.00000000000E+00 -0.00000000000E+00 -0.20099834565E+03  0.20099834565E+03  0.00000000000E+00 0.  1.
         24    2    1    2    0    0 -0.35952237728E+01 -0.26718656031E+02  0.17170682526E+03  0.19177696424E+03  0.81045406763E+02 0.  0.
         23    2    1    2    0    0  0.27819972310E+02 -0.68393808656E+02  0.27764019103E+02  0.11925000184E+03  0.89431863791E+02 0.  0.
        -13    1    3    3    0    0 -0.52261225097E+01  0.29027365913E+02  0.64853012906E+02  0.71244744447E+02  0.00000000000E+00 0.  1.
         14    1    3    3    0    0  0.16308987369E+01 -0.55746021944E+02  0.10685381236E+03  0.12053221979E+03  0.00000000000E+00 0. -1.
        -11    1    4    4    0    0  0.58774599769E+02 -0.36989473702E+02  0.50001377597E+01  0.69625254903E+02  0.00000000000E+00 0. -1.
         11    1    4    4    0    0 -0.30954627459E+02 -0.31404334954E+02  0.22763881343E+02  0.49624746940E+02  0.00000000000E+00 0.  1.
         21    1    1    2  503  502  0.67558730383E+01  0.30826049615E+02 -0.13724888880E+03  0.14083019787E+03  0.00000000000E+00 0.  1.
          1    1    1    2  501    0 -0.30980621575E+02  0.64286415073E+02  0.19980352897E+03  0.21216501188E+03  0.00000000000E+00 0. -1.
<scales pt_clust_5="13000.00000" pt_clust_6="13000.00000" pt_clust_7="13000.00000" pt_clust_8="13000.00000" pt_clust_9="31.55768" pt_clust_10="13000.00000"></scales>
<clustering>
<clus scale="   31.558">  2  9  1 -1</clus>
<clus scale="   81.045">  5  6 -1 -1</clus>
<clus scale="   83.944">  1  5  2 -1</clus>
<clus scale="   89.432">  7  8 -1 -1</clus>
<clus scale="   59.994">  7 10 -1 -1</clus>
<clus scale="   31.558">  2  5  1 -1</clus>
</clustering>
</event>
<event>
10    4  0.2565852E-005  0.3811748E+03  0.7546771E-02  0.1052252E+00
          2   -1    0    0  503    0 -0.00000000000E+00  0.00000000000E+00  0.15222458029E+04  0.15222458029E+04  0.00000000000E+00 0. -1.
         21   -1    0    0  501  502  0.00000000000E+00 -0.00000000000E+00 -0.44774926368E+03  0.44774926368E+03  0.00000000000E+00 0. -1.
         24    2    1    2    0    0 -0.32489692585E+03  0.14564750887E+03  0.85893096138E+03  0.93317345405E+03  0.79240707184E+02 0.  0.
         23    2    1    2    0    0  0.11813213545E+03 -0.12284925825E+03  0.25661569116E+03  0.32022221782E+03  0.87427193466E+02 0.  0.
        -11    1    3    3    0    0 -0.49499922478E+02  0.35801674117E+02  0.87409578361E+02  0.10664162688E+03  0.00000000000E+00 0.  1.
         12    1    3    3    0    0 -0.27539700337E+03  0.10984583475E+03  0.77152138301E+03  0.82653182717E+03  0.00000000000E+00 0. -1.
        -13    1    4    4    0    0  0.38231882882E+02 -0.79611960518E+02  0.70092034108E+02  0.11275031872E+03  0.00000000000E+00 0. -1.
         13    1    4    4    0    0  0.79900252566E+02 -0.43237297730E+02  0.18652365705E+03  0.20747189910E+03  0.00000000000E+00 0.  1.
         21    1    1    2  503  502  0.37944892774E+02  0.63696121345E+02 -0.34797655563E+03  0.35578742815E+03  0.00000000000E+00 0. -1.
          1    1    1    2  501    0  0.16881989763E+03 -0.86494371967E+02  0.30692644229E+03  0.36081196653E+03  0.00000000000E+00 0. -1.
<scales pt_clust_5="13000.00000" pt_clust_6="13000.00000" pt_clust_7="13000.00000" pt_clust_8="13000.00000" pt_clust_9="74.14183" pt_clust_10="13000.00000"></scales>
<clustering>
<clus scale="   74.142">  2  9  1 -1</clus>
<clus scale="   79.241">  5  6 -1 -1</clus>
<clus scale="   87.427">  7  8 -1 -1</clus>
<clus scale="  192.145">  7 10 -1 -1</clus>
<clus scale="  362.645">  1  5  2 -1</clus>
<clus scale="   74.142">  2  5  1 -1</clus>
</clustering>
</event>
<event>
10    4  0.2565852E-005  0.2137251E+03  0.7546771E-02  0.1169497E+00
          2   -1    0    0  503    0 -0.00000000000E+00  0.00000000000E+00  0.80276837788E+03  0.80276837788E+03  0.00000000000E+00 0. -1.
         21   -1    0    0  501  502  0.00000000000E+00 -0.00000000000E+00 -0.46327294057E+02  0.46327294057E+02  0.00000000000E+00 0. -1.
         24    2    1    2    0    0 -0.16754546331E+01  0.65555693555E+02  0.11554222475E+03  0.15552900527E+03  0.80863525000E+02 0.  0.
         23    2    1    2    0    0  0.49797019287E+02 -0.11487837044E+03  0.47453921466E+03  0.49899812056E+03  0.90193541611E+02 0.  0.
        -13    1    3    3    0    0 -0.19341283289E+02  0.49150650540E+02  0.11991047626E+03  0.13102821835E+03  0.00000000000E+00 0.  1.
         14    1    3    3    0    0  0.17665828656E+02  0.16405043015E+02 -0.43682515116E+01  0.24500786920E+02  0.00000000000E+00 0. -1.
        -13    1    4    4    0    0  0.59426516423E+01 -0.10176594321E+03  0.38716671490E+03  0.40036194554E+03  0.00000000000E+00 0.  1.
         13    1    4    4    0    0  0.43854367645E+02 -0.13112427229E+02  0.87372499755E+02  0.98636175021E+02  0.00000000000E+00 0. -1.
         21    1    1    2  503  502 -0.24707994397E+02 -0.52398486340E+01  0.97366853887E+01  0.27069245338E+02  0.00000000000E+00 0.  1.
          1    1    1    2  501    0 -0.23413570257E+02  0.54562525519E+02  0.15662295903E+03  0.16749930077E+03  0.00000000000E+00 0. -1.
<scales pt_clust_5="13000.00000" pt_clust_6="13000.00000" pt_clust_7="13000.00000" pt_clust_8="13000.00000" pt_clust_9="25.25749" pt_clust_10="13000.00000"></scales>
<clustering>
<clus scale="   25.257">  2  9  1 -1</clus>
<clus scale="   80.864">  5  6 -1 -1</clus>
<clus scale="   90.194">  7  8 -1 -1</clus>
<clus scale="   60.192">  7 10 -1 -1</clus>
<clus scale="  103.433">  1  5  2 -1</clus>
<clus scale="   25.257">  2  5  1 -1</clus>
</clustering>
</event>
<event>
10    4  0.2565852E-005  0.5411130E+03  0.7546771E-02  0.1058639E+00
          2   -1    0    0  502    0 -0.00000000000E+00  0.00000000000E+00  0.67449112180E+03  0.67449112180E+03  0.00000000000E+00 0. -1.
         21   -1    0    0  503  502  0.00000000000E+00 -0.00000000000E+00 -0.21434452131E+03  0.21434452131E+03  0.00000000000E+00 0. -1.
         24    2    1    2    0    0 -0.52464596547E+02 -0.46359945314E+02  0.10254610270E+03  0.14737403199E+03  0.79382767060E+02 0.  0.
         23    2    1    2    0    0  0.34993616660E+02 -0.21459110445E+03  0.12248426905E+02  0.23618941659E+03  0.91441354057E+02 0.  0.
        -11    1    3    3    0    0 -0.46519643334E+02 -0.47141477388E+02  0.11547647253E+03  0.13312104196E+03  0.00000000000E+00 0.  1.
         12    1    3    3    0    0 -0.59449532128E+01  0.78153207368E+00 -0.12930369822E+02  0.14252990031E+02  0.00000000000E+00 0. -1.
        -13    1    4    4    0    0  0.27314797989E+02 -0.44637365700E+02  0.37249807311E+02  0.64235043010E+02  0.00000000000E+00 0.  1.
         13    1    4    4    0    0  0.76788186707E+01 -0.16995373875E+03 -0.25001380406E+02  0.17195437358E+03  0.00000000000E+00 0. -1.
         21    1    1    2  503  501  0.94831925458E+02  0.51159319236E+02  0.18611300506E+02  0.10934692743E+03  0.00000000000E+00 0. -1.
          1    1    1    2  501    0 -0.77360945572E+02  0.20979173053E+03  0.32674077038E+03  0.39592526710E+03  0.00000000000E+00 0. -1.
<scales pt_clust_5="13000.00000" pt_clust_6="13000.00000" pt_clust_7="13000.00000" pt_clust_8="13000.00000" pt_clust_9="99.83011" pt_clust_10="13000.00000"></scales>
<clustering>
<clus scale="   79.383">  5  6 -1 -1</clus>
<clus scale="   91.441">  7  8 -1 -1</clus>
<clus scale="  105.846">  1  5  2 -1</clus>
<clus scale="   99.830">  2  9  1 -1</clus>
<clus scale="  210.878">  7 10 -1 -1</clus>
<clus scale="   99.830">  2  5  1 -1</clus>
</clustering>
</event>
<event>
10    4  0.2565852E-005  0.2200888E+03  0.7546771E-02  0.1171674E+00
         -3   -1    0    0    0  501 -0.00000000000E+00  0.00000000000E+00  0.44856959886E+03  0.44856959886E+03  0.00000000000E+00 0.  1.
         21   -1    0    0  501  502  0.00000000000E+00 -0.00000000000E+00 -0.18794298802E+03  0.18794298802E+03  0.00000000000E+00 0. -1.
         24    2    1    2    0    0 -0.32768627171E+02  0.22642841962E+02  0.11335382456E+03  0.14481272069E+03  0.80840295097E+02 0.  0.
         23    2    1    2    0    0 -0.12798505353E+02  0.25685535855E+02  0.77487445065E+02  0.12181669979E+03  0.89506735580E+02 0.  0.
        -13    1    3    3    0    0 -0.29399038009E+02 -0.13352715934E+02  0.77702333050E+01  0.33211067196E+02  0.00000000000E+00 0.  1.
         14    1    3    3    0    0 -0.33695891618E+01  0.35995557896E+02  0.10558359126E+03  0.11160165349E+03  0.00000000000E+00 0. -1.
        -13    1    4    4    0    0 -0.16269448548E+02  0.52121092082E+02  0.19474898531E+02  0.57970465486E+02  0.00000000000E+00 0. -1.
         13    1    4    4    0    0  0.34709431951E+01 -0.26435556227E+02  0.58012546534E+02  0.63846234306E+02  0.00000000000E+00 0.  1.
         21    1    1    2  503  502  0.83195281200E+02 -0.14169200698E+03 -0.85192918223E+02  0.18508352971E+03  0.00000000000E+00 0. -1.
         -4    1    1    2    0  503 -0.37628148675E+02  0.93363629162E+02  0.15497825944E+03  0.18479963669E+03  0.00000000000E+00 0.  1.
<scales pt_clust_5="13000.00000" pt_clust_6="13000.00000" pt_clust_7="13000.00000" pt_clust_8="13000.00000" pt_clust_9="158.68639" pt_clust_10="13000.00000"></scales>
<clustering>
<clus scale="   80.840">  5  6 -1 -1</clus>
<clus scale="   89.507">  7  8 -1 -1</clus>
<clus scale="   90.120">  1  5  2 -1</clus>
<clus scale="  118.915">  7 10 -1 -1</clus>
<clus scale="  158.686">  2  9  1 -1</clus>
<clus scale="  158.686">  2  5  1 -1</clus>
</clustering>
</event>
<event>
10    4  0.2565852E-005  0.4464091E+03  0.7546771E-02  0.1048558E+00
          2   -1    0    0  503    0 -0.00000000000E+00  0.00000000000E+00  0.22790257079E+04  0.22790257079E+04  0.00000000000E+00 0. -1.
         21   -1    0    0  501  502  0.00000000000E+00 -0.00000000000E+00 -0.87927795484E+02  0.87927795484E+02  0.00000000000E+00 0. -1.
         24    2    1    2    0    0  0.98087378895E+02 -0.21789901108E+03  0.10120954084E+04  0.10430059808E+04  0.80145164556E+02 0.  0.
         23    2    1    2    0    0 -0.22455503943E+02  0.28974299999E+03  0.57863176727E+03  0.65343480711E+03  0.87789916013E+02 0.  0.
        -11    1    3    3    0    0  0.99479027737E+02 -0.21346527505E+03  0.10112140288E+04  0.10382761255E+04  0.00000000000E+00 0.  1.
         12    1    3    3    0    0 -0.13916488419E+01 -0.44337360381E+01  0.88137956817E+00  0.47298553570E+01  0.00000000000E+00 0. -1.
        -11    1    4    4    0    0  0.11506750319E+02  0.20132212667E+03  0.32254280687E+03  0.38039041294E+03  0.00000000000E+00 0. -1.
         11    1    4    4    0    0 -0.33962254262E+02  0.88420873317E+02  0.25608896040E+03  0.27304439417E+03  0.00000000000E+00 0.  1.
         21    1    1    2  503  502 -0.29853478884E+02 -0.78388072877E+01 -0.25302065888E+02  0.39910796025E+02  0.00000000000E+00 0.  1.
          1    1    1    2  501    0 -0.45778396069E+02 -0.64005181617E+02  0.62567280267E+03  0.63060191945E+03  0.00000000000E+00 0. -1.
<scales pt_clust_5="13000.00000" pt_clust_6="13000.00000" pt_clust_7="13000.00000" pt_clust_8="13000.00000" pt_clust_9="30.86547" pt_clust_10="13000.00000"></scales>
<clustering>
<clus scale="   30.865">  2  9  1 -1</clus>
<clus scale="   80.145">  5  6 -1 -1</clus>
<clus scale="   87.790">  7  8 -1 -1</clus>
<clus scale="   79.754">  7 10 -1 -1</clus>
<clus scale="  250.833">  1  5  2 -1</clus>
<clus scale="   30.865">  2  5  1 -1</clus>
</clustering>
</event>
<event>
10    4  0.2565852E-005  0.4166671E+03  0.7546771E-02  0.1089854E+00
         21   -1    0    0  501  502  0.00000000000E+00  0.00000000000E+00  0.10791164551E+03  0.10791164551E+03  0.00000000000E+00 0. -1.
          2   -1    0    0  503    0 -0.00000000000E+00 -0.00000000000E+00 -0.69544164039E+03  0.69544164039E+03  0.00000000000E+00 0. -1.
         24    2    1    2    0    0 -0.28867868943E+02  0.43776600912E+02 -0.84552591073E+02  0.12760198961E+03  0.79896072810E+02 0.  0.
         23    2    1    2    0    0 -0.13888499815E+03  0.64463001936E+02 -0.28696562716E+03  0.33854579611E+03  0.93911999055E+02 0.  0.
        -13    1    3    3    0    0  0.10928002393E+02  0.32378397147E+02 -0.80531672722E+00  0.34182310822E+02  0.00000000000E+00 0.  1.
         14    1    3    3    0    0 -0.39795871336E+02  0.11398203765E+02 -0.83747274346E+02  0.93419678788E+02  0.00000000000E+00 0. -1.
        -11    1    4    4    0    0 -0.10906290992E+03  0.52306383251E+02 -0.28081691994E+03  0.30575941289E+03  0.00000000000E+00 0. -1.
         11    1    4    4    0    0 -0.29822088230E+02  0.12156618685E+02 -0.61487072196E+01  0.32786383221E+02  0.00000000000E+00 0.  1.
         21    1    1    2  503  502 -0.22740478492E+02  0.19135222048E+02 -0.22559008081E+02  0.37312128464E+02  0.00000000000E+00 0. -1.
          1    1    1    2  501    0  0.19049334558E+03 -0.12737482490E+03 -0.19345276858E+03  0.29989337171E+03  0.00000000000E+00 0. -1.
<scales pt_clust_5="13000.00000" pt_clust_6="13000.00000" pt_clust_7="13000.00000" pt_clust_8="13000.00000" pt_clust_9="29.72013" pt_clust_10="13000.00000"></scales>
<clustering>
<clus scale="   29.720">  1  9  2 -1</clus>
<clus scale="   79.896">  5  6 -1 -1</clus>
<clus scale="   93.912">  7  8 -1 -1</clus>
<clus scale="   99.063">  2  5  1 -1</clus>
<clus scale="  192.065">  7 10 -1 -1</clus>
<clus scale="   29.720">  1  5  2 -1</clus>
</clustering>
</event>
<event>
10    4  0.2565852E-005  0.2796969E+03  0.7546771E-02  0.1128664E+00
          2   -1    0    0  503    0 -0.00000000000E+00  0.00000000000E+00  0.25742017544E+03  0.25742017544E+03  0.00000000000E+00 0. -1.
         21   -1    0    0  501  502  0.00000000000E+00 -0.00000000000E+00 -0.61355921411E+03  0.61355921411E+03  0.00000000000E+00 0. -1.
         24    2    1    2    0    0  0.57032642917E+02  0.11288829775E+03 -0.20048189885E+02  0.14964657765E+03  0.77431764527E+02 0.  0.
         23    2    1    2    0    0  0.10093067529E+03 -0.41646732379E+02  0.86578050963E+02  0.16587183091E+03  0.89979185642E+02 0.  0.
        -13    1    3    3    0    0  0.47913182436E+02  0.15772672827E+02 -0.11448138188E+02  0.51725333515E+02  0.00000000000E+00 0.  1.
         14    1    3    3    0    0  0.91194604807E+01  0.97115624925E+02 -0.86000516966E+01  0.97921244136E+02  0.00000000000E+00 0. -1.
        -13    1    4    4    0    0  0.44756980497E+02 -0.57395047939E+02  0.16393489006E+02  0.74606469645E+02  0.00000000000E+00 0. -1.
         13    1    4    4    0    0  0.56173694794E+02  0.15748315561E+02  0.70184561958E+02  0.91265361266E+02  0.00000000000E+00 0.  1.
         21    1    1    2  503  502 -0.39190286520E+02 -0.58259725369E+02 -0.43005815270E+03  0.43575232514E+03  0.00000000000E+00 0. -1.
          1    1    1    2  501    0 -0.11877303169E+03 -0.12981840004E+02  0.73892529564E+01  0.11970865585E+03  0.00000000000E+00 0. -1.
<scales pt_clust_5="13000.00000" pt_clust_6="13000.00000" pt_clust_7="13000.00000" pt_clust_8="13000.00000" pt_clust_9="70.21449" pt_clust_10="13000.00000"></scales>
<clustering>
<clus scale="   70.214">  2  9  1 -1</clus>
<clus scale="   77.432">  5  6 -1 -1</clus>
<clus scale="   89.979">  7  8 -1 -1</clus>
<clus scale="  121.665">  1  5  2 -1</clus>
<clus scale="  115.651">  7 10 -1 -1</clus>
<clus scale="   70.214">  2  5  1 -1</clus>
</clustering>
</event>
<event>
10    4  0.2565852E-005  0.2809691E+03  0.7546771E-02  0.1137818E+00
         21   -1    0    0  501  502  0.00000000000E+00  0.00000000000E+00  0.56328313181E+03  0.56328313181E+03  0.00000000000E+00 0. -1.
          2   -1    0    0  503    0 -0.00000000000E+00 -0.00000000000E+00 -0.24647435217E+03  0.24647435217E+03  0.00000000000E+00 0. -1.
         24    2    1    2    0    0 -0.50552204161E+02  0.19584236381E+02 -0.21240130738E+02  0.98302304916E+02  0.79203108133E+02 0.  0.
         23    2    1    2    0    0  0.18043132230E+03  0.41808749661E+02  0.61830976407E+02  0.21535894822E+03  0.90845876732E+02 0.  0.
        -13    1    3    3    0    0 -0.25484822465E+02  0.36342845987E+01 -0.50449290221E+02  0.56637576612E+02  0.00000000000E+00 0.  1.
         14    1    3    3    0    0 -0.25067381696E+02  0.15949951783E+02  0.29209159484E+02  0.41664728305E+02  0.00000000000E+00 0. -1.
        -11    1    4    4    0    0  0.19585305378E+02 -0.22623088166E+02  0.23124673337E+02  0.37817176281E+02  0.00000000000E+00 0.  1.
         11    1    4    4    0    0  0.16084601693E+03  0.64431837826E+02  0.38706303071E+02  0.17754177194E+03  0.00000000000E+00 0. -1.
         21    1    1    2  503  502 -0.16731363114E+03 -0.52080801448E+02  0.36192156312E+03  0.40211127676E+03  0.00000000000E+00 0. -1.
          1    1    1    2  501    0  0.37434512995E+02 -0.93121845937E+01 -0.85703629150E+02  0.93984954086E+02  0.00000000000E+00 0. -1.
<scales pt_clust_5="13000.00000" pt_clust_6="13000.00000" pt_clust_7="13000.00000" pt_clust_8="13000.00000" pt_clust_9="179.83725" pt_clust_10="13000.00000"></scales>
<clustering>
<clus scale="   79.203">  5  6 -1 -1</clus>
<clus scale="   90.846">  7  8 -1 -1</clus>
<clus scale="   38.575">  7 10 -1 -1</clus>
<clus scale="   95.980">  2  5  1 -1</clus>
<clus scale="  179.837">  1  9  2 -1</clus>
<clus scale="  179.837">  1  5  2 -1</clus>
</clustering>
</event>
<event>
10    4  0.2565852E-005  0.4101663E+03  0.7546771E-02  0.1055693E+00
         -1   -1    0    0    0  501 -0.00000000000E+00  0.00000000000E+00  0.35652211681E+03  0.35652211681E+03  0.00000000000E+00 0.  1.
         21   -1    0    0  501  502  0.00000000000E+00 -0.00000000000E+00 -0.41956628096E+03  0.41956628096E+03  0.00000000000E+00 0.  1.
         24    2    1    2    0    0  0.14371492821E+03 -0.21059304759E+03 -0.12619190076E+03  0.29811252574E+03  0.89125023984E+02 0.  0.
         23    2    1    2    0    0  0.50261652278E+02 -0.14444636483E+02  0.86926786547E+02  0.13807682834E+03  0.93669969005E+02 0.  0.
        -13    1    3    3    0    0  0.13284096048E+03 -0.12326965439E+03 -0.95990101938E+02  0.20507615207E+03  0.00000000000E+00 0.  1.
         14    1    3    3    0    0  0.10873967728E+02 -0.87323393202E+02 -0.30201798822E+02  0.93036373675E+02  0.00000000000E+00 0. -1.
        -13    1    4    4    0    0  0.54023388840E+01 -0.44800967623E+02  0.14023777939E+02  0.47254399933E+02  0.00000000000E+00 0.  1.
         13    1    4    4    0    0  0.44859313394E+02  0.30356331140E+02  0.72903008608E+02  0.90822428411E+02  0.00000000000E+00 0. -1.
         21    1    1    2  503  502 -0.28503095724E+02 -0.49882791371E+01 -0.47422309497E+02  0.55553441231E+02  0.00000000000E+00 0.  1.
         -2    1    1    2    0  503 -0.16547348477E+03  0.23002596321E+03  0.23643259566E+02  0.28434560246E+03  0.00000000000E+00 0.  1.
<scales pt_clust_5="13000.00000" pt_clust_6="13000.00000" pt_clust_7="13000.00000" pt_clust_8="13000.00000" pt_clust_9="28.93630" pt_clust_10="13000.00000"></scales>
<clustering>
<clus scale="   28.936">  2  9  1 -1</clus>
<clus scale="   89.125">  5  6 -1 -1</clus>
<clus scale="   93.670">  7  8 -1 -1</clus>
<clus scale="  264.034">  1  5  2 -1</clus>
<clus scale="  143.772">  7 10 -1 -1</clus>
<clus scale="   28.936">  2  5  1 -1</clus>
</clustering>
</event>
<event>
10    4  0.2565852E-005  0.3665702E+03  0.7546771E-02  0.1102980E+00
         -1   -1    0    0    0  501 -0.00000000000E+00  0.00000000000E+00  0.45988313783E+03  0.45988313783E+03  0.00000000000E+00 0.  1.
         21   -1    0    0  503  502  0.00000000000E+00 -0.00000000000E+00 -0.73918189974E+03  0.73918189974E+03  0.00000000000E+00 0.  1.
         24    2    1    2    0    0  0.36972803105E+02  0.51695923687E+02  0.37923539979E+03  0.39313047602E+03  0.81808471603E+02 0.  0.
         23    2    1    2    0    0  0.94892314015E+02  0.47348850685E+02 -0.16922454757E+02  0.14004073581E+03  0.89880883906E+02 0.  0.
        -13    1    3    3    0    0  0.25872041092E+02  0.67303965927E+02  0.35495736041E+03  0.36220700442E+03  0.00000000000E+00 0.  1.
         14    1    3    3    0    0  0.11100762013E+02 -0.15608042240E+02  0.24278039385E+02  0.30923471607E+02  0.00000000000E+00 0. -1.
        -13    1    4    4    0    0  0.49350895244E+02  0.64065532098E+02  0.14612863521E+02  0.82179310320E+02  0.00000000000E+00 0.  1.
         13    1    4    4    0    0  0.45541418771E+02 -0.16716681413E+02 -0.31535318278E+02  0.57861425493E+02  0.00000000000E+00 0. -1.
         21    1    1    2  503  501 -0.57177460458E+02 -0.68599145762E+01 -0.25824821290E+03  0.26459111829E+03  0.00000000000E+00 0.  1.
         -2    1    1    2    0  502 -0.74687656662E+02 -0.92184859795E+02 -0.38336349405E+03  0.40130270744E+03  0.00000000000E+00 0.  1.
<scales pt_clust_5="13000.00000" pt_clust_6="13000.00000" pt_clust_7="13000.00000" pt_clust_8="13000.00000" pt_clust_9="57.58750" pt_clust_10="13000.00000"></scales>
<clustering>
<clus scale="   57.588">  2  9  1 -1</clus>
<clus scale="   81.808">  5  6 -1 -1</clus>
<clus scale="   89.881">  7  8 -1 -1</clus>
<clus scale="  103.252">  1  5  2 -1</clus>
<clus scale="  141.086">  7 10 -1 -1</clus>
<clus scale="   57.588">  2  5  1 -1</clus>
</clustering>
</event>
<event>
10    4  0.2565852E-005  0.1456064E+03  0.7546771E-02  0.1232526E+00
          2   -1    0    0  502    0 -0.00000000000E+00  0.00000000000E+00  0.14844593551E+03  0.14844593551E+03  0.00000000000E+00 0. -1.
         21   -1    0    0  503  502  0.00000000000E+00 -0.00000000000E+00 -0.32930548555E+03  0.32930548555E+03  0.00000000000E+00 0.  1.
         24    2    1    2    0    0 -0.28622796731E+02  0.27047764623E+02 -0.24929313966E+03  0.26494720944E+03  0.80617046870E+02 0.  0.
         23    2    1    2    0    0 -0.24410162411E+02  0.29533400547E+01  0.33816649342E+02  0.99967648527E+02  0.90804111872E+02 0.  0.
        -11    1    3    3    0    0 -0.41374301552E+02  0.42132151496E+02 -0.22953635115E+03  0.23701031100E+03  0.00000000000E+00 0.  1.
         12    1    3    3    0    0  0.12751504821E+02 -0.15084386874E+02 -0.19756788504E+02  0.27936898442E+02  0.00000000000E+00 0. -1.
        -13    1    4    4    0    0 -0.51394766790E+02 -0.20257890422E+02  0.33031068559E+02  0.64365018977E+02  0.00000000000E+00 0.  1.
         13    1    4    4    0    0  0.26984604379E+02  0.23211230476E+02  0.78558078369E+00  0.35602629550E+02  0.00000000000E+00 0. -1.
         21    1    1    2  503  501  0.18750499134E+02 -0.11454632804E+02 -0.30113030889E+02  0.37277130519E+02  0.00000000000E+00 0. -1.
          1    1    1    2  501    0  0.34282460008E+02 -0.18546471873E+02  0.64729971163E+02  0.75559432567E+02  0.00000000000E+00 0. -1.
<scales pt_clust_5="13000.00000" pt_clust_6="13000.00000" pt_clust_7="13000.00000" pt_clust_8="13000.00000" pt_clust_9="21.97248" pt_clust_10="13000.00000"></scales>
<clustering>
<clus scale="   21.972">  2  9  1 -1</clus>
<clus scale="   80.617">  5  6 -1 -1</clus>
<clus scale="   83.322">  1  5  2 -1</clus>
<clus scale="   90.804">  7  8 -1 -1</clus>
<clus scale="   29.928">  7 10 -1 -1</clus>
<clus scale="   21.972">  2  5  1 -1</clus>
</clustering>
</event>
<event>
10    4  0.2565852E-005  0.3349627E+03  0.7546771E-02  0.1108502E+00
          2   -1    0    0  503    0 -0.00000000000E+00  0.00000000000E+00  0.52832830312E+03  0.52832830312E+03  0.00000000000E+00 0. -1.
         21   -1    0    0  501  502  0.00000000000E+00 -0.00000000000E+00 -0.14578483922E+03  0.14578483922E+03  0.00000000000E+00 0. -1.
         24    2    1    2    0    0 -0.13376921952E+02  0.74173217555E+02  0.98263526595E+02  0.14771030766E+03  0.80510906630E+02 0.  0.
         23    2    1    2    0    0  0.84896737152E+02  0.61322657373E+02  0.23692227747E+03  0.27537252325E+03  0.93434130332E+02 0.  0.
        -11    1    3    3    0    0 -0.29908211932E+02 -0.62520594486E+00  0.11705938702E+02  0.32123527583E+02  0.00000000000E+00 0.  1.
         12    1    3    3    0    0  0.16531289980E+02  0.74798423500E+02  0.86557587893E+02  0.11558678008E+03  0.00000000000E+00 0. -1.
        -13    1    4    4    0    0  0.39129048887E+02  0.64952970911E+01  0.17921785605E+03  0.18355465475E+03  0.00000000000E+00 0.  1.
         13    1    4    4    0    0  0.45767688265E+02  0.54827360282E+02  0.57704421418E+02  0.91817868499E+02  0.00000000000E+00 0. -1.
         21    1    1    2  503  502 -0.30468220151E+02  0.35415917903E+02 -0.33563643516E+02  0.57524932387E+02  0.00000000000E+00 0.  1.
          1    1    1    2  501    0 -0.41051595048E+02 -0.17091179283E+03  0.80921303348E+02  0.19350537905E+03  0.00000000000E+00 0. -1.
<scales pt_clust_5="13000.00000" pt_clust_6="13000.00000" pt_clust_7="13000.00000" pt_clust_8="13000.00000" pt_clust_9="46.71830" pt_clust_10="13000.00000"></scales>
<clustering>
<clus scale="   46.718">  2  9  1 -1</clus>
<clus scale="   80.511">  5  6 -1 -1</clus>
<clus scale="   93.434">  7  8 -1 -1</clus>
<clus scale="  117.440">  1  5  2 -1</clus>
<clus scale="  140.201">  7 10 -1 -1</clus>
<clus scale="   46.718">  2  5  1 -1</clus>
</clustering>
</event>
<event>
10    4  0.2565852E-005  0.4738876E+03  0.7546771E-02  0.1074126E+00
          2   -1    0    0  503    0 -0.00000000000E+00  0.00000000000E+00  0.28825358050E+03  0.28825358050E+03  0.00000000000E+00 0. -1.
         21   -1    0    0  501  502  0.00000000000E+00 -0.00000000000E+00 -0.42243549124E+03  0.42243549124E+03  0.00000000000E+00 0.  1.
         24    2    1    2    0    0 -0.38749823167E+02  0.63521948617E+02  0.16966806603E+02  0.10748942880E+03  0.75693579814E+02 0.  0.
         23    2    1    2    0    0  0.12842893090E+03  0.19890576085E+03 -0.62159165773E+02  0.26092561849E+03  0.90337835403E+02 0.  0.
        -13    1    3    3    0    0 -0.23717809496E+02  0.64521963361E+02  0.40322506040E+02  0.79696441179E+02  0.00000000000E+00 0.  1.
         14    1    3    3    0    0 -0.15032013671E+02 -0.10000147439E+01 -0.23355699437E+02  0.27792987617E+02  0.00000000000E+00 0. -1.
        -11    1    4    4    0    0  0.50120527744E+02  0.15532139078E+03 -0.31603404195E+02  0.16623951664E+03  0.00000000000E+00 0. -1.
         11    1    4    4    0    0  0.78308403155E+02  0.43584370070E+02 -0.30555761577E+02  0.94686101856E+02  0.00000000000E+00 0.  1.
         21    1    1    2  503  502 -0.26503425090E+02 -0.58984749496E+02 -0.11063866951E+03  0.12815048734E+03  0.00000000000E+00 0.  1.
          1    1    1    2  501    0 -0.63175682642E+02 -0.20344295997E+03  0.21649117942E+02  0.21412353711E+03  0.00000000000E+00 0. -1.
<scales pt_clust_5="13000.00000" pt_clust_6="13000.00000" pt_clust_7="13000.00000" pt_clust_8="13000.00000" pt_clust_9="64.66554" pt_clust_10="13000.00000"></scales>
<clustering>
<clus scale="   64.666">  2  9  1 -1</clus>
<clus scale="   75.694">  5  6 -1 -1</clus>
<clus scale="   90.338">  7  8 -1 -1</clus>
<clus scale="  102.698">  1  5  2 -1</clus>
<clus scale="  211.838">  7 10 -1 -1</clus>
<clus scale="   64.666">  2  5  1 -1</clus>
</clustering>
</event>
<event>
10    4  0.2565852E-005  0.1759844E+03  0.7546771E-02  0.1206872E+00
          4   -1    0    0  502    0 -0.00000000000E+00  0.00000000000E+00  0.20209116958E+03  0.20209116958E+03  0.00000000000E+00 0. -1.
         21   -1    0    0  503  502  0.00000000000E+00 -0.00000000000E+00 -0.50982854612E+03  0.50982854612E+03  0.00000000000E+00 0. -1.
         24    2    1    2    0    0 -0.23572816753E+02  0.17377319233E+02 -0.80661128728E+01  0.86320877389E+02  0.80799645933E+02 0.  0.
         23    2    1    2    0    0 -0.73136434925E+02 -0.61939312455E+01  0.91574933297E+02  0.15885338316E+03  0.10705664872E+03 0.  0.
        -13    1    3    3    0    0 -0.35895487141E+02  0.39284977024E+02  0.11529814946E+02  0.54449353069E+02  0.00000000000E+00 0.  1.
         14    1    3    3    0    0  0.12322670389E+02 -0.21907657791E+02 -0.19595927819E+02  0.31871524320E+02  0.00000000000E+00 0. -1.
        -13    1    4    4    0    0 -0.18483610490E+01  0.42360114095E+02  0.20532340421E+02  0.47110218720E+02  0.00000000000E+00 0.  1.
         13    1    4    4    0    0 -0.71288073876E+02 -0.48554045341E+02  0.71042592876E+02  0.11174316444E+03  0.00000000000E+00 0. -1.
         21    1    1    2  503  501  0.56750865312E+02 -0.39453720352E+02 -0.40890827176E+03  0.41470861033E+03  0.00000000000E+00 0. -1.
          3    1    1    2  501    0  0.39958386366E+02  0.28270332365E+02  0.17662074805E+02  0.52036844825E+02  0.00000000000E+00 0. -1.
<scales pt_clust_5="13000.00000" pt_clust_6="13000.00000" pt_clust_7="13000.00000" pt_clust_8="13000.00000" pt_clust_9="69.11770" pt_clust_10="13000.00000"></scales>
<clustering>
<clus scale="   69.118">  2  9  1 -1</clus>
<clus scale="   80.800">  5  6 -1 -1</clus>
<clus scale="   80.903">  1  5  2 -1</clus>
<clus scale="  107.057">  7  8 -1 -1</clus>
<clus scale="   55.092">  7 10 -1 -1</clus>
<clus scale="   69.118">  2  5  1 -1</clus>
</clustering>
</event>
<event>
10    4  0.2565852E-005  0.2340962E+03  0.7546771E-02  0.1129870E+00
         21   -1    0    0  503  502  0.00000000000E+00  0.00000000000E+00  0.95268900807E+02  0.95268900807E+02  0.00000000000E+00 0. -1.
          2   -1    0    0  502    0 -0.00000000000E+00 -0.00000000000E+00 -0.15024610278E+04  0.15024610278E+04  0.00000000000E+00 0. -1.
         24    2    1    2    0    0 -0.14246004692E+03 -0.11382494904E+03 -0.10321064013E+04  0.10511714984E+04  0.80417108704E+02 0.  0.
         23    2    1    2    0    0  0.98096867802E+02  0.15632031603E+03 -0.36439990548E+03  0.41873956545E+03  0.92176438892E+02 0.  0.
        -13    1    3    3    0    0 -0.41225760033E+02 -0.84210291159E+02 -0.49820783977E+03  0.50695363500E+03  0.00000000000E+00 0.  1.
         14    1    3    3    0    0 -0.10123428689E+03 -0.29614657880E+02 -0.53389856155E+03  0.54421786339E+03  0.00000000000E+00 0. -1.
        -11    1    4    4    0    0  0.32140112367E+02 -0.43142664520E+00 -0.93624997639E+02  0.98988954610E+02  0.00000000000E+00 0.  1.
         11    1    4    4    0    0  0.65956755435E+02  0.15675174267E+03 -0.27077490784E+03  0.31975061084E+03  0.00000000000E+00 0. -1.
         21    1    1    2  503  501  0.11257116731E+02 -0.29641918750E+02  0.49001471519E+02  0.58365317058E+02  0.00000000000E+00 0. -1.
          1    1    1    2  501    0  0.33106062392E+02 -0.12853448236E+02 -0.59687291735E+02  0.69453547737E+02  0.00000000000E+00 0. -1.
<scales pt_clust_5="13000.00000" pt_clust_6="13000.00000" pt_clust_7="13000.00000" pt_clust_8="13000.00000" pt_clust_9="31.70751" pt_clust_10="13000.00000"></scales>
<clustering>
<clus scale="   31.708">  1  9  2 -1</clus>
<clus scale="   80.417">  5  6 -1 -1</clus>
<clus scale="   92.176">  7  8 -1 -1</clus>
<clus scale="   38.106">  7 10 -1 -1</clus>
<clus scale="  201.451">  2  5  1 -1</clus>
<clus scale="   31.708">  1  5  2 -1</clus>
</clustering>
</event>
<event>
10    4  0.3866459E-005  0.4843339E+03  0.7546771E-02  0.1062370E+00
         21   -1    0    0  501  502  0.00000000000E+00  0.00000000000E+00  0.43676615232E+03  0.43676615232E+03  0.00000000000E+00 0. -1.
          2   -1    0    0  503    0 -0.00000000000E+00 -0.00000000000E+00 -0.51307570444E+03  0.51307570444E+03  0.00000000000E+00 0. -1.
         24    2    1    2    0    0 -0.15277833472E+01  0.11087291287E+03  0.48921628235E+02  0.14169596884E+03  0.73411749377E+02 0.  0.
         23    2    1    2    0    0  0.51231384571E+02 -0.50910642576E+02 -0.36550688966E+03  0.38285796959E+03  0.88138471707E+02 0.  0.
        -11    1    3    3    0    0  0.28704942282E+02  0.19839112492E+02  0.21021495257E+01  0.34956875268E+02  0.00000000000E+00 0.  1.
         12    1    3    3    0    0 -0.30232725629E+02  0.91033800382E+02  0.46819478709E+02  0.10673909358E+03  0.00000000000E+00 0. -1.
        -11    1    4    4    0    0 -0.18079708480E+02 -0.37507898833E+02 -0.10498003497E+03  0.11293593792E+03  0.00000000000E+00 0.  1.
         11    1    4    4    0    0  0.69311093051E+02 -0.13402743743E+02 -0.26052685470E+03  0.26992203166E+03  0.00000000000E+00 0. -1.
         21    1    1    2  503  502 -0.13984077950E+03 -0.16224112518E+03  0.15653110780E+03  0.26529156417E+03  0.00000000000E+00 0. -1.
          1    1    1    2  501    0  0.90137178277E+02  0.10227885488E+03  0.83744601503E+02  0.15999635416E+03  0.00000000000E+00 0. -1.
<scales pt_clust_5="13000.00000" pt_clust_6="13000.00000" pt_clust_7="13000.00000" pt_clust_8="13000.00000" pt_clust_9="204.70044" pt_clust_10="13000.00000"></scales>
<clustering>
<clus scale="   73.412">  5  6 -1 -1</clus>
<clus scale="   88.138">  7  8 -1 -1</clus>
<clus scale="  132.983">  2  5  1 -1</clus>
<clus scale="  143.171">  7 10 -1 -1</clus>
<clus scale="  204.700">  1  9  2 -1</clus>
<clus scale="  204.700">  1  5  2 -1</clus>
</clustering>
</event>
<event>
10    4  0.2565852E-005  0.6636252E+03  0.7546771E-02  0.9944402E-01
          2   -1    0    0  503    0 -0.00000000000E+00  0.00000000000E+00  0.18872181930E+04  0.18872181930E+04  0.00000000000E+00 0. -1.
         21   -1    0    0  501  502  0.00000000000E+00 -0.00000000000E+00 -0.42547984923E+03  0.42547984923E+03  0.00000000000E+00 0. -1.
         24    2    1    2    0    0  0.36164498493E+03 -0.16827793650E+03  0.36703893072E+03  0.54799351628E+03  0.80465882100E+02 0.  0.
         23    2    1    2    0    0  0.12534028163E+03  0.95495612070E+02  0.22728253541E+03  0.29108761877E+03  0.90802272981E+02 0.  0.
        -13    1    3    3    0    0  0.43339506022E+02 -0.52329496107E+02  0.67884787083E+02  0.96047036718E+02  0.00000000000E+00 0.  1.
         14    1    3    3    0    0  0.31830547891E+03 -0.11594844039E+03  0.29915414364E+03  0.45194647956E+03  0.00000000000E+00 0. -1.
        -13    1    4    4    0    0  0.80264107972E+02  0.41677692488E+02  0.57004023905E+02  0.10690563980E+03  0.00000000000E+00 0.  1.
         13    1    4    4    0    0  0.45076173663E+02  0.53817919582E+02  0.17027851150E+03  0.18418197897E+03  0.00000000000E+00 0. -1.
         21    1    1    2  503  502 -0.46668114638E+02 -0.28001781663E+02 -0.25656065345E+03  0.26226967342E+03  0.00000000000E+00 0. -1.
          1    1    1    2  501    0 -0.44031715193E+03  0.10078410609E+03  0.11239775311E+04  0.12113472338E+04  0.00000000000E+00 0. -1.
<scales pt_clust_5="13000.00000" pt_clust_6="13000.00000" pt_clust_7="13000.00000" pt_clust_8="13000.00000" pt_clust_9="54.42438" pt_clust_10="13000.00000"></scales>
<clustering>
<clus scale="   54.424">  2  9  1 -1</clus>
<clus scale="   80.466">  5  6 -1 -1</clus>
<clus scale="   90.802">  7  8 -1 -1</clus>
<clus scale="  391.411">  1  5  2 -1</clus>
<clus scale="  181.196">  7 10 -1 -1</clus>
<clus scale="   54.424">  2  5  1 -1</clus>
</clustering>
</event>
<event>
10    4  0.2565852E-005  0.4342760E+03  0.7546771E-02  0.1044807E+00
          2   -1    0    0  503    0 -0.00000000000E+00  0.00000000000E+00  0.17524444491E+04  0.17524444491E+04  0.00000000000E+00 0. -1.
         21   -1    0    0  501  502  0.00000000000E+00 -0.00000000000E+00 -0.16178468065E+03  0.16178468065E+03  0.00000000000E+00 0.  1.
         24    2    1    2    0    0  0.83169582087E+02 -0.26631028560E+03  0.13429124159E+03  0.31980884407E+03  0.80032565730E+02 0.  0.
         23    2    1    2    0    0  0.61146704228E+02 -0.46617881964E+01  0.31809738494E+03  0.33969585538E+03  0.10220898272E+03 0.  0.
        -13    1    3    3    0    0  0.55214459500E+02 -0.12481090041E+03  0.24776511941E+02  0.13870931095E+03  0.00000000000E+00 0.  1.
         14    1    3    3    0    0  0.27955122587E+02 -0.14149938518E+03  0.10951472965E+03  0.18109953312E+03  0.00000000000E+00 0. -1.
        -13    1    4    4    0    0  0.62380376613E+01  0.27123669318E+02  0.18417928060E+02  0.33374041187E+02  0.00000000000E+00 0.  1.
         13    1    4    4    0    0  0.54908666567E+02 -0.31785457514E+02  0.29967945688E+03  0.30632181419E+03  0.00000000000E+00 0. -1.
         21    1    1    2  503  502 -0.53313200044E+02 -0.31113572376E+02 -0.11205681002E+02  0.62736902790E+02  0.00000000000E+00 0.  1.
          1    1    1    2  501    0 -0.91003086271E+02  0.30208564617E+03  0.11494768229E+04  0.11919875275E+04  0.00000000000E+00 0. -1.
<scales pt_clust_5="13000.00000" pt_clust_6="13000.00000" pt_clust_7="13000.00000" pt_clust_8="13000.00000" pt_clust_9="61.72805" pt_clust_10="13000.00000"></scales>
<clustering>
<clus scale="   61.728">  2  9  1 -1</clus>
<clus scale="   80.033">  5  6 -1 -1</clus>
<clus scale="  102.209">  7  8 -1 -1</clus>
<clus scale="  303.436">  1  5  2 -1</clus>
<clus scale="   96.482">  7 10 -1 -1</clus>
<clus scale="   61.728">  2  5  1 -1</clus>
</clustering>
</event>
<event>
10    4  0.2565852E-005  0.6362284E+03  0.7546771E-02  0.9940205E-01
          2   -1    0    0  503    0 -0.00000000000E+00  0.00000000000E+00  0.73371312097E+03  0.73371312097E+03  0.00000000000E+00 0. -1.
         21   -1    0    0  501  502  0.00000000000E+00 -0.00000000000E+00 -0.50566932705E+03  0.50566932705E+03  0.00000000000E+00 0. -1.
         24    2    1    2    0    0  0.43716066686E+03  0.13738818859E+03  0.20731900918E+03  0.50944793121E+03  0.81062075141E+02 0.  0.
         23    2    1    2    0    0 -0.40985134518E+02  0.31934270580E+02  0.19790918570E+03  0.22449019042E+03  0.92348367186E+02 0.  0.
        -11    1    3    3    0    0  0.22015330243E+03  0.34645321626E+02  0.12561832437E+03  0.25582755579E+03  0.00000000000E+00 0.  1.
         12    1    3    3    0    0  0.21700736443E+03  0.10274286696E+03  0.81700684810E+02  0.25362037542E+03  0.00000000000E+00 0. -1.
        -11    1    4    4    0    0 -0.65905745489E+02  0.42736518438E+02  0.14007836485E+03  0.16059864755E+03  0.00000000000E+00 0.  1.
         11    1    4    4    0    0  0.24920610971E+02 -0.10802247858E+02  0.57830820847E+02  0.63891542866E+02  0.00000000000E+00 0. -1.
         21    1    1    2  503  502 -0.49757118913E+02  0.16966369894E+02 -0.87406280187E+02  0.10199748235E+03  0.00000000000E+00 0. -1.
          1    1    1    2  501    0 -0.34641841343E+03 -0.18628882906E+03 -0.89778120782E+02  0.40344684404E+03  0.00000000000E+00 0. -1.
<scales pt_clust_5="13000.00000" pt_clust_6="13000.00000" pt_clust_7="13000.00000" pt_clust_8="13000.00000" pt_clust_9="52.57023" pt_clust_10="13000.00000"></scales>
<clustering>
<clus scale="   52.570">  2  9  1 -1</clus>
<clus scale="   81.062">  5  6 -1 -1</clus>
<clus scale="   92.348">  7  8 -1 -1</clus>
<clus scale="  415.449">  7 10 -1 -1</clus>
<clus scale="  450.169">  1  5  2 -1</clus>
<clus scale="   52.570">  2  5  1 -1</clus>
</clustering>
</event>
<event>
10    4  0.2565852E-005  0.2551908E+03  0.7546771E-02  0.1130317E+00
         21   -1    0    0  503  502  0.00000000000E+00  0.00000000000E+00  0.22756528912E+03  0.22756528912E+03  0.00000000000E+00 0.  1.
         -1   -1    0    0    0  501 -0.00000000000E+00 -0.00000000000E+00 -0.40598679347E+03  0.40598679347E+03  0.00000000000E+00 0.  1.
         24    2    1    2    0    0 -0.66208127365E+02  0.91863062525E+02 -0.12393536262E+03  0.18611457296E+03  0.80351240038E+02 0.  0.
         23    2    1    2    0    0  0.12181652708E+03 -0.13753446132E+03 -0.66653799740E+02  0.21569905743E+03  0.91259848970E+02 0.  0.
        -13    1    3    3    0    0 -0.25969341863E+02  0.94985726554E+02 -0.89185035396E+02  0.13285580719E+03  0.00000000000E+00 0.  1.
         14    1    3    3    0    0 -0.40238785502E+02 -0.31226640293E+01 -0.34750327226E+02  0.53258765773E+02  0.00000000000E+00 0. -1.
        -13    1    4    4    0    0  0.10046280805E+03 -0.12230820170E+03 -0.88699512025E+02  0.18143780046E+03  0.00000000000E+00 0.  1.
         13    1    4    4    0    0  0.21353719028E+02 -0.15226259628E+02  0.22045712285E+02  0.34261256964E+02  0.00000000000E+00 0. -1.
         21    1    1    2  503  501  0.51175522777E+01  0.85196437107E+02  0.90934633586E+02  0.12471459346E+03  0.00000000000E+00 0.  1.
         -2    1    1    2    0  502 -0.60725951991E+02 -0.39525038308E+02 -0.78766975569E+02  0.10702385874E+03  0.00000000000E+00 0.  1.
<scales pt_clust_5="13000.00000" pt_clust_6="13000.00000" pt_clust_7="13000.00000" pt_clust_8="13000.00000" pt_clust_9="85.35000" pt_clust_10="13000.00000"></scales>
<clustering>
<clus scale="   80.351">  5  6 -1 -1</clus>
<clus scale="   85.350">  1  9  2 -1</clus>
<clus scale="   91.260">  7  8 -1 -1</clus>
<clus scale="   66.957">  7 10 -1 -1</clus>
<clus scale="  153.811">  2  5  1 -1</clus>
<clus scale="   85.350">  1  5  2 -1</clus>
</clustering>
</event>
<event>
10    4  0.2565852E-005  0.3734480E+03  0.7546771E-02  0.1082858E+00
          2   -1    0    0  503    0 -0.00000000000E+00  0.00000000000E+00  0.16768214548E+04  0.16768214548E+04  0.00000000000E+00 0. -1.
         21   -1    0    0  501  502  0.00000000000E+00 -0.00000000000E+00 -0.11776512943E+03  0.11776512943E+03  0.00000000000E+00 0. -1.
         24    2    1    2    0    0 -0.16042096106E+02  0.14572639737E+03  0.46395325264E+03  0.49307070546E+03  0.79828367203E+02 0.  0.
         23    2    1    2    0    0  0.58188038645E+02 -0.24421504536E+03  0.83105972641E+03  0.87248155939E+03  0.86815703626E+02 0.  0.
        -13    1    3    3    0    0  0.87876468504E+01  0.11664649494E+03  0.41372134987E+03  0.42994067365E+03  0.00000000000E+00 0.  1.
         14    1    3    3    0    0 -0.24829742956E+02  0.29079902431E+02  0.50231902765E+02  0.63130031807E+02  0.00000000000E+00 0. -1.
        -13    1    4    4    0    0  0.41957212893E+02 -0.53185337410E+02  0.14338697470E+03  0.15858408603E+03  0.00000000000E+00 0.  1.
         13    1    4    4    0    0  0.16230825752E+02 -0.19102970795E+03  0.68767275171E+03  0.71389747336E+03  0.00000000000E+00 0. -1.
         21    1    1    2  503  502 -0.28075218132E+02 -0.81069369188E+01 -0.71203901013E+02  0.76967108682E+02  0.00000000000E+00 0. -1.
          1    1    1    2  501    0 -0.14070724407E+02  0.10659558491E+03  0.33524724735E+03  0.35206721072E+03  0.00000000000E+00 0. -1.
<scales pt_clust_5="13000.00000" pt_clust_6="13000.00000" pt_clust_7="13000.00000" pt_clust_8="13000.00000" pt_clust_9="29.22226" pt_clust_10="13000.00000"></scales>
<clustering>
<clus scale="   29.222">  2  9  1 -1</clus>
<clus scale="   79.828">  5  6 -1 -1</clus>
<clus scale="   86.816">  7  8 -1 -1</clus>
<clus scale="  106.825">  7 10 -1 -1</clus>
<clus scale="  165.752">  1  5  2 -1</clus>
<clus scale="   29.222">  2  5  1 -1</clus>
</clustering>
</event>
<event>
10    4  0.2565852E-005  0.2802657E+03  0.7546771E-02  0.1137309E+00
          2   -1    0    0  503    0 -0.00000000000E+00  0.00000000000E+00  0.59793475380E+03  0.59793475380E+03  0.00000000000E+00 0. -1.
         21   -1    0    0  501  502  0.00000000000E+00 -0.00000000000E+00 -0.27515893102E+03  0.27515893102E+03  0.00000000000E+00 0.  1.
         24    2    1    2    0    0 -0.12409229339E+02 -0.63935778236E+02  0.28429685560E+03  0.30119733334E+03  0.75188820932E+02 0.  0.
         23    2    1    2    0    0 -0.22962669600E+02 -0.35412682213E+02 -0.88982862629E+01  0.10076233958E+03  0.91063314905E+02 0.  0.
        -13    1    3    3    0    0 -0.37938579526E+02 -0.34040186761E+02  0.94482070222E+02  0.10735423478E+03  0.00000000000E+00 0.  1.
         14    1    3    3    0    0  0.25529350187E+02 -0.29895591474E+02  0.18981478538E+03  0.19384309856E+03  0.00000000000E+00 0. -1.
        -11    1    4    4    0    0 -0.92613454521E+01 -0.65580871213E+02 -0.12610020725E+02  0.67421330537E+02  0.00000000000E+00 0. -1.
         11    1    4    4    0    0 -0.13701324148E+02  0.30168189000E+02  0.37117344625E+01  0.33341009038E+02  0.00000000000E+00 0.  1.
         21    1    1    2  503  502 -0.40640184810E+02  0.31290470117E+02 -0.19845195694E+03  0.20497291859E+03  0.00000000000E+00 0.  1.
          1    1    1    2  501    0  0.76012083749E+02  0.68057990331E+02  0.24582921038E+03  0.26616109332E+03  0.00000000000E+00 0. -1.
<scales pt_clust_5="13000.00000" pt_clust_6="13000.00000" pt_clust_7="13000.00000" pt_clust_8="13000.00000" pt_clust_9="51.29053" pt_clust_10="13000.00000"></scales>
<clustering>
<clus scale="   51.291">  2  9  1 -1</clus>
<clus scale="   75.189">  5  6 -1 -1</clus>
<clus scale="   91.063">  7  8 -1 -1</clus>
<clus scale="   97.906">  1  5  2 -1</clus>
<clus scale="   61.459">  7 10 -1 -1</clus>
<clus scale="   51.291">  2  5  1 -1</clus>
</clustering>
</event>
<event>
10    4  0.2565852E-005  0.4444893E+03  0.7546771E-02  0.1034695E+00
          2   -1    0    0  503    0 -0.00000000000E+00  0.00000000000E+00  0.14124947424E+04  0.14124947424E+04  0.00000000000E+00 0. -1.
         21   -1    0    0  501  502  0.00000000000E+00 -0.00000000000E+00 -0.18089753887E+03  0.18089753887E+03  0.00000000000E+00 0. -1.
         24    2    1    2    0    0  0.27357861576E+03 -0.25266561140E+03  0.83666152203E+03  0.91921365004E+03  0.79158460016E+02 0.  0.
         23    2    1    2    0    0  0.58076381609E+01  0.53362186444E+02  0.10339793747E+03  0.14795019430E+03  0.91196901895E+02 0.  0.
        -13    1    3    3    0    0  0.23859952911E+03 -0.21199615152E+03  0.63724774656E+03  0.71271087690E+03  0.00000000000E+00 0.  1.
         14    1    3    3    0    0  0.34979086655E+02 -0.40669459879E+02  0.19941377547E+03  0.20650277314E+03  0.00000000000E+00 0. -1.
        -11    1    4    4    0    0  0.42661487758E-01  0.79197795915E+02  0.80862506620E+02  0.11318585457E+03  0.00000000000E+00 0.  1.
         11    1    4    4    0    0  0.57649766732E+01 -0.25835609472E+02  0.22535430853E+02  0.34764339725E+02  0.00000000000E+00 0. -1.
         21    1    1    2  503  502 -0.63563908549E+02 -0.59842351305E+02  0.11848208876E+03  0.14717161016E+03  0.00000000000E+00 0. -1.
          1    1    1    2  501    0 -0.21582234537E+03  0.25914577626E+03  0.17305565529E+03  0.37905682680E+03  0.00000000000E+00 0. -1.
<scales pt_clust_5="13000.00000" pt_clust_6="13000.00000" pt_clust_7="13000.00000" pt_clust_8="13000.00000" pt_clust_9="87.30112" pt_clust_10="13000.00000"></scales>
<clustering>
<clus scale="   79.158">  5  6 -1 -1</clus>
<clus scale="   87.301">  2  9  1 -1</clus>
<clus scale="   91.197">  7  8 -1 -1</clus>
<clus scale="  338.286">  7 10 -1 -1</clus>
<clus scale="  379.861">  1  5  2 -1</clus>
<clus scale="   87.301">  2  5  1 -1</clus>
</clustering>
</event>
<event>
10    4  0.2565852E-005  0.6428208E+03  0.7546771E-02  0.1044611E+00
         21   -1    0    0  503  502  0.00000000000E+00  0.00000000000E+00  0.62161092167E+03  0.62161092167E+03  0.00000000000E+00 0. -1.
          2   -1    0    0  502    0 -0.00000000000E+00 -0.00000000000E+00 -0.36800790554E+03  0.36800790554E+03  0.00000000000E+00 0. -1.
         24    2    1    2    0    0 -0.17987279948E+02 -0.45754481406E+02 -0.10993902900E+03  0.14470614050E+03  0.80226318583E+02 0.  0.
         23    2    1    2    0    0 -0.13933495712E+03  0.25564979898E+03  0.21954247469E+02  0.30554419543E+03  0.90023421320E+02 0.  0.
        -11    1    3    3    0    0  0.23815340943E+01 -0.39306617757E+02 -0.75299503195E+01  0.40092169510E+02  0.00000000000E+00 0.  1.
         12    1    3    3    0    0 -0.20368814043E+02 -0.64478636484E+01 -0.10240907868E+03  0.10461397099E+03  0.00000000000E+00 0. -1.
        -13    1    4    4    0    0 -0.73630490150E+01  0.99570511843E+02  0.15572898754E+02  0.10104957444E+03  0.00000000000E+00 0.  1.
         13    1    4    4    0    0 -0.13197190810E+03  0.15607928713E+03  0.63813487147E+01  0.20449462099E+03  0.00000000000E+00 0. -1.
         21    1    1    2  503  501 -0.96636334145E+02 -0.23419419666E+02  0.11041478829E+03  0.14858827601E+03  0.00000000000E+00 0. -1.
          1    1    1    2  501    0  0.25395857121E+03 -0.18647589791E+03  0.23117300937E+03  0.39078021528E+03  0.00000000000E+00 0. -1.
<scales pt_clust_5="13000.00000" pt_clust_6="13000.00000" pt_clust_7="13000.00000" pt_clust_8="13000.00000" pt_clust_9="101.72457" pt_clust_10="13000.00000"></scales>
<clustering>
<clus scale="   80.226">  5  6 -1 -1</clus>
<clus scale="   90.023">  7  8 -1 -1</clus>
<clus scale="   94.092">  2  5  1 -1</clus>
<clus scale="  101.725">  1  9  2 -1</clus>
<clus scale="  285.446">  7 10 -1 -1</clus>
<clus scale="  101.725">  1  5  2 -1</clus>
</clustering>
</event>
<event>
10    4  0.2565852E-005  0.6928844E+03  0.7546771E-02  0.1026890E+00
          2   -1    0    0  502    0 -0.00000000000E+00  0.00000000000E+00  0.10387528672E+04  0.10387528672E+04  0.00000000000E+00 0. -1.
         21   -1    0    0  503  502  0.00000000000E+00 -0.00000000000E+00 -0.17082929850E+03  0.17082929850E+03  0.00000000000E+00 0. -1.
         24    2    1    2    0    0 -0.94975888700E+02  0.10713973588E+02  0.98763480804E+02  0.15881596757E+03  0.79580636788E+02 0.  0.
         23    2    1    2    0    0  0.12116221835E+03  0.27838276603E+03  0.12408732002E+03  0.33843632751E+03  0.83452005443E+02 0.  0.
        -13    1    3    3    0    0 -0.56086706783E+02 -0.30358266882E+02  0.32127660495E+02  0.71410990854E+02  0.00000000000E+00 0.  1.
         14    1    3    3    0    0 -0.38889181917E+02  0.41072240469E+02  0.66635820308E+02  0.87404976721E+02  0.00000000000E+00 0. -1.
        -13    1    4    4    0    0  0.81539289771E+02  0.23913102567E+03  0.12662321508E+03  0.28260527563E+03  0.00000000000E+00 0.  1.
         13    1    4    4    0    0  0.39622928581E+02  0.39251740351E+02 -0.25358950673E+01  0.55831051877E+02  0.00000000000E+00 0. -1.
         21    1    1    2  503  501 -0.15744068734E+02 -0.13805957308E+02  0.18792108329E+02  0.28135804466E+02  0.00000000000E+00 0. -1.
          1    1    1    2  501    0 -0.10442260918E+02 -0.27529078231E+03  0.62628065953E+03  0.68419406613E+03  0.00000000000E+00 0. -1.
<scales pt_clust_5="13000.00000" pt_clust_6="13000.00000" pt_clust_7="13000.00000" pt_clust_8="13000.00000" pt_clust_9="20.93992" pt_clust_10="13000.00000"></scales>
<clustering>
<clus scale="   20.940">  2  9  1 -1</clus>
<clus scale="   79.581">  5  6 -1 -1</clus>
<clus scale="   83.452">  7  8 -1 -1</clus>
<clus scale="  126.371">  1  5  2 -1</clus>
<clus scale="  284.894">  7 10 -1 -1</clus>
<clus scale="   20.940">  2  5  1 -1</clus>
</clustering>
</event>
<event>
10    4  0.2565852E-005  0.2020159E+03  0.7546771E-02  0.1162635E+00
         21   -1    0    0  503  502  0.00000000000E+00  0.00000000000E+00  0.87610140815E+02  0.87610140815E+02  0.00000000000E+00 0. -1.
         -1   -1    0    0    0  501 -0.00000000000E+00 -0.00000000000E+00 -0.45727669517E+03  0.45727669517E+03  0.00000000000E+00 0.  1.
         24    2    1    2    0    0  0.99028904856E+02 -0.57573924811E+02 -0.21277305071E+03  0.25495346681E+03  0.81286027805E+02 0.  0.
         23    2    1    2    0    0 -0.28106873769E+02  0.33601626022E+02 -0.11542092678E+03  0.15771226008E+03  0.98143267802E+02 0.  0.
        -13    1    3    3    0    0  0.11006614218E+03 -0.55415894376E+02 -0.20981198362E+03  0.24332395171E+03  0.00000000000E+00 0.  1.
         14    1    3    3    0    0 -0.11037237327E+02 -0.21580304349E+01 -0.29610670832E+01  0.11629515099E+02  0.00000000000E+00 0. -1.
        -13    1    4    4    0    0  0.51675584660E+01  0.62808421470E+02 -0.72267440081E+02  0.95886309575E+02  0.00000000000E+00 0. -1.
         13    1    4    4    0    0 -0.33274432235E+02 -0.29206795448E+02 -0.43153486700E+02  0.61825950500E+02  0.00000000000E+00 0.  1.
         21    1    1    2  503  501  0.23426023966E+02  0.16808970737E+02  0.19484866442E+00  0.28833280460E+02  0.00000000000E+00 0.  1.
         -2    1    1    2    0  502 -0.94348055052E+02  0.71633280519E+01 -0.41667425538E+02  0.10338782864E+03  0.00000000000E+00 0.  1.
<scales pt_clust_5="13000.00000" pt_clust_6="13000.00000" pt_clust_7="13000.00000" pt_clust_8="13000.00000" pt_clust_9="28.83262" pt_clust_10="13000.00000"></scales>
<clustering>
<clus scale="   28.833">  1  9  2 -1</clus>
<clus scale="   81.286">  5  6 -1 -1</clus>
<clus scale="   98.143">  7  8 -1 -1</clus>
<clus scale="   85.653">  7 10 -1 -1</clus>
<clus scale="  143.452">  2  5  1 -1</clus>
<clus scale="   28.833">  1  5  2 -1</clus>
</clustering>
</event>
<event>
10    4  0.2565852E-005  0.1920069E+03  0.7546771E-02  0.1192721E+00
          2   -1    0    0  503    0 -0.00000000000E+00  0.00000000000E+00  0.25300890000E+03  0.25300890000E+03  0.00000000000E+00 0. -1.
         21   -1    0    0  501  502  0.00000000000E+00 -0.00000000000E+00 -0.19878138749E+03  0.19878138749E+03  0.00000000000E+00 0. -1.
         24    2    1    2    0    0 -0.22636822888E+02 -0.20272733786E+02  0.10649550222E+03  0.13669767044E+03  0.80134584454E+02 0.  0.
         23    2    1    2    0    0 -0.11573333047E+02 -0.19789672918E+02 -0.32587550241E+02  0.10050129301E+03  0.92265856488E+02 0.  0.
        -13    1    3    3    0    0  0.70433050358E+01  0.25032219910E+02  0.14056261310E+02  0.29560085613E+02  0.00000000000E+00 0.  1.
         14    1    3    3    0    0 -0.29680127924E+02 -0.45304953696E+02  0.92439240909E+02  0.10713758483E+03  0.00000000000E+00 0. -1.
        -11    1    4    4    0    0  0.28690183173E+02 -0.32831616102E+02 -0.37996427076E+02  0.57833987386E+02  0.00000000000E+00 0. -1.
         11    1    4    4    0    0 -0.40263516219E+02  0.13041943184E+02  0.54088768349E+01  0.42667305621E+02  0.00000000000E+00 0.  1.
         21    1    1    2  503  502  0.42275368653E+01  0.20565720793E+02 -0.11285354225E+03  0.11478999494E+03  0.00000000000E+00 0. -1.
          1    1    1    2  501    0  0.29982619070E+02  0.19496685912E+02  0.93173102789E+02  0.99801329105E+02  0.00000000000E+00 0. -1.
<scales pt_clust_5="13000.00000" pt_clust_6="13000.00000" pt_clust_7="13000.00000" pt_clust_8="13000.00000" pt_clust_9="20.99574" pt_clust_10="13000.00000"></scales>
<clustering>
<clus scale="   20.996">  2  9  1 -1</clus>
<clus scale="   80.135">  5  6 -1 -1</clus>
<clus scale="   84.715">  1  5  2 -1</clus>
<clus scale="   92.266">  7  8 -1 -1</clus>
<clus scale="   15.946">  7 10 -1 -1</clus>
<clus scale="   20.996">  2  5  1 -1</clus>
</clustering>
</event>
<event>
10    4  0.2565852E-005  0.2020439E+03  0.7546771E-02  0.1173154E+00
         21   -1    0    0  501  502  0.00000000000E+00  0.00000000000E+00  0.30788270067E+03  0.30788270067E+03  0.00000000000E+00 0. -1.
         -1   -1    0    0    0  501 -0.00000000000E+00 -0.00000000000E+00 -0.34589604219E+03  0.34589604219E+03  0.00000000000E+00 0.  1.
         24    2    1    2    0    0 -0.67462853009E+02  0.24258801485E+02 -0.48635487676E+02  0.11813294633E+03  0.80313488049E+02 0.  0.
         23    2    1    2    0    0 -0.73580725063E+01 -0.93303361536E+02 -0.15839701467E+03  0.20556576580E+03  0.91695208748E+02 0.  0.
        -13    1    3    3    0    0 -0.31281825256E+02 -0.85673650093E+01  0.16757096138E+02  0.36506884358E+02  0.00000000000E+00 0.  1.
         14    1    3    3    0    0 -0.36181027753E+02  0.32826166494E+02 -0.65392583814E+02  0.81626061976E+02  0.00000000000E+00 0. -1.
        -11    1    4    4    0    0  0.33150864868E+02 -0.41649311042E+02 -0.29361628666E+02  0.60792682041E+02  0.00000000000E+00 0.  1.
         11    1    4    4    0    0 -0.40508937375E+02 -0.51654050493E+02 -0.12903538600E+03  0.14477308376E+03  0.00000000000E+00 0. -1.
         21    1    1    2  503  502  0.44012383462E+01  0.43635224709E+02  0.22961502428E+03  0.23376582964E+03  0.00000000000E+00 0. -1.
         -2    1    1    2    0  503  0.70419687169E+02  0.25409335341E+02 -0.60595863449E+02  0.96314201085E+02  0.00000000000E+00 0.  1.
<scales pt_clust_5="13000.00000" pt_clust_6="13000.00000" pt_clust_7="13000.00000" pt_clust_8="13000.00000" pt_clust_9="43.85663" pt_clust_10="13000.00000"></scales>
<clustering>
<clus scale="   43.857">  1  9  2 -1</clus>
<clus scale="   80.313">  5  6 -1 -1</clus>
<clus scale="   91.695">  7  8 -1 -1</clus>
<clus scale="   79.846">  7 10 -1 -1</clus>
<clus scale="  112.627">  2  5  1 -1</clus>
<clus scale="   43.857">  1  5  2 -1</clus>
</clustering>
</event>
<event>
10    4  0.2565852E-005  0.1412920E+03  0.7546771E-02  0.1229451E+00
          2   -1    0    0  503    0 -0.00000000000E+00  0.00000000000E+00  0.11398176349E+03  0.11398176349E+03  0.00000000000E+00 0. -1.
         21   -1    0    0  501  502  0.00000000000E+00 -0.00000000000E+00 -0.36942050414E+03  0.36942050414E+03  0.00000000000E+00 0. -1.
         24    2    1    2    0    0 -0.34927500861E+02  0.34594235968E+02  0.44872953457E+02  0.10481499729E+03  0.80968575548E+02 0.  0.
         23    2    1    2    0    0  0.19076785270E+02 -0.21015059134E+02 -0.43163469164E+02  0.10417351844E+03  0.90462591319E+02 0.  0.
        -11    1    3    3    0    0 -0.37061785571E+02  0.52051048928E+02  0.85611275803E+01  0.64468446155E+02  0.00000000000E+00 0.  1.
         12    1    3    3    0    0  0.21342847106E+01 -0.17456812960E+02  0.36311825877E+02  0.40346551134E+02  0.00000000000E+00 0. -1.
        -11    1    4    4    0    0 -0.28962670848E+02 -0.32804012249E+02 -0.29774030051E+02  0.52928559283E+02  0.00000000000E+00 0. -1.
         11    1    4    4    0    0  0.48039456118E+02  0.11788953115E+02 -0.13389439114E+02  0.51244959161E+02  0.00000000000E+00 0.  1.
         21    1    1    2  503  502 -0.15041044554E+02  0.23646522047E+02 -0.18768803272E+03  0.18976877681E+03  0.00000000000E+00 0. -1.
          1    1    1    2  501    0  0.30891760145E+02 -0.37225698881E+02 -0.69460192220E+02  0.84644975074E+02  0.00000000000E+00 0. -1.
<scales pt_clust_5="13000.00000" pt_clust_6="13000.00000" pt_clust_7="13000.00000" pt_clust_8="13000.00000" pt_clust_9="28.02483" pt_clust_10="13000.00000"></scales>
<clustering>
<clus scale="   28.025">  2  9  1 -1</clus>
<clus scale="   80.969">  5  6 -1 -1</clus>
<clus scale="   90.463">  7  8 -1 -1</clus>
<clus scale="   36.549">  7 10 -1 -1</clus>
<clus scale="   97.159">  1  5  2 -1</clus>
<clus scale="   28.025">  2  5  1 -1</clus>
</clustering>
</event>
<event>
10    4  0.2565852E-005  0.2934960E+03  0.7546771E-02  0.1097825E+00
          2   -1    0    0  503    0 -0.00000000000E+00  0.00000000000E+00  0.13419372516E+04  0.13419372516E+04  0.00000000000E+00 0. -1.
         21   -1    0    0  501  502  0.00000000000E+00 -0.00000000000E+00 -0.12219496439E+03  0.12219496439E+03  0.00000000000E+00 0. -1.
         24    2    1    2    0    0  0.19497327409E+03  0.39242594256E+02  0.29776122028E+03  0.36711859341E+03  0.80992336163E+02 0.  0.
         23    2    1    2    0    0 -0.27266059062E+02  0.72224854319E+00  0.23359631865E+03  0.25266473256E+03  0.92348618689E+02 0.  0.
        -13    1    3    3    0    0  0.15205507014E+02 -0.20067976369E+02  0.41117890406E+02  0.48214230581E+02  0.00000000000E+00 0.  1.
         14    1    3    3    0    0  0.17976776707E+03  0.59310570625E+02  0.25664332987E+03  0.31890436283E+03  0.00000000000E+00 0. -1.
        -11    1    4    4    0    0 -0.28222613107E+01  0.40296930874E+02  0.16438000738E+03  0.16927077310E+03  0.00000000000E+00 0.  1.
         11    1    4    4    0    0 -0.24443797752E+02 -0.39574682331E+02  0.69216311266E+02  0.83393959466E+02  0.00000000000E+00 0. -1.
         21    1    1    2  503  502  0.25788034997E+02  0.82896842376E+01 -0.62137113555E+02  0.67784677433E+02  0.00000000000E+00 0. -1.
          1    1    1    2  501    0 -0.19349525002E+03 -0.48254527037E+02  0.75052186184E+03  0.77656421258E+03  0.00000000000E+00 0. -1.
<scales pt_clust_5="13000.00000" pt_clust_6="13000.00000" pt_clust_7="13000.00000" pt_clust_8="13000.00000" pt_clust_9="27.08767" pt_clust_10="13000.00000"></scales>
<clustering>
<clus scale="   27.088">  2  9  1 -1</clus>
<clus scale="   80.992">  5  6 -1 -1</clus>
<clus scale="   92.349">  7  8 -1 -1</clus>
<clus scale="  193.273">  7 10 -1 -1</clus>
<clus scale="  229.937">  1  5  2 -1</clus>
<clus scale="   27.088">  2  5  1 -1</clus>
</clustering>
</event>
<event>
10    4  0.4084603E-005  0.5430416E+03  0.7546771E-02  0.1052668E+00
         21   -1    0    0  503  502  0.00000000000E+00  0.00000000000E+00  0.19423095325E+04  0.19423095325E+04  0.00000000000E+00 0.  1.
          2   -1    0    0  502    0 -0.00000000000E+00 -0.00000000000E+00 -0.92922050851E+03  0.92922050851E+03  0.00000000000E+00 0. -1.
         24    2    1    2    0    0 -0.38338468477E+02 -0.86699251123E+02  0.13646963765E+02  0.12469233436E+03  0.79845728240E+02 0.  0.
         23    2    1    2    0    0 -0.54640705157E+02  0.32124792866E+02  0.13453808430E+02  0.10639897759E+03  0.84392704034E+02 0.  0.
        -13    1    3    3    0    0 -0.62125764920E+02 -0.69318210597E+02  0.22714718030E+01  0.93111677954E+02  0.00000000000E+00 0.  1.
         14    1    3    3    0    0  0.23787296442E+02 -0.17381040526E+02  0.11375491962E+02  0.31580656408E+02  0.00000000000E+00 0. -1.
        -13    1    4    4    0    0 -0.41888932629E+02 -0.12972541737E+02 -0.20618158340E+02  0.48456970285E+02  0.00000000000E+00 0. -1.
         13    1    4    4    0    0 -0.12751772528E+02  0.45097334604E+02  0.34071966769E+02  0.57942007305E+02  0.00000000000E+00 0.  1.
         21    1    1    2  503  501 -0.12219429125E+03  0.19983870910E+03  0.17850019764E+04  0.18003052547E+04  0.00000000000E+00 0.  1.
          1    1    1    2  501    0  0.21517346489E+03 -0.14526425084E+03 -0.79901372460E+03  0.84013347432E+03  0.00000000000E+00 0. -1.
<scales pt_clust_5="13000.00000" pt_clust_6="13000.00000" pt_clust_7="13000.00000" pt_clust_8="13000.00000" pt_clust_9="233.76533" pt_clust_10="13000.00000"></scales>
<clustering>
<clus scale="   79.846">  5  6 -1 -1</clus>
<clus scale="   84.393">  7  8 -1 -1</clus>
<clus scale="  123.943">  2  5  1 -1</clus>
<clus scale="  233.765">  1  9  2 -1</clus>
<clus scale="  167.416">  7 10 -1 -1</clus>
<clus scale="  233.765">  1  5  2 -1</clus>
</clustering>
</event>
<event>
10    4  0.2565852E-005  0.3523139E+03  0.7546771E-02  0.1108212E+00
          2   -1    0    0  503    0 -0.00000000000E+00  0.00000000000E+00  0.40228432867E+03  0.40228432867E+03  0.00000000000E+00 0. -1.
         21   -1    0    0  501  502  0.00000000000E+00 -0.00000000000E+00 -0.33200419632E+03  0.33200419632E+03  0.00000000000E+00 0. -1.
         24    2    1    2    0    0 -0.98291314499E+01 -0.62931601245E+02 -0.65458010907E+02  0.12092592672E+03  0.79254844022E+02 0.  0.
         23    2    1    2    0    0  0.95652467113E+02  0.17917956018E+03  0.17388855109E+03  0.28239224414E+03  0.90848456778E+02 0.  0.
        -11    1    3    3    0    0  0.13928061173E+02 -0.26889938469E+02  0.11739612048E+02  0.32478888065E+02  0.00000000000E+00 0.  1.
         12    1    3    3    0    0 -0.23757192622E+02 -0.36041662776E+02 -0.77197622955E+02  0.88447038655E+02  0.00000000000E+00 0. -1.
        -13    1    4    4    0    0  0.16244330667E+02  0.99159398374E+02  0.42045494661E+02  0.10892331333E+03  0.00000000000E+00 0.  1.
         13    1    4    4    0    0  0.79408136446E+02  0.80020161809E+02  0.13184305643E+03  0.17346893081E+03  0.00000000000E+00 0. -1.
         21    1    1    2  503  502  0.52892649985E+02 -0.16069587885E+03 -0.67910522987E+02  0.18229820908E+03  0.00000000000E+00 0.  1.
          1    1    1    2  501    0 -0.13871598565E+03  0.44447919914E+02  0.29760115157E+02  0.14867214505E+03  0.00000000000E+00 0. -1.
<scales pt_clust_5="13000.00000" pt_clust_6="13000.00000" pt_clust_7="13000.00000" pt_clust_8="13000.00000" pt_clust_9="177.89066" pt_clust_10="13000.00000"></scales>
<clustering>
<clus scale="   79.255">  5  6 -1 -1</clus>
<clus scale="   90.848">  7  8 -1 -1</clus>
<clus scale="  101.678">  1  5  2 -1</clus>
<clus scale="  144.100">  7 10 -1 -1</clus>
<clus scale="  177.891">  2  9  1 -1</clus>
<clus scale="  177.891">  2  5  1 -1</clus>
</clustering>
</event>
<event>
10    4  0.2565852E-005  0.3752330E+03  0.7546771E-02  0.1103700E+00
         21   -1    0    0  503  502  0.00000000000E+00  0.00000000000E+00  0.10245786117E+03  0.10245786117E+03  0.00000000000E+00 0. -1.
          2   -1    0    0  502    0 -0.00000000000E+00 -0.00000000000E+00 -0.15400236052E+04  0.15400236052E+04  0.00000000000E+00 0. -1.
         24    2    1    2    0    0  0.12453188567E+00 -0.53404189320E+02 -0.15322973355E+03  0.18002366802E+03  0.77956057234E+02 0.  0.
         23    2    1    2    0    0  0.15852456216E+03 -0.10118572300E+03 -0.98418572192E+03  0.10061221538E+04  0.91058584756E+02 0.  0.
        -11    1    3    3    0    0 -0.14069723644E+02 -0.52508119173E+02 -0.15629147634E+03  0.16547533133E+03  0.00000000000E+00 0.  1.
         12    1    3    3    0    0  0.14194255529E+02 -0.89607014708E+00  0.30617427856E+01  0.14548336696E+02  0.00000000000E+00 0. -1.
        -11    1    4    4    0    0  0.43443742352E+02 -0.67136936807E+02 -0.25871277287E+03  0.27078963399E+03  0.00000000000E+00 0.  1.
         11    1    4    4    0    0  0.11508081981E+03 -0.34048786194E+02 -0.72547294905E+03  0.73533251984E+03  0.00000000000E+00 0. -1.
         21    1    1    2  503  501 -0.13310178904E+03  0.15643574994E+02 -0.10939625458E+02  0.13446368688E+03  0.00000000000E+00 0. -1.
          1    1    1    2  501    0 -0.25547305001E+02  0.13894633733E+03 -0.28921066306E+03  0.32187195758E+03  0.00000000000E+00 0. -1.
<scales pt_clust_5="13000.00000" pt_clust_6="13000.00000" pt_clust_7="13000.00000" pt_clust_8="13000.00000" pt_clust_9="133.71087" pt_clust_10="13000.00000"></scales>
<clustering>
<clus scale="   77.956">  5  6 -1 -1</clus>
<clus scale="   91.059">  7  8 -1 -1</clus>
<clus scale="   94.494">  2  5  1 -1</clus>
<clus scale="  129.603">  7 10 -1 -1</clus>
<clus scale="  133.711">  1  9  2 -1</clus>
<clus scale="  133.711">  1  5  2 -1</clus>
</clustering>
</event>
<event>
10    4  0.2565852E-005  0.2877620E+03  0.7546771E-02  0.1113311E+00
          2   -1    0    0  502    0 -0.00000000000E+00  0.00000000000E+00  0.13224566482E+04  0.13224566482E+04  0.00000000000E+00 0. -1.
         21   -1    0    0  503  502  0.00000000000E+00 -0.00000000000E+00 -0.21710839452E+03  0.21710839452E+03  0.00000000000E+00 0.  1.
         24    2    1    2    0    0 -0.13478807332E+03  0.52487282383E+02  0.54821430967E+03  0.57645413870E+03  0.10410429947E+03 0.  0.
         23    2    1    2    0    0  0.16301375150E+03  0.87742729120E+01  0.33889467202E+03  0.38672196650E+03  0.89743019843E+02 0.  0.
        -11    1    3    3    0    0 -0.10193410137E+03  0.80840027968E+02  0.34636269973E+03  0.36999025785E+03  0.00000000000E+00 0.  1.
         12    1    3    3    0    0 -0.32853971955E+02 -0.28352745585E+02  0.20185160995E+03  0.20646388084E+03  0.00000000000E+00 0. -1.
        -11    1    4    4    0    0  0.87546478835E+02  0.19455623591E+02  0.92626311141E+02  0.12892843271E+03  0.00000000000E+00 0.  1.
         11    1    4    4    0    0  0.75467272662E+02 -0.10681350679E+02  0.24626836088E+03  0.25779353379E+03  0.00000000000E+00 0. -1.
         21    1    1    2  503  501  0.26503682902E+02 -0.11612135142E+03 -0.15483764183E+03  0.19534919705E+03  0.00000000000E+00 0.  1.
          1    1    1    2  501    0 -0.54729361073E+02  0.54859796122E+02  0.37307691382E+03  0.38103974047E+03  0.00000000000E+00 0. -1.
<scales pt_clust_5="13000.00000" pt_clust_6="13000.00000" pt_clust_7="13000.00000" pt_clust_8="13000.00000" pt_clust_9="119.10757" pt_clust_10="13000.00000"></scales>
<clustering>
<clus scale="   89.743">  7  8 -1 -1</clus>
<clus scale="   77.491">  7 10 -1 -1</clus>
<clus scale="  104.104">  5  6 -1 -1</clus>
<clus scale="  119.108">  2  9  1 -1</clus>
<clus scale="  163.905">  1  5  2 -1</clus>
<clus scale="  119.108">  2  5  1 -1</clus>
</clustering>
</event>
<event>
10    4  0.2565852E-005  0.2653639E+03  0.7546771E-02  0.1128657E+00
         21   -1    0    0  501  502  0.00000000000E+00  0.00000000000E+00  0.97064770987E+02  0.97064770987E+02  0.00000000000E+00 0. -1.
          2   -1    0    0  503    0 -0.00000000000E+00 -0.00000000000E+00 -0.87904994676E+03  0.87904994676E+03  0.00000000000E+00 0. -1.
         24    2    1    2    0    0 -0.11992783106E+03 -0.62904586824E+02 -0.28432047839E+02  0.15996826092E+03  0.80260771554E+02 0.  0.
         23    2    1    2    0    0  0.10441961343E+02  0.69639185728E+02 -0.15589422905E+03  0.19291864243E+03  0.89196082864E+02 0.  0.
        -13    1    3    3    0    0 -0.38513123192E+01 -0.36038851088E+02 -0.17716595271E+02  0.40342398817E+02  0.00000000000E+00 0.  1.
         14    1    3    3    0    0 -0.11607651874E+03 -0.26865735737E+02 -0.10715452568E+02  0.11962586210E+03  0.00000000000E+00 0. -1.
        -11    1    4    4    0    0 -0.25106476311E+02 -0.77939092446E+01 -0.54274348155E+02  0.60305762923E+02  0.00000000000E+00 0.  1.
         11    1    4    4    0    0  0.35548437654E+02  0.77433094972E+02 -0.10161988090E+03  0.13261287950E+03  0.00000000000E+00 0. -1.
         21    1    1    2  503  502  0.15515491084E+02  0.22760751380E+02 -0.13230760060E+02  0.30558718539E+02  0.00000000000E+00 0.  1.
          1    1    1    2  501    0  0.93970378631E+02 -0.29495350283E+02 -0.58442813882E+03  0.59266909586E+03  0.00000000000E+00 0. -1.
<scales pt_clust_5="13000.00000" pt_clust_6="13000.00000" pt_clust_7="13000.00000" pt_clust_8="13000.00000" pt_clust_9="27.54600" pt_clust_10="13000.00000"></scales>
<clustering>
<clus scale="   27.546">  1  9  2 -1</clus>
<clus scale="   80.261">  5  6 -1 -1</clus>
<clus scale="   89.196">  7  8 -1 -1</clus>
<clus scale="   98.871">  7 10 -1 -1</clus>
<clus scale="  142.486">  2  5  1 -1</clus>
<clus scale="   27.546">  1  5  2 -1</clus>
</clustering>
</event>
<event>
10    4  0.2565852E-005  0.2651216E+03  0.7546771E-02  0.1114020E+00
          2   -1    0    0  503    0 -0.00000000000E+00  0.00000000000E+00  0.16254306478E+04  0.16254306478E+04  0.00000000000E+00 0. -1.
         21   -1    0    0  501  502  0.00000000000E+00 -0.00000000000E+00 -0.51527490049E+02  0.51527490049E+02  0.00000000000E+00 0.  1.
         24    2    1    2    0    0  0.15543347775E+03  0.94858295955E+01  0.36981705698E+03  0.40919094191E+03  0.80143772942E+02 0.  0.
         23    2    1    2    0    0 -0.91042321836E+02 -0.38205397391E+02  0.33940577492E+03  0.36344657199E+03  0.84550422148E+02 0.  0.
        -13    1    3    3    0    0  0.10375500299E+03 -0.20137198837E+02  0.29620903179E+03  0.31450023519E+03  0.00000000000E+00 0.  1.
         14    1    3    3    0    0  0.51678474753E+02  0.29623028432E+02  0.73608025192E+02  0.94690706719E+02  0.00000000000E+00 0. -1.
        -13    1    4    4    0    0 -0.42224909893E+02 -0.43124154051E+02  0.27984380688E+03  0.28627817228E+03  0.00000000000E+00 0. -1.
         13    1    4    4    0    0 -0.48817411943E+02  0.49187566604E+01  0.59561968043E+02  0.77168399705E+02  0.00000000000E+00 0.  1.
         21    1    1    2  503  502  0.65724302301E+02 -0.23076701942E+02  0.75159379647E+02  0.10247512105E+03  0.00000000000E+00 0. -1.
          1    1    1    2  501    0 -0.13011545821E+03  0.51796269737E+02  0.78952094617E+03  0.80184550286E+03  0.00000000000E+00 0. -1.
<scales pt_clust_5="13000.00000" pt_clust_6="13000.00000" pt_clust_7="13000.00000" pt_clust_8="13000.00000" pt_clust_9="69.65786" pt_clust_10="13000.00000"></scales>
<clustering>
<clus scale="   69.658">  2  9  1 -1</clus>
<clus scale="   80.144">  5  6 -1 -1</clus>
<clus scale="   84.550">  7  8 -1 -1</clus>
<clus scale="  128.722">  7 10 -1 -1</clus>
<clus scale="  205.859">  1  5  2 -1</clus>
<clus scale="   69.658">  2  5  1 -1</clus>
</clustering>
</event>
<event>
10    4  0.2565852E-005  0.5182190E+03  0.7546771E-02  0.1031334E+00
         21   -1    0    0  503  502  0.00000000000E+00  0.00000000000E+00  0.65979170021E+03  0.65979170021E+03  0.00000000000E+00 0. -1.
          2   -1    0    0  502    0 -0.00000000000E+00 -0.00000000000E+00 -0.51089946801E+03  0.51089946801E+03  0.00000000000E+00 0. -1.
         24    2    1    2    0    0 -0.48232909941E+01  0.24221178563E+03  0.37118742744E+03  0.45060582962E+03  0.81090654008E+02 0.  0.
         23    2    1    2    0    0 -0.18446533154E+03 -0.16026150542E+03 -0.35201320866E+02  0.26492242283E+03  0.96091354804E+02 0.  0.
        -11    1    3    3    0    0  0.22476844890E+02  0.47606337139E+02  0.42523784558E+02  0.67674545770E+02  0.00000000000E+00 0.  1.
         12    1    3    3    0    0 -0.27300135884E+02  0.19460544849E+03  0.32866364288E+03  0.38293128385E+03  0.00000000000E+00 0. -1.
        -13    1    4    4    0    0 -0.10619209634E+02 -0.51127720664E+02  0.13553696526E+02  0.53949180930E+02  0.00000000000E+00 0. -1.
         13    1    4    4    0    0 -0.17384612190E+03 -0.10913378475E+03 -0.48755017392E+02  0.21097324190E+03  0.00000000000E+00 0.  1.
         21    1    1    2  503  501  0.21456517734E+02  0.12816992513E+02  0.10349211401E+03  0.10646724901E+03  0.00000000000E+00 0. -1.
          1    1    1    2  501    0  0.16783210480E+03 -0.94767272724E+02 -0.29058598838E+03  0.34869566677E+03  0.00000000000E+00 0. -1.
<scales pt_clust_5="13000.00000" pt_clust_6="13000.00000" pt_clust_7="13000.00000" pt_clust_8="13000.00000" pt_clust_9="24.99315" pt_clust_10="13000.00000"></scales>
<clustering>
<clus scale="   24.993">  1  9  2 -1</clus>
<clus scale="   81.091">  5  6 -1 -1</clus>
<clus scale="   96.091">  7  8 -1 -1</clus>
<clus scale="  193.391">  7 10 -1 -1</clus>
<clus scale="  264.676">  2  5  1 -1</clus>
<clus scale="   24.993">  1  5  2 -1</clus>
</clustering>
</event>
<event>
10    4  0.2565852E-005  0.3374290E+03  0.7546771E-02  0.1088664E+00
         21   -1    0    0  501  502  0.00000000000E+00  0.00000000000E+00  0.22237088586E+03  0.22237088586E+03  0.00000000000E+00 0. -1.
          2   -1    0    0  503    0 -0.00000000000E+00 -0.00000000000E+00 -0.47617340749E+03  0.47617340749E+03  0.00000000000E+00 0. -1.
         24    2    1    2    0    0 -0.95473668968E+02  0.11639963052E+03 -0.72774683380E+02  0.18685082723E+03  0.83384540804E+02 0.  0.
         23    2    1    2    0    0  0.58647301750E+01  0.47567581294E+02 -0.49839028112E+02  0.11459723755E+03  0.91386696407E+02 0.  0.
        -11    1    3    3    0    0 -0.99316778620E+02  0.10682823999E+03 -0.86575727968E+02  0.16962149642E+03  0.00000000000E+00 0.  1.
         12    1    3    3    0    0  0.38431096527E+01  0.95713905237E+01  0.13801044588E+02  0.17229330808E+02  0.00000000000E+00 0. -1.
        -11    1    4    4    0    0 -0.29530522717E+02  0.10295560877E+02  0.12605475819E+02  0.33718664955E+02  0.00000000000E+00 0. -1.
         11    1    4    4    0    0  0.35395252892E+02  0.37272020417E+02 -0.62444503931E+02  0.80878572592E+02  0.00000000000E+00 0.  1.
         21    1    1    2  503  502 -0.57289146935E+01  0.74779796110E+02  0.43104977117E+02  0.86503626641E+02  0.00000000000E+00 0. -1.
          1    1    1    2  501    0  0.95337853486E+02 -0.23874700792E+03 -0.17429378725E+03  0.31059260193E+03  0.00000000000E+00 0. -1.
<scales pt_clust_5="13000.00000" pt_clust_6="13000.00000" pt_clust_7="13000.00000" pt_clust_8="13000.00000" pt_clust_9="74.99892" pt_clust_10="13000.00000"></scales>
<clustering>
<clus scale="   74.999">  1  9  2 -1</clus>
<clus scale="   83.385">  5  6 -1 -1</clus>
<clus scale="   91.387">  7  8 -1 -1</clus>
<clus scale="  192.489">  2  5  1 -1</clus>
<clus scale="  117.936">  7 10 -1 -1</clus>
<clus scale="   74.999">  1  5  2 -1</clus>
</clustering>
</event>
<event>
10    4  0.2565852E-005  0.3224799E+03  0.7546771E-02  0.1104622E+00
          2   -1    0    0  503    0 -0.00000000000E+00  0.00000000000E+00  0.17082033978E+04  0.17082033978E+04  0.00000000000E+00 0. -1.
         21   -1    0    0  501  502  0.00000000000E+00 -0.00000000000E+00 -0.82314261360E+02  0.82314261360E+02  0.00000000000E+00 0. -1.
         24    2    1    2    0    0  0.56331692631E+02 -0.10669479530E+03  0.62002794065E+03  0.63684255259E+03  0.81097168017E+02 0.  0.
         23    2    1    2    0    0  0.49257302722E+02  0.23307042670E+03  0.61757875819E+03  0.66811555113E+03  0.90701496221E+02 0.  0.
        -11    1    3    3    0    0 -0.14527635678E+02 -0.29409123318E+02  0.75596902650E+02  0.82406555704E+02  0.00000000000E+00 0.  1.
         12    1    3    3    0    0  0.70859328309E+02 -0.77285671982E+02  0.54443103800E+03  0.55443599688E+03  0.00000000000E+00 0. -1.
        -11    1    4    4    0    0 -0.25156141449E+01  0.16333061040E+03  0.46062630665E+03  0.48873286260E+03  0.00000000000E+00 0.  1.
         11    1    4    4    0    0  0.51772916866E+02  0.69739816301E+02  0.15695245154E+03  0.17938268853E+03  0.00000000000E+00 0. -1.
         21    1    1    2  503  502  0.98513632755E+01 -0.16689589277E+03  0.19557375136E+03  0.25729434623E+03  0.00000000000E+00 0. -1.
          1    1    1    2  501    0 -0.11544035863E+03  0.40520261372E+02  0.19270868620E+03  0.22826520918E+03  0.00000000000E+00 0. -1.
<scales pt_clust_5="13000.00000" pt_clust_6="13000.00000" pt_clust_7="13000.00000" pt_clust_8="13000.00000" pt_clust_9="190.50631" pt_clust_10="13000.00000"></scales>
<clustering>
<clus scale="   81.097">  5  6 -1 -1</clus>
<clus scale="   90.701">  7  8 -1 -1</clus>
<clus scale="  122.345">  7 10 -1 -1</clus>
<clus scale="  145.375">  1  5  2 -1</clus>
<clus scale="  190.506">  2  9  1 -1</clus>
<clus scale="  190.506">  2  5  1 -1</clus>
</clustering>
</event>
<event>
10    4  0.2565852E-005  0.5830317E+03  0.7546771E-02  0.1059092E+00
         21   -1    0    0  501  502  0.00000000000E+00  0.00000000000E+00  0.50289121311E+03  0.50289121311E+03  0.00000000000E+00 0. -1.
          4   -1    0    0  503    0 -0.00000000000E+00 -0.00000000000E+00 -0.33525616110E+03  0.33525616110E+03  0.00000000000E+00 0. -1.
         24    2    1    2    0    0  0.46838941563E+01  0.72957219399E+01  0.17247392838E+03  0.19125117073E+03  0.82186300019E+02 0.  0.
         23    2    1    2    0    0 -0.13707809519E+03  0.87590488157E+02 -0.24916172539E+03  0.31150952479E+03  0.92163554823E+02 0.  0.
        -13    1    3    3    0    0  0.17322890376E+02 -0.34567691190E+02  0.88345871667E+02  0.96436511995E+02  0.00000000000E+00 0.  1.
         14    1    3    3    0    0 -0.12638996219E+02  0.41863413130E+02  0.84128056713E+02  0.94814658733E+02  0.00000000000E+00 0. -1.
        -13    1    4    4    0    0 -0.26940720849E+02  0.70486600864E+02 -0.10412364438E+03  0.12859197743E+03  0.00000000000E+00 0.  1.
         13    1    4    4    0    0 -0.11013737434E+03  0.17103887293E+02 -0.14503808101E+03  0.18291754735E+03  0.00000000000E+00 0. -1.
         21    1    1    2  503  502 -0.29443948510E+02  0.14395161614E+02  0.50831059957E+02  0.60481099842E+02  0.00000000000E+00 0. -1.
          3    1    1    2  501    0  0.16183814954E+03 -0.10928137171E+03  0.19349178907E+03  0.27490557886E+03  0.00000000000E+00 0. -1.
<scales pt_clust_5="13000.00000" pt_clust_6="13000.00000" pt_clust_7="13000.00000" pt_clust_8="13000.00000" pt_clust_9="32.77448" pt_clust_10="13000.00000"></scales>
<clustering>
<clus scale="   32.774">  1  9  2 -1</clus>
<clus scale="   82.186">  5  6 -1 -1</clus>
<clus scale="   83.550">  2  5  1 -1</clus>
<clus scale="   92.164">  7  8 -1 -1</clus>
<clus scale="  176.768">  7 10 -1 -1</clus>
<clus scale="   32.774">  1  5  2 -1</clus>
</clustering>
</event>
<event>
10    4  0.2565852E-005  0.3246313E+03  0.7546771E-02  0.1101274E+00
          2   -1    0    0  502    0 -0.00000000000E+00  0.00000000000E+00  0.33929784509E+03  0.33929784509E+03  0.00000000000E+00 0. -1.
         21   -1    0    0  503  502  0.00000000000E+00 -0.00000000000E+00 -0.33015881941E+03  0.33015881941E+03  0.00000000000E+00 0. -1.
         24    2    1    2    0    0 -0.21434286552E+02 -0.15112062654E+03 -0.80107830211E+02  0.18976948411E+03  0.79361957095E+02 0.  0.
         23    2    1    2    0    0  0.58311058236E+02  0.20247939291E+03  0.14237754765E+03  0.27075963955E+03  0.92958766499E+02 0.  0.
        -11    1    3    3    0    0  0.23963559315E+02 -0.14613540300E+02 -0.10642202447E+02  0.30017731561E+02  0.00000000000E+00 0.  1.
         12    1    3    3    0    0 -0.45397845867E+02 -0.13650708624E+03 -0.69465627764E+02  0.15975175255E+03  0.00000000000E+00 0. -1.
        -11    1    4    4    0    0  0.20152422044E+02 -0.97758965006E+00  0.12305004992E+01  0.20213607477E+02  0.00000000000E+00 0.  1.
         11    1    4    4    0    0  0.38158636192E+02  0.20345698256E+03  0.14114704715E+03  0.25054603208E+03  0.00000000000E+00 0. -1.
         21    1    1    2  503  501 -0.18907872351E+02  0.36248249397E+02 -0.99945855810E+02  0.10798433828E+03  0.00000000000E+00 0. -1.
          1    1    1    2  501    0 -0.17968899333E+02 -0.87607015769E+02  0.46815164042E+02  0.10094320254E+03  0.00000000000E+00 0. -1.
<scales pt_clust_5="13000.00000" pt_clust_6="13000.00000" pt_clust_7="13000.00000" pt_clust_8="13000.00000" pt_clust_9="40.88329" pt_clust_10="13000.00000"></scales>
<clustering>
<clus scale="   40.883">  2  9  1 -1</clus>
<clus scale="   79.362">  5  6 -1 -1</clus>
<clus scale="   92.959">  7  8 -1 -1</clus>
<clus scale="   85.692">  7 10 -1 -1</clus>
<clus scale="  155.364">  1  5  2 -1</clus>
<clus scale="   40.883">  2  5  1 -1</clus>
</clustering>
</event>
<event>
10    4  0.2565852E-005  0.1862978E+03  0.7546771E-02  0.1196473E+00
         21   -1    0    0  503  502  0.00000000000E+00  0.00000000000E+00  0.45539575885E+02  0.45539575885E+02  0.00000000000E+00 0.  1.
          2   -1    0    0  502    0 -0.00000000000E+00 -0.00000000000E+00 -0.69936412141E+03  0.69936412141E+03  0.00000000000E+00 0. -1.
         24    2    1    2    0    0  0.27366866979E+02 -0.81786391791E+01 -0.12283163824E+03  0.14938065661E+03  0.80069555207E+02 0.  0.
         23    2    1    2    0    0 -0.68900925353E+02 -0.36204374361E+01 -0.24363481373E+03  0.26900991574E+03  0.90818319868E+02 0.  0.
        -11    1    3    3    0    0  0.16424035209E+02  0.34489351563E+02 -0.76168535403E+02  0.85210973995E+02  0.00000000000E+00 0.  1.
         12    1    3    3    0    0  0.10942831771E+02 -0.42667990742E+02 -0.46663102834E+02  0.64169682618E+02  0.00000000000E+00 0. -1.
        -13    1    4    4    0    0 -0.72212566041E+02 -0.33733253824E+02 -0.20475753123E+03  0.21972308414E+03  0.00000000000E+00 0.  1.
         13    1    4    4    0    0  0.33116406882E+01  0.30112816387E+02 -0.38877282502E+02  0.49286831604E+02  0.00000000000E+00 0. -1.
         21    1    1    2  503  501 -0.90686583716E+01 -0.22872532527E+02  0.71993144159E+01  0.25636369417E+02  0.00000000000E+00 0. -1.
          1    1    1    2  501    0  0.50602716745E+02  0.34671609142E+02 -0.29455740798E+03  0.30087675553E+03  0.00000000000E+00 0. -1.
<scales pt_clust_5="13000.00000" pt_clust_6="13000.00000" pt_clust_7="13000.00000" pt_clust_8="13000.00000" pt_clust_9="24.60474" pt_clust_10="13000.00000"></scales>
<clustering>
<clus scale="   24.605">  1  9  2 -1</clus>
<clus scale="   80.070">  5  6 -1 -1</clus>
<clus scale="   85.423">  2  5  1 -1</clus>
<clus scale="   90.818">  7  8 -1 -1</clus>
<clus scale="   65.403">  7 10 -1 -1</clus>
<clus scale="   24.605">  1  5  2 -1</clus>
</clustering>
</event>
<event>
10    4  0.2565852E-005  0.2609995E+03  0.7546771E-02  0.1123761E+00
         -3   -1    0    0    0  501 -0.00000000000E+00  0.00000000000E+00  0.37854569492E+03  0.37854569492E+03  0.00000000000E+00 0.  1.
         21   -1    0    0  501  502  0.00000000000E+00 -0.00000000000E+00 -0.30311059305E+03  0.30311059305E+03  0.00000000000E+00 0.  1.
         24    2    1    2    0    0 -0.30566999243E+02 -0.14283268309E+03  0.22584568996E+03  0.28121056649E+03  0.82082825433E+02 0.  0.
         23    2    1    2    0    0 -0.49538902716E+02  0.91846299987E+02 -0.81383633168E+02  0.15944008738E+03  0.88926936380E+02 0.  0.
        -13    1    3    3    0    0 -0.43736100767E+02 -0.10849181476E+03  0.21157676460E+03  0.24176031043E+03  0.00000000000E+00 0.  1.
         14    1    3    3    0    0  0.13169101524E+02 -0.34340868324E+02  0.14268925361E+02  0.39450256060E+02  0.00000000000E+00 0. -1.
        -11    1    4    4    0    0 -0.23534570810E+02 -0.36027315530E+01  0.89876311755E+01  0.25448638706E+02  0.00000000000E+00 0. -1.
         11    1    4    4    0    0 -0.26004331907E+02  0.95449031540E+02 -0.90371264344E+02  0.13399144868E+03  0.00000000000E+00 0.  1.
         21    1    1    2  503  502  0.20032518818E+02 -0.14727524957E+02 -0.13047651696E+03  0.13282440769E+03  0.00000000000E+00 0.  1.
         -4    1    1    2    0  503  0.60073383142E+02  0.65713908057E+02  0.61449562034E+02  0.10818122641E+03  0.00000000000E+00 0.  1.
<scales pt_clust_5="13000.00000" pt_clust_6="13000.00000" pt_clust_7="13000.00000" pt_clust_8="13000.00000" pt_clust_9="24.86366" pt_clust_10="13000.00000"></scales>
<clustering>
<clus scale="   24.864">  2  9  1 -1</clus>
<clus scale="   82.083">  5  6 -1 -1</clus>
<clus scale="   88.927">  7  8 -1 -1</clus>
<clus scale="   89.459">  7 10 -1 -1</clus>
<clus scale="  169.029">  1  5  2 -1</clus>
<clus scale="   24.864">  2  5  1 -1</clus>
</clustering>
</event>
<event>
10    4  0.2565852E-005  0.1864908E+03  0.7546771E-02  0.1191588E+00
          2   -1    0    0  502    0 -0.00000000000E+00  0.00000000000E+00  0.15709713586E+03  0.15709713586E+03  0.00000000000E+00 0. -1.
         21   -1    0    0  503  502  0.00000000000E+00 -0.00000000000E+00 -0.41079916835E+03  0.41079916835E+03  0.00000000000E+00 0. -1.
         24    2    1    2    0    0  0.29960006911E+02  0.40278070348E+02  0.28447015770E+02  0.98967580988E+02  0.80407862895E+02 0.  0.
         23    2    1    2    0    0 -0.49014019043E+02  0.43014690551E+02 -0.35902575169E+02  0.11828271534E+03  0.91919356928E+02 0.  0.
        -11    1    3    3    0    0  0.87558258125E+01 -0.23847242100E+02 -0.68366915620E+00  0.25413044779E+02  0.00000000000E+00 0.  1.
         12    1    3    3    0    0  0.21204181099E+02  0.64125312448E+02  0.29130684926E+02  0.73554536209E+02  0.00000000000E+00 0. -1.
        -13    1    4    4    0    0 -0.53893795730E+02  0.68202058411E+02 -0.25400740812E+02  0.90560806222E+02  0.00000000000E+00 0.  1.
         13    1    4    4    0    0  0.48797766874E+01 -0.25187367860E+02 -0.10501834357E+02  0.27721909117E+02  0.00000000000E+00 0. -1.
         21    1    1    2  503  501  0.89360524505E+02 -0.10139156494E+03 -0.24290320744E+03  0.27797035987E+03  0.00000000000E+00 0. -1.
          1    1    1    2  501    0 -0.70306512373E+02  0.18098804043E+02 -0.33432656519E+01  0.72675648020E+02  0.00000000000E+00 0. -1.
<scales pt_clust_5="13000.00000" pt_clust_6="13000.00000" pt_clust_7="13000.00000" pt_clust_8="13000.00000" pt_clust_9="133.51481" pt_clust_10="13000.00000"></scales>
<clustering>
<clus scale="   80.408">  5  6 -1 -1</clus>
<clus scale="   91.919">  7  8 -1 -1</clus>
<clus scale="   72.599">  7 10 -1 -1</clus>
<clus scale="   94.791">  1  5  2 -1</clus>
<clus scale="  133.515">  2  9  1 -1</clus>
<clus scale="  133.515">  2  5  1 -1</clus>
</clustering>
</event>
<event>
10    4  0.2565852E-005  0.1391979E+03  0.7546771E-02  0.1233019E+00
          2   -1    0    0  502    0 -0.00000000000E+00  0.00000000000E+00  0.13277067375E+03  0.13277067375E+03  0.00000000000E+00 0. -1.
         21   -1    0    0  503  502  0.00000000000E+00 -0.00000000000E+00 -0.33898931479E+03  0.33898931479E+03  0.00000000000E+00 0. -1.
         24    2    1    2    0    0 -0.54830302046E+02  0.31758654031E+02  0.47959332661E+02  0.11230517445E+03  0.79356036263E+02 0.  0.
         23    2    1    2    0    0 -0.98366103767E+01 -0.38526952016E+01 -0.53851328294E+02  0.10525344055E+03  0.89814915381E+02 0.  0.
        -11    1    3    3    0    0 -0.73274595943E+00 -0.22144814224E+02  0.57743233549E-01  0.22157009002E+02  0.00000000000E+00 0.  1.
         12    1    3    3    0    0 -0.54097556086E+02  0.53903468255E+02  0.47901589428E+02  0.90148165451E+02  0.00000000000E+00 0. -1.
        -13    1    4    4    0    0 -0.35776445598E+02  0.37083646296E+01 -0.66358666376E+02  0.75479657067E+02  0.00000000000E+00 0. -1.
         13    1    4    4    0    0  0.25939835221E+02 -0.75610598313E+01  0.12507338082E+02  0.29773783484E+02  0.00000000000E+00 0.  1.
         21    1    1    2  503  501  0.87844984932E+02  0.19170216165E+02 -0.17316314248E+03  0.19511461370E+03  0.00000000000E+00 0. -1.
          1    1    1    2  501    0 -0.23178072510E+02 -0.47076174995E+02 -0.27163502926E+02  0.59086759842E+02  0.00000000000E+00 0. -1.
<scales pt_clust_5="13000.00000" pt_clust_6="13000.00000" pt_clust_7="13000.00000" pt_clust_8="13000.00000" pt_clust_9="89.91239" pt_clust_10="13000.00000"></scales>
<clustering>
<clus scale="   79.356">  5  6 -1 -1</clus>
<clus scale="   89.815">  7  8 -1 -1</clus>
<clus scale="   52.473">  7 10 -1 -1</clus>
<clus scale="   89.912">  2  9  1 -1</clus>
<clus scale="   94.408">  1  5  2 -1</clus>
<clus scale="   89.912">  2  5  1 -1</clus>
</clustering>
</event>
<event>
10    4  0.2565852E-005  0.2187840E+03  0.7546771E-02  0.1162246E+00
         -1   -1    0    0    0  501 -0.00000000000E+00  0.00000000000E+00  0.49158999750E+03  0.49158999750E+03  0.00000000000E+00 0.  1.
         21   -1    0    0  503  502  0.00000000000E+00 -0.00000000000E+00 -0.14256183015E+03  0.14256183015E+03  0.00000000000E+00 0.  1.
         24    2    1    2    0    0  0.35264128974E+02  0.78937122506E+02  0.97923886533E+02  0.15425337868E+03  0.82038949159E+02 0.  0.
         23    2    1    2    0    0  0.49810313027E+02  0.98002319996E+01  0.25559537442E+03  0.27610369465E+03  0.91253180464E+02 0.  0.
        -13    1    3    3    0    0 -0.57688642107E-01  0.70258839003E+02  0.28383947612E+02  0.75775697081E+02  0.00000000000E+00 0.  1.
         14    1    3    3    0    0  0.35321817617E+02  0.86782835027E+01  0.69539938921E+02  0.78477681601E+02  0.00000000000E+00 0. -1.
        -13    1    4    4    0    0  0.44536146000E+02  0.46872864786E+02  0.18830129844E+03  0.19909272399E+03  0.00000000000E+00 0.  1.
         13    1    4    4    0    0  0.52741670261E+01 -0.37072632787E+02  0.67294075985E+02  0.77010970662E+02  0.00000000000E+00 0. -1.
         21    1    1    2  503  501 -0.58297604068E+02 -0.75943396445E+00 -0.69840837386E+02  0.90977634322E+02  0.00000000000E+00 0.  1.
         -2    1    1    2    0  502 -0.26776837933E+02 -0.87977920541E+02  0.65349743780E+02  0.11281712000E+03  0.00000000000E+00 0.  1.
<scales pt_clust_5="13000.00000" pt_clust_6="13000.00000" pt_clust_7="13000.00000" pt_clust_8="13000.00000" pt_clust_9="58.30255" pt_clust_10="13000.00000"></scales>
<clustering>
<clus scale="   58.303">  2  9  1 -1</clus>
<clus scale="   82.039">  5  6 -1 -1</clus>
<clus scale="   91.253">  7  8 -1 -1</clus>
<clus scale="  100.975">  7 10 -1 -1</clus>
<clus scale="  113.954">  1  5  2 -1</clus>
<clus scale="   58.303">  2  5  1 -1</clus>
</clustering>
</event>
<event>
10    4  0.2565852E-005  0.1441325E+03  0.7546771E-02  0.1229268E+00
         21   -1    0    0  501  502  0.00000000000E+00  0.00000000000E+00  0.19148477244E+02  0.19148477244E+02  0.00000000000E+00 0. -1.
          2   -1    0    0  503    0 -0.00000000000E+00 -0.00000000000E+00 -0.10594519345E+04  0.10594519345E+04  0.00000000000E+00 0. -1.
         24    2    1    2    0    0 -0.22981078669E+02 -0.16152246933E+02 -0.40934668951E+03  0.41931276614E+03  0.86426029518E+02 0.  0.
         23    2    1    2    0    0 -0.39139098196E+02  0.27739567296E+02 -0.40732737385E+03  0.41956047164E+03  0.88397099944E+02 0.  0.
        -11    1    3    3    0    0  0.16423835828E+02 -0.41080018923E+02 -0.19669577722E+03  0.20160986859E+03  0.00000000000E+00 0.  1.
         12    1    3    3    0    0 -0.39404914496E+02  0.24927771991E+02 -0.21265091229E+03  0.21770289755E+03  0.00000000000E+00 0. -1.
        -11    1    4    4    0    0  0.12094911130E+02 -0.17240674875E+02 -0.33521346798E+02  0.39587983487E+02  0.00000000000E+00 0. -1.
         11    1    4    4    0    0 -0.51234009326E+02  0.44980242171E+02 -0.37380602705E+03  0.37997248816E+03  0.00000000000E+00 0.  1.
         21    1    1    2  503  502  0.18614656768E+02 -0.29702691351E+02 -0.60441550836E+02  0.69870855065E+02  0.00000000000E+00 0.  1.
          1    1    1    2  501    0  0.43505520097E+02  0.18115370988E+02 -0.16318784305E+03  0.16985631888E+03  0.00000000000E+00 0. -1.
<scales pt_clust_5="13000.00000" pt_clust_6="13000.00000" pt_clust_7="13000.00000" pt_clust_8="13000.00000" pt_clust_9="35.05361" pt_clust_10="13000.00000"></scales>
<clustering>
<clus scale="   35.054">  1  9  2 -1</clus>
<clus scale="   86.426">  5  6 -1 -1</clus>
<clus scale="   88.397">  7  8 -1 -1</clus>
<clus scale="   49.112">  7 10 -1 -1</clus>
<clus scale="   91.874">  2  5  1 -1</clus>
<clus scale="   35.054">  1  5  2 -1</clus>
</clustering>
</event>
<event>
10    4  0.2565852E-005  0.4136696E+03  0.7546771E-02  0.1093085E+00
         -1   -1    0    0    0  501 -0.00000000000E+00  0.00000000000E+00  0.65079585491E+02  0.65079585491E+02  0.00000000000E+00 0.  1.
         21   -1    0    0  501  502  0.00000000000E+00 -0.00000000000E+00 -0.12367823706E+04  0.12367823706E+04  0.00000000000E+00 0.  1.
         24    2    1    2    0    0 -0.56094482473E+02  0.12419401748E+02 -0.24073865508E+03  0.26035580818E+03  0.80803553771E+02 0.  0.
         23    2    1    2    0    0 -0.13973903159E+03  0.12451631378E+03 -0.44648846350E+03  0.49264991395E+03  0.91217763266E+02 0.  0.
        -11    1    3    3    0    0 -0.59011672056E+02  0.30884045489E+02 -0.11231660975E+03  0.13058032980E+03  0.00000000000E+00 0.  1.
         12    1    3    3    0    0  0.29171895827E+01 -0.18464643741E+02 -0.12842204533E+03  0.12977547838E+03  0.00000000000E+00 0. -1.
        -13    1    4    4    0    0 -0.84861437987E+02  0.11630332964E+03 -0.37809161869E+03  0.40457533325E+03  0.00000000000E+00 0.  1.
         13    1    4    4    0    0 -0.54877593601E+02  0.82129841343E+01 -0.68396844803E+02  0.88074580708E+02  0.00000000000E+00 0. -1.
         21    1    1    2  503  502  0.54443987751E+02  0.72891597877E+01 -0.12479939758E+03  0.13635310517E+03  0.00000000000E+00 0.  1.
         -2    1    1    2    0  503  0.14138952631E+03 -0.14422487531E+03 -0.35967626893E+03  0.41250312877E+03  0.00000000000E+00 0.  1.
<scales pt_clust_5="13000.00000" pt_clust_6="13000.00000" pt_clust_7="13000.00000" pt_clust_8="13000.00000" pt_clust_9="54.92977" pt_clust_10="13000.00000"></scales>
<clustering>
<clus scale="   54.930">  2  9  1 -1</clus>
<clus scale="   80.804">  5  6 -1 -1</clus>
<clus scale="   91.218">  7  8 -1 -1</clus>
<clus scale="   92.965">  1  5  2 -1</clus>
<clus scale="  190.181">  7 10 -1 -1</clus>
<clus scale="   54.930">  2  5  1 -1</clus>
</clustering>
</event>
<event>
10    4  0.2565852E-005  0.4199040E+03  0.7546771E-02  0.1084083E+00
         21   -1    0    0  501  502  0.00000000000E+00  0.00000000000E+00  0.15887989308E+03  0.15887989308E+03  0.00000000000E+00 0. -1.
          2   -1    0    0  503    0 -0.00000000000E+00 -0.00000000000E+00 -0.16359342027E+04  0.16359342027E+04  0.00000000000E+00 0. -1.
         24    2    1    2    0    0  0.36069414232E+02  0.71006930076E+02 -0.12872848314E+04  0.12922367325E+04  0.80190704015E+02 0.  0.
         23    2    1    2    0    0  0.40120750988E+02  0.16161808741E+03 -0.49958821541E+02  0.19669377518E+03  0.91991719782E+02 0.  0.
        -13    1    3    3    0    0  0.18373824067E+02  0.21758757080E+02 -0.10497782176E+03  0.10877216547E+03  0.00000000000E+00 0.  1.
         14    1    3    3    0    0  0.17695590165E+02  0.49248172995E+02 -0.11823070096E+04  0.11834645671E+04  0.00000000000E+00 0. -1.
        -13    1    4    4    0    0 -0.21204868350E+02  0.38870789874E+02 -0.39064816201E+02  0.59047816319E+02  0.00000000000E+00 0.  1.
         13    1    4    4    0    0  0.61325619338E+02  0.12274729753E+03 -0.10894005339E+02  0.13764595886E+03  0.00000000000E+00 0. -1.
         21    1    1    2  503  502  0.50598875617E+01 -0.20789501858E+02 -0.62707434979E+02  0.66257288288E+02  0.00000000000E+00 0.  1.
          1    1    1    2  501    0 -0.81250052781E+02 -0.21183551562E+03 -0.77103221740E+02  0.23962629981E+03  0.00000000000E+00 0. -1.
<scales pt_clust_5="13000.00000" pt_clust_6="13000.00000" pt_clust_7="13000.00000" pt_clust_8="13000.00000" pt_clust_9="21.39641" pt_clust_10="13000.00000"></scales>
<clustering>
<clus scale="   21.396">  1  9  2 -1</clus>
<clus scale="   80.191">  5  6 -1 -1</clus>
<clus scale="   91.992">  7  8 -1 -1</clus>
<clus scale="  112.840">  2  5  1 -1</clus>
<clus scale="  191.959">  7 10 -1 -1</clus>
<clus scale="   21.396">  1  5  2 -1</clus>
</clustering>
</event>
<event>
10    4  0.2565852E-005  0.2401499E+03  0.7546771E-02  0.1162553E+00
          2   -1    0    0  502    0 -0.00000000000E+00  0.00000000000E+00  0.39436174670E+03  0.39436174670E+03  0.00000000000E+00 0. -1.
         21   -1    0    0  503  502  0.00000000000E+00 -0.00000000000E+00 -0.10783899130E+03  0.10783899130E+03  0.00000000000E+00 0. -1.
         24    2    1    2    0    0  0.28549757360E+02 -0.69907289882E+01  0.16646091421E+03  0.18732077848E+03  0.80720995750E+02 0.  0.
         23    2    1    2    0    0  0.30380391261E+02 -0.10132439573E+03  0.98001005463E+02  0.16957305993E+03  0.89225692716E+02 0.  0.
        -13    1    3    3    0    0  0.38636740356E+02 -0.29789787745E+02  0.14926202169E+03  0.15703305473E+03  0.00000000000E+00 0.  1.
         14    1    3    3    0    0 -0.10086982997E+02  0.22799058757E+02  0.17198892521E+02  0.30287723753E+02  0.00000000000E+00 0. -1.
        -13    1    4    4    0    0  0.53586924527E+02 -0.28112925718E+02  0.32820749164E+02  0.68841097089E+02  0.00000000000E+00 0.  1.
         13    1    4    4    0    0 -0.23206533266E+02 -0.73211470011E+02  0.65180256299E+02  0.10073196284E+03  0.00000000000E+00 0. -1.
         21    1    1    2  503  501 -0.34220218115E+01  0.24309900735E+02 -0.24225268728E+02  0.34489783298E+02  0.00000000000E+00 0. -1.
          1    1    1    2  501    0 -0.55508126809E+02  0.84005223982E+02  0.46286104457E+02  0.11081711630E+03  0.00000000000E+00 0. -1.
<scales pt_clust_5="13000.00000" pt_clust_6="13000.00000" pt_clust_7="13000.00000" pt_clust_8="13000.00000" pt_clust_9="24.54957" pt_clust_10="13000.00000"></scales>
<clustering>
<clus scale="   24.550">  2  9  1 -1</clus>
<clus scale="   80.721">  5  6 -1 -1</clus>
<clus scale="   85.553">  1  5  2 -1</clus>
<clus scale="   89.226">  7  8 -1 -1</clus>
<clus scale="  102.515">  7 10 -1 -1</clus>
<clus scale="   24.550">  2  5  1 -1</clus>
</clustering>
</event>
<event>
10    4  0.2565852E-005  0.5695986E+03  0.7546771E-02  0.1049753E+00
          2   -1    0    0  502    0 -0.00000000000E+00  0.00000000000E+00  0.29401287585E+04  0.29401287585E+04  0.00000000000E+00 0. -1.
         21   -1    0    0  503  502  0.00000000000E+00 -0.00000000000E+00 -0.29117464672E+03  0.29117464672E+03  0.00000000000E+00 0.  1.
         24    2    1    2    0    0 -0.75603552446E+02 -0.38204808896E+02  0.18293395828E+04  0.18330500817E+04  0.80086129344E+02 0.  0.
         23    2    1    2    0    0 -0.89030361067E+02 -0.18845412461E+03  0.19059093800E+03  0.29673184938E+03  0.91013858903E+02 0.  0.
        -13    1    3    3    0    0 -0.31611843074E+02 -0.17034904028E+02  0.21543570830E+03  0.21840796915E+03  0.00000000000E+00 0.  1.
         14    1    3    3    0    0 -0.43991709372E+02 -0.21169904868E+02  0.16139038745E+04  0.16146421125E+04  0.00000000000E+00 0. -1.
        -13    1    4    4    0    0 -0.57536923644E+02 -0.72971966624E+02  0.13709656273E+03  0.16562268265E+03  0.00000000000E+00 0. -1.
         13    1    4    4    0    0 -0.31493437423E+02 -0.11548215799E+03  0.53494375264E+02  0.13110916673E+03  0.00000000000E+00 0.  1.
         21    1    1    2  503  501 -0.25955736528E+02  0.37114404571E+02 -0.21293436118E+03  0.21769754582E+03  0.00000000000E+00 0.  1.
          1    1    1    2  501    0  0.19058965004E+03  0.18954452894E+03  0.84195795211E+03  0.88382392832E+03  0.00000000000E+00 0. -1.
<scales pt_clust_5="13000.00000" pt_clust_6="13000.00000" pt_clust_7="13000.00000" pt_clust_8="13000.00000" pt_clust_9="45.28995" pt_clust_10="13000.00000"></scales>
<clustering>
<clus scale="   45.290">  2  9  1 -1</clus>
<clus scale="   80.086">  5  6 -1 -1</clus>
<clus scale="   91.014">  7  8 -1 -1</clus>
<clus scale="  116.693">  1  5  2 -1</clus>
<clus scale="  209.715">  7 10 -1 -1</clus>
<clus scale="   45.290">  2  5  1 -1</clus>
</clustering>
</event>
<event>
10    4  0.2565852E-005  0.3681173E+03  0.7546771E-02  0.1085006E+00
         21   -1    0    0  501  502  0.00000000000E+00  0.00000000000E+00  0.37421277108E+03  0.37421277108E+03  0.00000000000E+00 0.  1.
          2   -1    0    0  503    0 -0.00000000000E+00 -0.00000000000E+00 -0.43774446408E+03  0.43774446408E+03  0.00000000000E+00 0. -1.
         24    2    1    2    0    0  0.11294729639E+03 -0.57984728679E+02  0.21859507922E+03  0.26542431890E+03  0.80913162590E+02 0.  0.
         23    2    1    2    0    0  0.37278187502E+02 -0.34733376256E+02 -0.26705186611E+03  0.28822544155E+03  0.95713819662E+02 0.  0.
        -13    1    3    3    0    0  0.73465913269E+02 -0.66120253459E+02  0.19524947939E+03  0.21884123819E+03  0.00000000000E+00 0.  1.
         14    1    3    3    0    0  0.39481383124E+02  0.81355247803E+01  0.23345599830E+02  0.46583080708E+02  0.00000000000E+00 0. -1.
        -13    1    4    4    0    0  0.69485207394E+02 -0.21451099984E+02 -0.16271760192E+03  0.17822839760E+03  0.00000000000E+00 0. -1.
         13    1    4    4    0    0 -0.32207019892E+02 -0.13282276272E+02 -0.10433426419E+03  0.10999704395E+03  0.00000000000E+00 0.  1.
         21    1    1    2  503  502  0.33442863311E+02  0.31622848852E+02  0.35638548665E+02  0.58211131470E+02  0.00000000000E+00 0.  1.
          1    1    1    2  501    0 -0.18366834721E+03  0.61095256082E+02 -0.50713454779E+02  0.20009634324E+03  0.00000000000E+00 0. -1.
<scales pt_clust_5="13000.00000" pt_clust_6="13000.00000" pt_clust_7="13000.00000" pt_clust_8="13000.00000" pt_clust_9="46.02640" pt_clust_10="13000.00000"></scales>
<clustering>
<clus scale="   46.026">  1  9  2 -1</clus>
<clus scale="   80.913">  5  6 -1 -1</clus>
<clus scale="   95.714">  7  8 -1 -1</clus>
<clus scale="  163.398">  2  5  1 -1</clus>
<clus scale="  146.279">  7 10 -1 -1</clus>
<clus scale="   46.026">  1  5  2 -1</clus>
</clustering>
</event>
<event>
10    4  0.2565852E-005  0.4129022E+03  0.7546771E-02  0.1072375E+00
          2   -1    0    0  502    0 -0.00000000000E+00  0.00000000000E+00  0.10233491088E+04  0.10233491088E+04  0.00000000000E+00 0. -1.
         21   -1    0    0  503  502  0.00000000000E+00 -0.00000000000E+00 -0.24347891676E+03  0.24347891676E+03  0.00000000000E+00 0.  1.
         24    2    1    2    0    0  0.10944167656E+03  0.77550149834E+02 -0.10990093449E+03  0.19291402084E+03  0.84534594849E+02 0.  0.
         23    2    1    2    0    0 -0.11460930446E+03 -0.16618368140E+01  0.96404637215E+02  0.17491033023E+03  0.90342211466E+02 0.  0.
        -11    1    3    3    0    0  0.79516378150E+02  0.56438871086E+02 -0.12028855126E+03  0.15484681504E+03  0.00000000000E+00 0.  1.
         12    1    3    3    0    0  0.29925298407E+02  0.21111278748E+02  0.10387616768E+02  0.38067205798E+02  0.00000000000E+00 0. -1.
        -11    1    4    4    0    0 -0.52503004182E+02 -0.13089259888E+02 -0.61647907632E+01  0.54460066266E+02  0.00000000000E+00 0. -1.
         11    1    4    4    0    0 -0.62106300283E+02  0.11427423074E+02  0.10256942798E+03  0.12045026396E+03  0.00000000000E+00 0.  1.
         21    1    1    2  503  501 -0.43739093515E+02  0.50894942043E+02 -0.23354363711E+02  0.71055117560E+02  0.00000000000E+00 0.  1.
          1    1    1    2  501    0  0.48906721423E+02 -0.12678325506E+03  0.81672085305E+03  0.82794855696E+03  0.00000000000E+00 0. -1.
<scales pt_clust_5="13000.00000" pt_clust_6="13000.00000" pt_clust_7="13000.00000" pt_clust_8="13000.00000" pt_clust_9="67.10740" pt_clust_10="13000.00000"></scales>
<clustering>
<clus scale="   67.107">  2  9  1 -1</clus>
<clus scale="   84.535">  5  6 -1 -1</clus>
<clus scale="   90.342">  7  8 -1 -1</clus>
<clus scale="  134.082">  7 10 -1 -1</clus>
<clus scale="  162.854">  1  5  2 -1</clus>
<clus scale="   67.107">  2  5  1 -1</clus>
</clustering>
</event>
<event>
10    4  0.2565852E-005  0.4810167E+03  0.7546771E-02  0.1072303E+00
         21   -1    0    0  503  502  0.00000000000E+00  0.00000000000E+00  0.78058688632E+03  0.78058688632E+03  0.00000000000E+00 0. -1.
          2   -1    0    0  502    0 -0.00000000000E+00 -0.00000000000E+00 -0.17376487441E+03  0.17376487441E+03  0.00000000000E+00 0. -1.
         24    2    1    2    0    0 -0.38956026715E+01 -0.67159585957E+02  0.46915384209E+02  0.11778505244E+03  0.84538036385E+02 0.  0.
         23    2    1    2    0    0  0.66477457686E+02 -0.14793228863E+03 -0.15001171314E+02  0.18654881396E+03  0.90951692940E+02 0.  0.
        -13    1    3    3    0    0  0.35667572941E+02 -0.17598912600E+02  0.35578958474E+02  0.53364405462E+02  0.00000000000E+00 0.  1.
         14    1    3    3    0    0 -0.39563175613E+02 -0.49560673357E+02  0.11336425736E+02  0.64420646974E+02  0.00000000000E+00 0. -1.
        -13    1    4    4    0    0  0.24045862613E+02 -0.15082727174E+02 -0.35647087420E+02  0.45567609213E+02  0.00000000000E+00 0. -1.
         13    1    4    4    0    0  0.42431595072E+02 -0.13284956146E+03  0.20645916106E+02  0.14098120475E+03  0.00000000000E+00 0.  1.
         21    1    1    2  503  501  0.67920102214E+02  0.53204469000E+02  0.24802192434E+03  0.26259994432E+03  0.00000000000E+00 0. -1.
          1    1    1    2  501    0 -0.13050195723E+03  0.16188740559E+03  0.32688587468E+03  0.38741795002E+03  0.00000000000E+00 0. -1.
<scales pt_clust_5="13000.00000" pt_clust_6="13000.00000" pt_clust_7="13000.00000" pt_clust_8="13000.00000" pt_clust_9="86.27778" pt_clust_10="13000.00000"></scales>
<clustering>
<clus scale="   84.538">  5  6 -1 -1</clus>
<clus scale="   86.278">  1  9  2 -1</clus>
<clus scale="   90.952">  7  8 -1 -1</clus>
<clus scale="  103.208">  2  5  1 -1</clus>
<clus scale="  199.489">  7 10 -1 -1</clus>
<clus scale="   86.278">  1  5  2 -1</clus>
</clustering>
</event>
<event>
10    4  0.2565852E-005  0.3112526E+03  0.7546771E-02  0.1126206E+00
         21   -1    0    0  503  502  0.00000000000E+00  0.00000000000E+00  0.69258355750E+02  0.69258355750E+02  0.00000000000E+00 0.  1.
          2   -1    0    0  502    0 -0.00000000000E+00 -0.00000000000E+00 -0.68394502871E+03  0.68394502871E+03  0.00000000000E+00 0. -1.
         24    2    1    2    0    0 -0.16508552907E+02 -0.40177225830E+02 -0.14076353104E+03  0.16829097276E+03  0.81367917790E+02 0.  0.
         23    2    1    2    0    0 -0.73437815302E+02  0.19785912520E+02 -0.28535381474E+02  0.12347210882E+03  0.92986550700E+02 0.  0.
        -13    1    3    3    0    0 -0.41595308126E+02 -0.14446601768E+02 -0.11750634512E+03  0.12548551751E+03  0.00000000000E+00 0.  1.
         14    1    3    3    0    0  0.25086755219E+02 -0.25730624062E+02 -0.23257185922E+02  0.42805455249E+02  0.00000000000E+00 0. -1.
        -11    1    4    4    0    0 -0.69661979032E+02  0.39483879549E+02 -0.49755965274E+02  0.94273135873E+02  0.00000000000E+00 0.  1.
         11    1    4    4    0    0 -0.37758362699E+01 -0.19697967029E+02  0.21220583800E+02  0.29198972952E+02  0.00000000000E+00 0. -1.
         21    1    1    2  503  501  0.16834522136E+02 -0.22235950666E+02 -0.51538668392E+02  0.58600963962E+02  0.00000000000E+00 0.  1.
          1    1    1    2  501    0  0.73111846074E+02  0.42627263976E+02 -0.39384909205E+03  0.40283933892E+03  0.00000000000E+00 0. -1.
<scales pt_clust_5="13000.00000" pt_clust_6="13000.00000" pt_clust_7="13000.00000" pt_clust_8="13000.00000" pt_clust_9="27.88977" pt_clust_10="13000.00000"></scales>
<clustering>
<clus scale="   27.890">  1  9  2 -1</clus>
<clus scale="   81.368">  5  6 -1 -1</clus>
<clus scale="   92.987">  7  8 -1 -1</clus>
<clus scale="   84.881">  7 10 -1 -1</clus>
<clus scale="   93.805">  2  5  1 -1</clus>
<clus scale="   27.890">  1  5  2 -1</clus>
</clustering>
</event>
<event>
10    4  0.2565852E-005  0.6051726E+03  0.7546771E-02  0.1008263E+00
         21   -1    0    0  503  502  0.00000000000E+00  0.00000000000E+00  0.23659478067E+03  0.23659478067E+03  0.00000000000E+00 0. -1.
          2   -1    0    0  502    0 -0.00000000000E+00 -0.00000000000E+00 -0.12079995861E+04  0.12079995861E+04  0.00000000000E+00 0. -1.
         24    2    1    2    0    0 -0.33092858537E+03 -0.28362791561E+02 -0.49846699828E+03  0.60425097164E+03  0.79572054092E+02 0.  0.
         23    2    1    2    0    0  0.42444546877E+03  0.91674163923E+02 -0.31918294896E+03  0.54643836735E+03  0.90327327620E+02 0.  0.
        -13    1    3    3    0    0 -0.12342440084E+03 -0.48368444246E+02 -0.17782619312E+03  0.22180000920E+03  0.00000000000E+00 0.  1.
         14    1    3    3    0    0 -0.20750418452E+03  0.20005652685E+02 -0.32064080517E+03  0.38245096244E+03  0.00000000000E+00 0. -1.
        -11    1    4    4    0    0  0.13843308921E+03  0.70106955350E+02 -0.13404007633E+03  0.20504986574E+03  0.00000000000E+00 0. -1.
         11    1    4    4    0    0  0.28601237955E+03  0.21567208572E+02 -0.18514287263E+03  0.34138850160E+03  0.00000000000E+00 0.  1.
         21    1    1    2  503  501  0.26181675069E+02  0.76141625235E+01  0.44207284761E+02  0.51939769025E+02  0.00000000000E+00 0.  1.
          1    1    1    2  501    0 -0.11969855847E+03 -0.70925534885E+02 -0.19796214291E+03  0.24196525871E+03  0.00000000000E+00 0. -1.
<scales pt_clust_5="13000.00000" pt_clust_6="13000.00000" pt_clust_7="13000.00000" pt_clust_8="13000.00000" pt_clust_9="27.26638" pt_clust_10="13000.00000"></scales>
<clustering>
<clus scale="   27.266">  1  9  2 -1</clus>
<clus scale="   79.572">  5  6 -1 -1</clus>
<clus scale="   90.327">  7  8 -1 -1</clus>
<clus scale="  136.054">  7 10 -1 -1</clus>
<clus scale="  334.254">  2  5  1 -1</clus>
<clus scale="   27.266">  1  5  2 -1</clus>
</clustering>
</event>
<event>
10    4  0.2565852E-005  0.2881205E+03  0.7546771E-02  0.1106029E+00
         -1   -1    0    0    0  501 -0.00000000000E+00  0.00000000000E+00  0.82417390835E+03  0.82417390835E+03  0.00000000000E+00 0.  1.
         21   -1    0    0  501  502  0.00000000000E+00 -0.00000000000E+00 -0.14877209145E+03  0.14877209145E+03  0.00000000000E+00 0.  1.
         24    2    1    2    0    0 -0.20576020680E+03 -0.72920869097E+02  0.33009892105E+03  0.40415253875E+03  0.81971098896E+02 0.  0.
         23    2    1    2    0    0  0.19620430277E+02 -0.25041083607E+02  0.30528245508E+03  0.32080221305E+03  0.93298796176E+02 0.  0.
        -13    1    3    3    0    0 -0.10600196884E+03 -0.76622445036E+02  0.15713157527E+03  0.20444497653E+03  0.00000000000E+00 0.  1.
         14    1    3    3    0    0 -0.99758237956E+02  0.37015759389E+01  0.17296734578E+03  0.19970756223E+03  0.00000000000E+00 0. -1.
        -13    1    4    4    0    0  0.13286054372E+02 -0.59286585481E+02  0.15375265639E+03  0.16532180076E+03  0.00000000000E+00 0.  1.
         13    1    4    4    0    0  0.63343759046E+01  0.34245501874E+02  0.15152979869E+03  0.15548041229E+03  0.00000000000E+00 0. -1.
         21    1    1    2  503  502  0.68074096651E+02  0.63717892651E+02 -0.39840470826E+02  0.10139682241E+03  0.00000000000E+00 0.  1.
         -2    1    1    2    0  503  0.11806567987E+03  0.34244060053E+02  0.79860911604E+02  0.14659442559E+03  0.00000000000E+00 0.  1.
<scales pt_clust_5="13000.00000" pt_clust_6="13000.00000" pt_clust_7="13000.00000" pt_clust_8="13000.00000" pt_clust_9="93.24190" pt_clust_10="13000.00000"></scales>
<clustering>
<clus scale="   81.971">  5  6 -1 -1</clus>
<clus scale="   93.242">  2  9  1 -1</clus>
<clus scale="   93.299">  7  8 -1 -1</clus>
<clus scale="  159.445">  7 10 -1 -1</clus>
<clus scale="  196.598">  1  5  2 -1</clus>
<clus scale="   93.242">  2  5  1 -1</clus>
</clustering>
</event>
<event>
10    4  0.2565852E-005  0.2047728E+03  0.7546771E-02  0.1172702E+00
          2   -1    0    0  503    0 -0.00000000000E+00  0.00000000000E+00  0.71667772192E+03  0.71667772192E+03  0.00000000000E+00 0. -1.
         21   -1    0    0  501  502  0.00000000000E+00 -0.00000000000E+00 -0.46166786439E+02  0.46166786439E+02  0.00000000000E+00 0. -1.
         24    2    1    2    0    0  0.67034583089E+02  0.58473803784E+02  0.30920115448E+03  0.33018314569E+03  0.74180419970E+02 0.  0.
         23    2    1    2    0    0 -0.36182815055E+02 -0.19480539010E+00  0.72105972055E+02  0.12209497968E+03  0.91644305897E+02 0.  0.
        -11    1    3    3    0    0  0.13185262409E+02 -0.17466239617E+02  0.75958299567E+02  0.79047985074E+02  0.00000000000E+00 0.  1.
         12    1    3    3    0    0  0.53849320681E+02  0.75940043401E+02  0.23324285491E+03  0.25113516061E+03  0.00000000000E+00 0. -1.
        -13    1    4    4    0    0  0.62337845183E+01 -0.39722781420E+02  0.24587112493E+02  0.47130515952E+02  0.00000000000E+00 0.  1.
         13    1    4    4    0    0 -0.42416599573E+02  0.39527976030E+02  0.47518859562E+02  0.74964463731E+02  0.00000000000E+00 0. -1.
         21    1    1    2  503  502 -0.36661586390E+02 -0.68450534564E+01  0.34999437960E+02  0.51145745971E+02  0.00000000000E+00 0. -1.
          1    1    1    2  501    0  0.58098183560E+01 -0.51433944937E+02  0.25420437099E+03  0.25942063702E+03  0.00000000000E+00 0. -1.
<scales pt_clust_5="13000.00000" pt_clust_6="13000.00000" pt_clust_7="13000.00000" pt_clust_8="13000.00000" pt_clust_9="37.29513" pt_clust_10="13000.00000"></scales>
<clustering>
<clus scale="   37.295">  2  9  1 -1</clus>
<clus scale="   74.180">  5  6 -1 -1</clus>
<clus scale="   91.644">  7  8 -1 -1</clus>
<clus scale="   52.007">  7 10 -1 -1</clus>
<clus scale="  109.302">  1  5  2 -1</clus>
<clus scale="   37.295">  2  5  1 -1</clus>
</clustering>
</event>
<event>
10    4  0.2565852E-005  0.3052237E+03  0.7546771E-02  0.1124269E+00
         21   -1    0    0  503  502  0.00000000000E+00  0.00000000000E+00  0.17674073356E+03  0.17674073356E+03  0.00000000000E+00 0.  1.
          2   -1    0    0  502    0 -0.00000000000E+00 -0.00000000000E+00 -0.96904773210E+03  0.96904773210E+03  0.00000000000E+00 0. -1.
         24    2    1    2    0    0  0.53492910629E+02  0.90445537697E+02 -0.14250311990E+02  0.13148246935E+03  0.77734687093E+02 0.  0.
         23    2    1    2    0    0 -0.39252674147E+02  0.72738327684E+02 -0.18663500429E+03  0.22274109415E+03  0.89159034630E+02 0.  0.
        -11    1    3    3    0    0  0.44457859527E+02  0.60551106242E+02  0.26928899141E+02  0.79800396927E+02  0.00000000000E+00 0.  1.
         12    1    3    3    0    0  0.90350511027E+01  0.29894431455E+02 -0.41179211131E+02  0.51682072422E+02  0.00000000000E+00 0. -1.
        -11    1    4    4    0    0 -0.51470087776E+01  0.69771097655E+02 -0.61967080903E+02  0.93458102286E+02  0.00000000000E+00 0.  1.
         11    1    4    4    0    0 -0.34105665370E+02  0.29672300282E+01 -0.12466792338E+03  0.12928299186E+03  0.00000000000E+00 0. -1.
         21    1    1    2  503  501 -0.88779819158E+02 -0.30875470033E+02  0.67274487606E+02  0.11558982491E+03  0.00000000000E+00 0.  1.
          1    1    1    2  501    0  0.74539582676E+02 -0.13230839535E+03 -0.65869616988E+03  0.67597507726E+03  0.00000000000E+00 0. -1.
<scales pt_clust_5="13000.00000" pt_clust_6="13000.00000" pt_clust_7="13000.00000" pt_clust_8="13000.00000" pt_clust_9="93.99548" pt_clust_10="13000.00000"></scales>
<clustering>
<clus scale="   77.735">  5  6 -1 -1</clus>
<clus scale="   89.159">  7  8 -1 -1</clus>
<clus scale="   93.995">  1  9  2 -1</clus>
<clus scale="  104.365">  2  5  1 -1</clus>
<clus scale="  103.333">  7 10 -1 -1</clus>
<clus scale="   93.995">  1  5  2 -1</clus>
</clustering>
</event>
<event>
10    4  0.2565852E-005  0.2509072E+03  0.7546771E-02  0.1159258E+00
          2   -1    0    0  503    0 -0.00000000000E+00  0.00000000000E+00  0.89945255664E+03  0.89945255664E+03  0.00000000000E+00 0. -1.
         21   -1    0    0  501  502  0.00000000000E+00 -0.00000000000E+00 -0.93669585217E+02  0.93669585217E+02  0.00000000000E+00 0.  1.
         24    2    1    2    0    0 -0.20103214552E+02 -0.17013730052E+02  0.57312010326E+03  0.57875786029E+03  0.76160369226E+02 0.  0.
         23    2    1    2    0    0 -0.48596085540E+02  0.24048417081E+02  0.28692358301E+02  0.10971366987E+03  0.90961156747E+02 0.  0.
        -11    1    3    3    0    0 -0.18981298473E+02  0.22790577931E+02  0.10998342865E+03  0.11391248708E+03  0.00000000000E+00 0.  1.
         12    1    3    3    0    0 -0.11219160789E+01 -0.39804307983E+02  0.46313667461E+03  0.46484537321E+03  0.00000000000E+00 0. -1.
        -11    1    4    4    0    0 -0.14757120615E+02  0.16031031920E+02 -0.32618663037E+02  0.39226824643E+02  0.00000000000E+00 0.  1.
         11    1    4    4    0    0 -0.33838964925E+02  0.80173851607E+01  0.61311021338E+02  0.70486845224E+02  0.00000000000E+00 0. -1.
         21    1    1    2  503  502 -0.36683568252E+02  0.85620134973E+01 -0.29616456206E+02  0.47917916618E+02  0.00000000000E+00 0.  1.
          1    1    1    2  501    0  0.10538286834E+03 -0.15596700526E+02  0.23358696607E+03  0.25673269508E+03  0.00000000000E+00 0. -1.
<scales pt_clust_5="13000.00000" pt_clust_6="13000.00000" pt_clust_7="13000.00000" pt_clust_8="13000.00000" pt_clust_9="37.66951" pt_clust_10="13000.00000"></scales>
<clustering>
<clus scale="   37.670">  2  9  1 -1</clus>
<clus scale="   76.160">  5  6 -1 -1</clus>
<clus scale="   80.985">  1  5  2 -1</clus>
<clus scale="   90.961">  7  8 -1 -1</clus>
<clus scale="   86.557">  7 10 -1 -1</clus>
<clus scale="   37.670">  2  5  1 -1</clus>
</clustering>
</event>
<event>
10    4  0.2565852E-005  0.3229525E+03  0.7546771E-02  0.1103900E+00
          2   -1    0    0  503    0 -0.00000000000E+00  0.00000000000E+00  0.49500437591E+03  0.49500437591E+03  0.00000000000E+00 0. -1.
         21   -1    0    0  501  502  0.00000000000E+00 -0.00000000000E+00 -0.38193038544E+03  0.38193038544E+03  0.00000000000E+00 0. -1.
         24    2    1    2    0    0 -0.13316412052E+03  0.53893399697E+02 -0.20625296571E+03  0.26352106461E+03  0.79157337635E+02 0.  0.
         23    2    1    2    0    0  0.57806441247E+02 -0.46321566169E+02  0.30501239085E+01  0.11619254430E+03  0.89465814444E+02 0.  0.
        -11    1    3    3    0    0 -0.10524787230E+03  0.68188697898E+01 -0.10738831747E+03  0.15051864449E+03  0.00000000000E+00 0.  1.
         12    1    3    3    0    0 -0.27916248214E+02  0.47074529907E+02 -0.98864648240E+02  0.11300242012E+03  0.00000000000E+00 0. -1.
        -13    1    4    4    0    0  0.36408824721E+02  0.20959930122E+02 -0.12633495766E+02  0.43869424473E+02  0.00000000000E+00 0.  1.
         13    1    4    4    0    0  0.21397616526E+02 -0.67281496291E+02  0.15683619675E+02  0.72323119832E+02  0.00000000000E+00 0. -1.
         21    1    1    2  503  502  0.74084700643E+02  0.57735876583E+02 -0.62522032717E+02  0.11283163958E+03  0.00000000000E+00 0. -1.
          1    1    1    2  501    0  0.12729786261E+01 -0.65307710112E+02  0.37879886499E+03  0.38438951286E+03  0.00000000000E+00 0. -1.
<scales pt_clust_5="13000.00000" pt_clust_6="13000.00000" pt_clust_7="13000.00000" pt_clust_8="13000.00000" pt_clust_9="93.92537" pt_clust_10="13000.00000"></scales>
<clustering>
<clus scale="   79.157">  5  6 -1 -1</clus>
<clus scale="   89.466">  7  8 -1 -1</clus>
<clus scale="   65.320">  7 10 -1 -1</clus>
<clus scale="   93.925">  2  9  1 -1</clus>
<clus scale="  147.452">  1  5  2 -1</clus>
<clus scale="   93.925">  2  5  1 -1</clus>
</clustering>
</event>
<event>
10    4  0.2565852E-005  0.3905073E+03  0.7546771E-02  0.1063356E+00
         21   -1    0    0  501  502  0.00000000000E+00  0.00000000000E+00  0.18606017539E+03  0.18606017539E+03  0.00000000000E+00 0.  1.
          4   -1    0    0  503    0 -0.00000000000E+00 -0.00000000000E+00 -0.74461058618E+03  0.74461058618E+03  0.00000000000E+00 0. -1.
         24    2    1    2    0    0  0.12996127220E+03  0.16115162714E+03 -0.69685941455E+02  0.23127061395E+03  0.75961748542E+02 0.  0.
         23    2    1    2    0    0 -0.60062224460E+02  0.38437779625E+02 -0.56020251344E+02  0.12661504484E+03  0.88363834857E+02 0.  0.
        -13    1    3    3    0    0  0.82841509426E+02  0.14708826535E+03 -0.68217595178E+02  0.18207502239E+03  0.00000000000E+00 0.  1.
         14    1    3    3    0    0  0.47119762770E+02  0.14063361792E+02 -0.14683462768E+01  0.49195591563E+02  0.00000000000E+00 0. -1.
        -11    1    4    4    0    0 -0.21163143875E+02  0.55116817460E+02 -0.59909829721E+02  0.84112602640E+02  0.00000000000E+00 0. -1.
         11    1    4    4    0    0 -0.38899080584E+02 -0.16679037835E+02  0.38895783770E+01  0.42502442204E+02  0.00000000000E+00 0.  1.
         21    1    1    2  503  502  0.21251625346E+02  0.50224348632E+02  0.10754487314E+02  0.55585751526E+02  0.00000000000E+00 0.  1.
          3    1    1    2  501    0 -0.91150673082E+02 -0.24981375540E+03 -0.44359870530E+03  0.51719935125E+03  0.00000000000E+00 0. -1.
<scales pt_clust_5="13000.00000" pt_clust_6="13000.00000" pt_clust_7="13000.00000" pt_clust_8="13000.00000" pt_clust_9="54.53546" pt_clust_10="13000.00000"></scales>
<clustering>
<clus scale="   54.535">  1  9  2 -1</clus>
<clus scale="   75.962">  5  6 -1 -1</clus>
<clus scale="   88.364">  7  8 -1 -1</clus>
<clus scale="  246.847">  2  5  1 -1</clus>
<clus scale="   90.249">  7 10 -1 -1</clus>
<clus scale="   54.535">  1  5  2 -1</clus>
</clustering>
</event>
<event>
10    4  0.2565852E-005  0.1359444E+03  0.7546771E-02  0.1241869E+00
         21   -1    0    0  501  502  0.00000000000E+00  0.00000000000E+00  0.15180890947E+03  0.15180890947E+03  0.00000000000E+00 0. -1.
          2   -1    0    0  503    0 -0.00000000000E+00 -0.00000000000E+00 -0.10402465052E+03  0.10402465052E+03  0.00000000000E+00 0. -1.
         24    2    1    2    0    0  0.88132517332E+01  0.29086025748E+02 -0.16369089111E+02  0.87646533894E+02  0.80562382818E+02 0.  0.
         23    2    1    2    0    0 -0.34317068229E+02 -0.33814000220E+02  0.42754006115E+02  0.11079890045E+03  0.90152335070E+02 0.  0.
        -11    1    3    3    0    0  0.27223006463E+02 -0.18704642791E+02  0.23637708136E+01  0.33114093002E+02  0.00000000000E+00 0.  1.
         12    1    3    3    0    0 -0.18409754730E+02  0.47790668540E+02 -0.18732859924E+02  0.54532440892E+02  0.00000000000E+00 0. -1.
        -13    1    4    4    0    0 -0.52286683201E+01 -0.30568315030E+02 -0.23142003354E+02  0.38695131159E+02  0.00000000000E+00 0.  1.
         13    1    4    4    0    0 -0.29088399909E+02 -0.32456851896E+01  0.65896009468E+02  0.72103769288E+02  0.00000000000E+00 0. -1.
         21    1    1    2  503  502  0.49753562214E+01 -0.19731381647E+02  0.13729550919E+02  0.24547548954E+02  0.00000000000E+00 0. -1.
          1    1    1    2  501    0  0.20528460275E+02  0.24459356119E+02  0.76697910241E+01  0.32840576690E+02  0.00000000000E+00 0. -1.
<scales pt_clust_5="13000.00000" pt_clust_6="13000.00000" pt_clust_7="13000.00000" pt_clust_8="13000.00000" pt_clust_9="20.34899" pt_clust_10="13000.00000"></scales>
<clustering>
<clus scale="   20.349">  1  9  2 -1</clus>
<clus scale="   80.562">  5  6 -1 -1</clus>
<clus scale="   84.611">  2  5  1 -1</clus>
<clus scale="   90.152">  7  8 -1 -1</clus>
<clus scale="   36.106">  7 10 -1 -1</clus>
<clus scale="   20.349">  1  5  2 -1</clus>
</clustering>
</event>
<event>
10    4  0.2565852E-005  0.2102624E+03  0.7546771E-02  0.1165183E+00
         21   -1    0    0  503  502  0.00000000000E+00  0.00000000000E+00  0.29750844627E+03  0.29750844627E+03  0.00000000000E+00 0.  1.
          2   -1    0    0  502    0 -0.00000000000E+00 -0.00000000000E+00 -0.11078510289E+03  0.11078510289E+03  0.00000000000E+00 0. -1.
         24    2    1    2    0    0 -0.52882523626E+02 -0.65662149826E+02  0.76389383640E+02  0.13938884360E+03  0.80534666840E+02 0.  0.
         23    2    1    2    0    0  0.79025527982E+02  0.42908774235E+02  0.10125323689E+03  0.16366099439E+03  0.91904875424E+02 0.  0.
        -11    1    3    3    0    0 -0.44436997529E+02 -0.75468270461E+02  0.32147442283E+02  0.93292897056E+02  0.00000000000E+00 0.  1.
         12    1    3    3    0    0 -0.84455260973E+01  0.98061206352E+01  0.44241941357E+02  0.46095946546E+02  0.00000000000E+00 0. -1.
        -11    1    4    4    0    0  0.56879325497E+02 -0.21228957871E+02  0.46601207179E+02  0.76534951701E+02  0.00000000000E+00 0.  1.
         11    1    4    4    0    0  0.22146202485E+02  0.64137732105E+02  0.54652029707E+02  0.87126042692E+02  0.00000000000E+00 0. -1.
         21    1    1    2  503  501  0.83843880457E+01 -0.19679190505E+02  0.37818952002E+02  0.43449299562E+02  0.00000000000E+00 0.  1.
          1    1    1    2  501    0 -0.34527392402E+02  0.42432566096E+02 -0.28738229151E+02  0.61794411610E+02  0.00000000000E+00 0. -1.
<scales pt_clust_5="13000.00000" pt_clust_6="13000.00000" pt_clust_7="13000.00000" pt_clust_8="13000.00000" pt_clust_9="21.39085" pt_clust_10="13000.00000"></scales>
<clustering>
<clus scale="   21.391">  1  9  2 -1</clus>
<clus scale="   80.535">  5  6 -1 -1</clus>
<clus scale="   91.905">  7  8 -1 -1</clus>
<clus scale="   53.384">  7 10 -1 -1</clus>
<clus scale="  119.948">  2  5  1 -1</clus>
<clus scale="   21.391">  1  5  2 -1</clus>
</clustering>
</event>
<event>
10    4  0.2565852E-005  0.4113618E+03  0.7546771E-02  0.1090841E+00
          2   -1    0    0  503    0 -0.00000000000E+00  0.00000000000E+00  0.13241657603E+04  0.13241657603E+04  0.00000000000E+00 0. -1.
         21   -1    0    0  501  502  0.00000000000E+00 -0.00000000000E+00 -0.10699508678E+03  0.10699508678E+03  0.00000000000E+00 0.  1.
         24    2    1    2    0    0 -0.36582823368E+02  0.47539870593E+02  0.15604426829E+03  0.18549644708E+03  0.80378952168E+02 0.  0.
         23    2    1    2    0    0  0.42083304595E+02  0.60459897194E+01  0.48099354137E+02  0.11184508800E+03  0.91587211578E+02 0.  0.
        -11    1    3    3    0    0 -0.17221466071E+02  0.64263281903E+02  0.14076916618E+03  0.15569941054E+03  0.00000000000E+00 0.  1.
         12    1    3    3    0    0 -0.19361357297E+02 -0.16723411310E+02  0.15275102107E+02  0.29797036540E+02  0.00000000000E+00 0. -1.
        -13    1    4    4    0    0  0.27737196923E+02 -0.22743830805E+02 -0.16650362232E+02  0.39545777211E+02  0.00000000000E+00 0.  1.
         13    1    4    4    0    0  0.14346107672E+02  0.28789820524E+02  0.64749716369E+02  0.72299310792E+02  0.00000000000E+00 0. -1.
         21    1    1    2  503  502  0.15071524059E+03 -0.47503359831E+02  0.61555577038E+02  0.16958992306E+03  0.00000000000E+00 0.  1.
          1    1    1    2  501    0 -0.15621572181E+03 -0.60825004817E+01  0.95147147405E+03  0.96422938893E+03  0.00000000000E+00 0. -1.
<scales pt_clust_5="13000.00000" pt_clust_6="13000.00000" pt_clust_7="13000.00000" pt_clust_8="13000.00000" pt_clust_9="153.13478" pt_clust_10="13000.00000"></scales>
<clustering>
<clus scale="   80.379">  5  6 -1 -1</clus>
<clus scale="   91.587">  7  8 -1 -1</clus>
<clus scale="  100.295">  1  5  2 -1</clus>
<clus scale="  153.135">  2  9  1 -1</clus>
<clus scale="  134.927">  7 10 -1 -1</clus>
<clus scale="  153.135">  2  5  1 -1</clus>
</clustering>
</event>
<event>
10    4  0.2565852E-005  0.3455202E+03  0.7546771E-02  0.1090325E+00
          2   -1    0    0  503    0 -0.00000000000E+00  0.00000000000E+00  0.10898471224E+03  0.10898471224E+03  0.00000000000E+00 0. -1.
         21   -1    0    0  501  502  0.00000000000E+00 -0.00000000000E+00 -0.84125634826E+03  0.84125634826E+03  0.00000000000E+00 0.  1.
         24    2    1    2    0    0 -0.73063916647E+02 -0.10359825033E+03 -0.32003212822E+03  0.35495055297E+03  0.86593294060E+02 0.  0.
         23    2    1    2    0    0  0.19477894804E+03  0.12272396505E+03 -0.12155620279E+03  0.27188218509E+03  0.78383684085E+02 0.  0.
        -13    1    3    3    0    0 -0.30401537540E+02 -0.45658618279E+02 -0.24471846244E+03  0.25079092641E+03  0.00000000000E+00 0.  1.
         14    1    3    3    0    0 -0.42662379107E+02 -0.57939632055E+02 -0.75313665773E+02  0.10415962656E+03  0.00000000000E+00 0. -1.
        -11    1    4    4    0    0  0.23439864380E+02 -0.10856985147E+02 -0.10489970267E+02  0.27880832929E+02  0.00000000000E+00 0.  1.
         11    1    4    4    0    0  0.17133908366E+03  0.13358095020E+03 -0.11106623252E+03  0.24400135216E+03  0.00000000000E+00 0. -1.
         21    1    1    2  503  502 -0.30899013616E+02 -0.32063837823E+02 -0.14087803868E+03  0.14774796283E+03  0.00000000000E+00 0.  1.
          1    1    1    2  501    0 -0.90816017781E+02  0.12938123104E+02 -0.14980526633E+03  0.17566035960E+03  0.00000000000E+00 0. -1.
<scales pt_clust_5="13000.00000" pt_clust_6="13000.00000" pt_clust_7="13000.00000" pt_clust_8="13000.00000" pt_clust_9="44.52908" pt_clust_10="13000.00000"></scales>
<clustering>
<clus scale="   44.529">  2  9  1 -1</clus>
<clus scale="   78.384">  7  8 -1 -1</clus>
<clus scale="   86.593">  5  6 -1 -1</clus>
<clus scale="   98.182">  7 10 -1 -1</clus>
<clus scale="  171.575">  1  5  2 -1</clus>
<clus scale="   44.529">  2  5  1 -1</clus>
</clustering>
</event>
<event>
10    4  0.2565852E-005  0.4059191E+03  0.7546771E-02  0.1065918E+00
         21   -1    0    0  503  502  0.00000000000E+00  0.00000000000E+00  0.54821489843E+03  0.54821489843E+03  0.00000000000E+00 0.  1.
         -1   -1    0    0    0  501 -0.00000000000E+00 -0.00000000000E+00 -0.40218852502E+03  0.40218852502E+03  0.00000000000E+00 0.  1.
         24    2    1    2    0    0  0.65684540208E+02 -0.21630291528E+03  0.15237733175E+03  0.28440603034E+03  0.81034121714E+02 0.  0.
         23    2    1    2    0    0 -0.80144816149E+02 -0.70749499427E+02 -0.12684597022E+03  0.18980484222E+03  0.92234997394E+02 0.  0.
        -13    1    3    3    0    0  0.81133715584E+02 -0.13801351079E+03  0.10771843989E+03  0.19296028415E+03  0.00000000000E+00 0.  1.
         14    1    3    3    0    0 -0.15449175375E+02 -0.78289404488E+02  0.44658891856E+02  0.91445746192E+02  0.00000000000E+00 0. -1.
        -11    1    4    4    0    0 -0.10598189136E+02 -0.57620066878E+02 -0.96295838777E+02  0.11271771061E+03  0.00000000000E+00 0.  1.
         11    1    4    4    0    0 -0.69546627014E+02 -0.13129432549E+02 -0.30550131438E+02  0.77087131604E+02  0.00000000000E+00 0. -1.
         21    1    1    2  503  501 -0.47338059764E+02  0.48885999606E+02  0.20502582092E+03  0.21602388781E+03  0.00000000000E+00 0.  1.
         -2    1    1    2    0  502  0.61798335705E+02  0.23816641510E+03 -0.84530809031E+02  0.26016866309E+03  0.00000000000E+00 0.  1.
<scales pt_clust_5="13000.00000" pt_clust_6="13000.00000" pt_clust_7="13000.00000" pt_clust_8="13000.00000" pt_clust_9="68.04949" pt_clust_10="13000.00000"></scales>
<clustering>
<clus scale="   68.049">  1  9  2 -1</clus>
<clus scale="   81.034">  5  6 -1 -1</clus>
<clus scale="   92.235">  7  8 -1 -1</clus>
<clus scale="  204.709">  2  5  1 -1</clus>
<clus scale="  166.208">  7 10 -1 -1</clus>
<clus scale="   68.049">  1  5  2 -1</clus>
</clustering>
</event>
<event>
10    4  0.6669281E-005  0.6971547E+03  0.7546771E-02  0.9944297E-01
         21   -1    0    0  501  502  0.00000000000E+00  0.00000000000E+00  0.40491968546E+03  0.40491968546E+03  0.00000000000E+00 0. -1.
          2   -1    0    0  503    0 -0.00000000000E+00 -0.00000000000E+00 -0.10903471925E+04  0.10903471925E+04  0.00000000000E+00 0. -1.
         24    2    1    2    0    0  0.19657712223E+03  0.25273736717E+03  0.16808093897E+03  0.37089475974E+03  0.82419530520E+02 0.  0.
         23    2    1    2    0    0 -0.33228557257E+02  0.16854414317E+03 -0.41414186270E+03  0.45809124656E+03  0.93929987348E+02 0.  0.
        -11    1    3    3    0    0  0.86355914422E+02  0.49830995606E+02  0.52059549971E+02  0.11247519203E+03  0.00000000000E+00 0.  1.
         12    1    3    3    0    0  0.11022120780E+03  0.20290637156E+03  0.11602138900E+03  0.25841956771E+03  0.00000000000E+00 0. -1.
        -13    1    4    4    0    0 -0.29975095802E+01  0.11812535017E+03 -0.35724187786E+03  0.37627694949E+03  0.00000000000E+00 0. -1.
         13    1    4    4    0    0 -0.30231047677E+02  0.50418793005E+02 -0.56899984833E+02  0.81814297074E+02  0.00000000000E+00 0.  1.
         21    1    1    2  503  502 -0.16142777462E+02  0.25157713759E+02 -0.17381597892E+02  0.34577735192E+02  0.00000000000E+00 0. -1.
          1    1    1    2  501    0 -0.14720578751E+03 -0.44643922410E+03 -0.42198498543E+03  0.63170313647E+03  0.00000000000E+00 0. -1.
<scales pt_clust_5="13000.00000" pt_clust_6="13000.00000" pt_clust_7="13000.00000" pt_clust_8="13000.00000" pt_clust_9="29.89148" pt_clust_10="13000.00000"></scales>
<clustering>
<clus scale="   29.891">  1  9  2 -1</clus>
<clus scale="   82.420">  5  6 -1 -1</clus>
<clus scale="   93.930">  7  8 -1 -1</clus>
<clus scale="  337.722">  2  5  1 -1</clus>
<clus scale="  299.164">  7 10 -1 -1</clus>
<clus scale="   29.891">  1  5  2 -1</clus>
</clustering>
</event>
<event>
10    4  0.2565852E-005  0.1700364E+03  0.7546771E-02  0.1213800E+00
          2   -1    0    0  503    0 -0.00000000000E+00  0.00000000000E+00  0.29172587967E+03  0.29172587967E+03  0.00000000000E+00 0. -1.
         21   -1    0    0  501  502  0.00000000000E+00 -0.00000000000E+00 -0.34279155824E+03  0.34279155824E+03  0.00000000000E+00 0.  1.
         24    2    1    2    0    0 -0.97716042985E+01  0.11293938260E+01  0.89031555114E+02  0.11794907198E+03  0.76737252971E+02 0.  0.
         23    2    1    2    0    0 -0.10699958657E+02 -0.72054068177E+02  0.67159450722E+02  0.13448366340E+03  0.90935064986E+02 0.  0.
        -11    1    3    3    0    0 -0.30861170760E+02  0.21818896010E+02  0.19778429507E+02  0.42657500601E+02  0.00000000000E+00 0.  1.
         12    1    3    3    0    0  0.21089566461E+02 -0.20689502184E+02  0.69253125606E+02  0.75291571377E+02  0.00000000000E+00 0. -1.
        -11    1    4    4    0    0  0.99058878716E+01 -0.74266573184E+02  0.12412604403E+02  0.75945528210E+02  0.00000000000E+00 0. -1.
         11    1    4    4    0    0 -0.20605846528E+02  0.22125050078E+01  0.54746846319E+02  0.58538135189E+02  0.00000000000E+00 0.  1.
         21    1    1    2  503  502  0.54872475897E+01  0.11666693845E+03 -0.27511951883E+03  0.29888465008E+03  0.00000000000E+00 0.  1.
          1    1    1    2  501    0  0.14984315365E+02 -0.45742264096E+02  0.67862834426E+02  0.83200052451E+02  0.00000000000E+00 0. -1.
<scales pt_clust_5="13000.00000" pt_clust_6="13000.00000" pt_clust_7="13000.00000" pt_clust_8="13000.00000" pt_clust_9="116.83979" pt_clust_10="13000.00000"></scales>
<clustering>
<clus scale="   76.737">  5  6 -1 -1</clus>
<clus scale="   77.365">  1  5  2 -1</clus>
<clus scale="   90.935">  7  8 -1 -1</clus>
<clus scale="   46.621">  7 10 -1 -1</clus>
<clus scale="  116.840">  2  9  1 -1</clus>
<clus scale="  116.840">  2  5  1 -1</clus>
</clustering>
</event>
<event>
10    4  0.2565852E-005  0.2607699E+03  0.7546771E-02  0.1112891E+00
         21   -1    0    0  503  502  0.00000000000E+00  0.00000000000E+00  0.13216485595E+03  0.13216485595E+03  0.00000000000E+00 0.  1.
         -3   -1    0    0    0  501 -0.00000000000E+00 -0.00000000000E+00 -0.66057725265E+03  0.66057725265E+03  0.00000000000E+00 0.  1.
         24    2    1    2    0    0  0.15660206135E+03 -0.11661446168E+03 -0.16809922526E+03  0.27033777282E+03  0.81865887814E+02 0.  0.
         23    2    1    2    0    0 -0.12847879514E+03  0.16088695096E+03 -0.30131975706E+03  0.37574483959E+03  0.89438116569E+02 0.  0.
        -11    1    3    3    0    0  0.89291952761E+02 -0.60053585337E+02 -0.39648583819E+02  0.11467997270E+03  0.00000000000E+00 0.  1.
         12    1    3    3    0    0  0.67310108590E+02 -0.56560876341E+02 -0.12845064144E+03  0.15565780012E+03  0.00000000000E+00 0. -1.
        -11    1    4    4    0    0 -0.77187306206E+02  0.14479920024E+03 -0.18303356881E+03  0.24581695617E+03  0.00000000000E+00 0.  1.
         11    1    4    4    0    0 -0.51291488934E+02  0.16087750724E+02 -0.11828618825E+03  0.12992788342E+03  0.00000000000E+00 0. -1.
         21    1    1    2  503  501  0.71165498275E+01 -0.25437846508E+02  0.35393267017E+02  0.44163476613E+02  0.00000000000E+00 0.  1.
         -4    1    1    2    0  502 -0.35239816037E+02 -0.18834642775E+02 -0.94386681402E+02  0.10249601958E+03  0.00000000000E+00 0.  1.
<scales pt_clust_5="13000.00000" pt_clust_6="13000.00000" pt_clust_7="13000.00000" pt_clust_8="13000.00000" pt_clust_9="26.41457" pt_clust_10="13000.00000"></scales>
<clustering>
<clus scale="   26.415">  1  9  2 -1</clus>
<clus scale="   81.866">  5  6 -1 -1</clus>
<clus scale="   89.438">  7  8 -1 -1</clus>
<clus scale="   40.224">  7 10 -1 -1</clus>
<clus scale="  222.609">  2  5  1 -1</clus>
<clus scale="   26.415">  1  5  2 -1</clus>
</clustering>
</event>
<event>
10    4  0.2565852E-005  0.8151537E+03  0.7546771E-02  0.1023905E+00
         21   -1    0    0  501  502  0.00000000000E+00  0.00000000000E+00  0.12225475489E+03  0.12225475489E+03  0.00000000000E+00 0. -1.
          2   -1    0    0  503    0 -0.00000000000E+00 -0.00000000000E+00 -0.22717530808E+04  0.22717530808E+04  0.00000000000E+00 0. -1.
         24    2    1    2    0    0  0.32989736936E+02 -0.16012887571E+02 -0.22133263029E+03  0.23795883549E+03  0.79319221160E+02 0.  0.
         23    2    1    2    0    0 -0.16419167952E+03 -0.30506150006E+03 -0.41594308939E+03  0.54873326962E+03  0.89878368555E+02 0.  0.
        -11    1    3    3    0    0  0.10148540734E+02 -0.42206620291E+02 -0.17340991089E+03  0.17876070281E+03  0.00000000000E+00 0.  1.
         12    1    3    3    0    0  0.22841196202E+02  0.26193732720E+02 -0.47922719400E+02  0.59198132677E+02  0.00000000000E+00 0. -1.
        -13    1    4    4    0    0 -0.63360304471E+02 -0.47770151966E+02 -0.11966267568E+03  0.14358158501E+03  0.00000000000E+00 0.  1.
         13    1    4    4    0    0 -0.10083137505E+03 -0.25729134810E+03 -0.29628041371E+03  0.40515168461E+03  0.00000000000E+00 0. -1.
         21    1    1    2  503  502 -0.53278883987E+02  0.57305119005E+02 -0.19986408477E+02  0.80758731212E+02  0.00000000000E+00 0.  1.
          1    1    1    2  501    0  0.18448082657E+03  0.26376926863E+03 -0.14922361978E+04  0.15265569994E+04  0.00000000000E+00 0. -1.
<scales pt_clust_5="13000.00000" pt_clust_6="13000.00000" pt_clust_7="13000.00000" pt_clust_8="13000.00000" pt_clust_9="78.24651" pt_clust_10="13000.00000"></scales>
<clustering>
<clus scale="   78.247">  1  9  2 -1</clus>
<clus scale="   79.319">  5  6 -1 -1</clus>
<clus scale="   84.866">  2  5  1 -1</clus>
<clus scale="   89.878">  7  8 -1 -1</clus>
<clus scale="  330.560">  7 10 -1 -1</clus>
<clus scale="   78.247">  1  5  2 -1</clus>
</clustering>
</event>
<event>
10    4  0.2565852E-005  0.1752382E+03  0.7546771E-02  0.1202382E+00
         21   -1    0    0  503  502  0.00000000000E+00  0.00000000000E+00  0.24535787359E+03  0.24535787359E+03  0.00000000000E+00 0. -1.
          2   -1    0    0  502    0 -0.00000000000E+00 -0.00000000000E+00 -0.12753729677E+04  0.12753729677E+04  0.00000000000E+00 0. -1.
         24    2    1    2    0    0  0.18822512793E+02 -0.38761112468E+02 -0.82067577126E+03  0.82554320322E+03  0.78461124220E+02 0.  0.
         23    2    1    2    0    0 -0.22624339832E+02  0.83411442025E+00 -0.11423286146E+03  0.14765208565E+03  0.90771335015E+02 0.  0.
        -11    1    3    3    0    0 -0.79728599246E+01 -0.20887924849E+02 -0.57585509431E+02  0.61773479716E+02  0.00000000000E+00 0.  1.
         12    1    3    3    0    0  0.26795372718E+02 -0.17873187619E+02 -0.76309026183E+03  0.76376972350E+03  0.00000000000E+00 0. -1.
        -13    1    4    4    0    0 -0.10756188057E+02  0.45646788430E+02 -0.51561788359E+02  0.69698944715E+02  0.00000000000E+00 0. -1.
         13    1    4    4    0    0 -0.11868151775E+02 -0.44812674010E+02 -0.62671073097E+02  0.77953140935E+02  0.00000000000E+00 0.  1.
         21    1    1    2  503  501  0.43375739029E+02  0.89892844436E+01  0.22214494213E+03  0.22651851422E+03  0.00000000000E+00 0. -1.
          1    1    1    2  501    0 -0.39573911991E+02  0.28937713604E+02 -0.31725140347E+03  0.32101703815E+03  0.00000000000E+00 0. -1.
<scales pt_clust_5="13000.00000" pt_clust_6="13000.00000" pt_clust_7="13000.00000" pt_clust_8="13000.00000" pt_clust_9="44.29743" pt_clust_10="13000.00000"></scales>
<clustering>
<clus scale="   44.297">  1  9  2 -1</clus>
<clus scale="   78.461">  5  6 -1 -1</clus>
<clus scale="   90.263">  2  5  1 -1</clus>
<clus scale="   90.771">  7  8 -1 -1</clus>
<clus scale="   20.494">  7 10 -1 -1</clus>
<clus scale="   44.297">  1  5  2 -1</clus>
</clustering>
</event>
<event>
10    4  0.2565852E-005  0.3998616E+03  0.7546771E-02  0.1071913E+00
         21   -1    0    0  503  502  0.00000000000E+00  0.00000000000E+00  0.20408084039E+03  0.20408084039E+03  0.00000000000E+00 0. -1.
          2   -1    0    0  502    0 -0.00000000000E+00 -0.00000000000E+00 -0.66166926144E+03  0.66166926144E+03  0.00000000000E+00 0. -1.
         24    2    1    2    0    0  0.16211282142E+03 -0.18916048634E+02 -0.37937575776E+03  0.42087183188E+03  0.81047822469E+02 0.  0.
         23    2    1    2    0    0 -0.41605986695E+02  0.15051876001E+03 -0.12367874514E+03  0.21947757158E+03  0.92125008443E+02 0.  0.
        -11    1    3    3    0    0  0.36793879884E+02 -0.89603626266E+01 -0.26361285301E+02  0.46141034427E+02  0.00000000000E+00 0.  1.
         12    1    3    3    0    0  0.12531894154E+03 -0.99556860071E+01 -0.35301447246E+03  0.37473079745E+03  0.00000000000E+00 0. -1.
        -11    1    4    4    0    0 -0.13702640506E+02  0.31193995135E+02 -0.84037569556E+02  0.90681534979E+02  0.00000000000E+00 0.  1.
         11    1    4    4    0    0 -0.27903346190E+02  0.11932476487E+03 -0.39641175589E+02  0.12879603660E+03  0.00000000000E+00 0. -1.
         21    1    1    2  503  501 -0.38305590039E+01  0.19902905203E+02  0.26318874903E+02  0.33218699462E+02  0.00000000000E+00 0. -1.
          1    1    1    2  501    0 -0.11667627572E+03 -0.15150561658E+03  0.19147206951E+02  0.19218199891E+03  0.00000000000E+00 0. -1.
<scales pt_clust_5="13000.00000" pt_clust_6="13000.00000" pt_clust_7="13000.00000" pt_clust_8="13000.00000" pt_clust_9="20.26817" pt_clust_10="13000.00000"></scales>
<clustering>
<clus scale="   20.268">  1  9  2 -1</clus>
<clus scale="   81.048">  5  6 -1 -1</clus>
<clus scale="   92.125">  7  8 -1 -1</clus>
<clus scale="  181.592">  2  5  1 -1</clus>
<clus scale="  160.190">  7 10 -1 -1</clus>
<clus scale="   20.268">  1  5  2 -1</clus>
</clustering>
</event>
<event>
10    4  0.2565852E-005  0.1706151E+03  0.7546771E-02  0.1207220E+00
         21   -1    0    0  501  502  0.00000000000E+00  0.00000000000E+00  0.23372127011E+03  0.23372127011E+03  0.00000000000E+00 0. -1.
          4   -1    0    0  503    0 -0.00000000000E+00 -0.00000000000E+00 -0.26493409921E+03  0.26493409921E+03  0.00000000000E+00 0. -1.
         24    2    1    2    0    0 -0.22284683714E+02  0.28232744464E+02 -0.11478790538E+03  0.14471301489E+03  0.80448110419E+02 0.  0.
         23    2    1    2    0    0  0.11155619528E+01  0.80384575952E+02 -0.38435141531E+02  0.12742680668E+03  0.91090100590E+02 0.  0.
        -11    1    3    3    0    0  0.27488489293E+02 -0.51881419105E+01 -0.32116860043E+02  0.42591390669E+02  0.00000000000E+00 0.  1.
         12    1    3    3    0    0 -0.49773173007E+02  0.33420886375E+02 -0.82671045335E+02  0.10212162422E+03  0.00000000000E+00 0. -1.
        -11    1    4    4    0    0 -0.13942530390E+02  0.17925144920E+02 -0.56327539140E+02  0.60732994654E+02  0.00000000000E+00 0.  1.
         11    1    4    4    0    0  0.15058092343E+02  0.62459431032E+02  0.17892397608E+02  0.66693812022E+02  0.00000000000E+00 0. -1.
         21    1    1    2  503  502 -0.13522174391E+02 -0.12104870409E+03  0.13994894250E+03  0.18552990182E+03  0.00000000000E+00 0. -1.
          3    1    1    2  501    0  0.34691296152E+02  0.12431383674E+02 -0.17938724687E+02  0.40985645928E+02  0.00000000000E+00 0. -1.
<scales pt_clust_5="13000.00000" pt_clust_6="13000.00000" pt_clust_7="13000.00000" pt_clust_8="13000.00000" pt_clust_9="117.56570" pt_clust_10="13000.00000"></scales>
<clustering>
<clus scale="   80.448">  5  6 -1 -1</clus>
<clus scale="   88.123">  2  5  1 -1</clus>
<clus scale="   91.090">  7  8 -1 -1</clus>
<clus scale="   35.149">  7 10 -1 -1</clus>
<clus scale="  117.566">  1  9  2 -1</clus>
<clus scale="  117.566">  1  5  2 -1</clus>
</clustering>
</event>
<event>
10    4  0.2565852E-005  0.2477519E+03  0.7546771E-02  0.1121554E+00
         21   -1    0    0  503  502  0.00000000000E+00  0.00000000000E+00  0.10891161127E+03  0.10891161127E+03  0.00000000000E+00 0. -1.
          2   -1    0    0  502    0 -0.00000000000E+00 -0.00000000000E+00 -0.99603514300E+03  0.99603514300E+03  0.00000000000E+00 0. -1.
         24    2    1    2    0    0 -0.17251864777E+03  0.10483220431E+03 -0.44599259683E+03  0.49631072972E+03  0.81623949459E+02 0.  0.
         23    2    1    2    0    0  0.88252218822E+02 -0.10486245265E+03 -0.43355620688E+03  0.46381010870E+03  0.91456242587E+02 0.  0.
        -13    1    3    3    0    0 -0.30902980205E+02 -0.11283490210E+00 -0.13827462132E+03  0.14168584198E+03  0.00000000000E+00 0.  1.
         14    1    3    3    0    0 -0.14161566757E+03  0.10494503921E+03 -0.30771797551E+03  0.35462488774E+03  0.00000000000E+00 0. -1.
        -13    1    4    4    0    0  0.39781002150E+02 -0.88058913845E+02 -0.36851030368E+03  0.38096816712E+03  0.00000000000E+00 0. -1.
         13    1    4    4    0    0  0.48471216673E+02 -0.16803538810E+02 -0.65045903191E+02  0.82841941577E+02  0.00000000000E+00 0.  1.
         21    1    1    2  503  501  0.23841636804E+02 -0.25546240999E+00  0.53708327809E+02  0.58762857168E+02  0.00000000000E+00 0. -1.
          1    1    1    2  501    0  0.60424792146E+02  0.28571075865E+00 -0.61283055839E+02  0.86063058680E+02  0.00000000000E+00 0. -1.
<scales pt_clust_5="13000.00000" pt_clust_6="13000.00000" pt_clust_7="13000.00000" pt_clust_8="13000.00000" pt_clust_9="23.84301" pt_clust_10="13000.00000"></scales>
<clustering>
<clus scale="   23.843">  1  9  2 -1</clus>
<clus scale="   81.624">  5  6 -1 -1</clus>
<clus scale="   91.456">  7  8 -1 -1</clus>
<clus scale="   66.033">  7 10 -1 -1</clus>
<clus scale="  208.782">  2  5  1 -1</clus>
<clus scale="   23.843">  1  5  2 -1</clus>
</clustering>
</event>
<event>
10    4  0.2565852E-005  0.2425737E+03  0.7546771E-02  0.1135316E+00
         -3   -1    0    0    0  501 -0.00000000000E+00  0.00000000000E+00  0.11793274763E+03  0.11793274763E+03  0.00000000000E+00 0.  1.
         21   -1    0    0  501  502  0.00000000000E+00 -0.00000000000E+00 -0.48160297444E+03  0.48160297444E+03  0.00000000000E+00 0.  1.
         24    2    1    2    0    0 -0.63977619720E+02 -0.11624218635E+03 -0.37115575200E+02  0.15822480377E+03  0.77795506883E+02 0.  0.
         23    2    1    2    0    0  0.34495070534E+02 -0.16921863538E+01 -0.14126410186E+03  0.17219392778E+03  0.92208616219E+02 0.  0.
        -13    1    3    3    0    0 -0.67539610828E+02 -0.93448970339E+02 -0.92273354276E+00  0.11530464225E+03  0.00000000000E+00 0.  1.
         14    1    3    3    0    0  0.35619911081E+01 -0.22793216013E+02 -0.36192841658E+02  0.42920161511E+02  0.00000000000E+00 0. -1.
        -13    1    4    4    0    0 -0.31475564172E+02 -0.57583919123E+01 -0.53263803646E+02  0.62136164963E+02  0.00000000000E+00 0. -1.
         13    1    4    4    0    0  0.65970634706E+02  0.40662055585E+01 -0.88000298210E+02  0.11005776282E+03  0.00000000000E+00 0.  1.
         21    1    1    2  503  502 -0.68034045933E+01 -0.20164575826E+02 -0.10119014360E+03  0.10340377939E+03  0.00000000000E+00 0.  1.
         -4    1    1    2    0  503  0.36285953779E+02  0.13809894853E+03 -0.84100406152E+02  0.16571321113E+03  0.00000000000E+00 0.  1.
<scales pt_clust_5="13000.00000" pt_clust_6="13000.00000" pt_clust_7="13000.00000" pt_clust_8="13000.00000" pt_clust_9="21.28136" pt_clust_10="13000.00000"></scales>
<clustering>
<clus scale="   21.281">  2  9  1 -1</clus>
<clus scale="   77.796">  5  6 -1 -1</clus>
<clus scale="   92.209">  7  8 -1 -1</clus>
<clus scale="  135.796">  7 10 -1 -1</clus>
<clus scale="  158.489">  1  5  2 -1</clus>
<clus scale="   21.281">  2  5  1 -1</clus>
</clustering>
</event>
<event>
10    4  0.2565852E-005  0.8440372E+03  0.7546771E-02  0.9932903E-01
          2   -1    0    0  502    0 -0.00000000000E+00  0.00000000000E+00  0.19725329825E+04  0.19725329825E+04  0.00000000000E+00 0. -1.
         21   -1    0    0  503  502  0.00000000000E+00 -0.00000000000E+00 -0.16515359640E+03  0.16515359640E+03  0.00000000000E+00 0.  1.
         24    2    1    2    0    0  0.60800944388E+02 -0.17220320028E+03  0.64560384927E+03  0.67583596391E+03  0.81235601126E+02 0.  0.
         23    2    1    2    0    0 -0.84377084590E+02  0.16182059066E+02 -0.10502794189E+03  0.16588950782E+03  0.95431173027E+02 0.  0.
        -11    1    3    3    0    0  0.42598783944E+02 -0.24483639015E+02  0.20364656732E+03  0.20948992662E+03  0.00000000000E+00 0.  1.
         12    1    3    3    0    0  0.18202160444E+02 -0.14771956127E+03  0.44195728195E+03  0.46634603729E+03  0.00000000000E+00 0. -1.
        -13    1    4    4    0    0 -0.73364619857E+02  0.41050577318E+02 -0.10978793006E+03  0.13827836755E+03  0.00000000000E+00 0.  1.
         13    1    4    4    0    0 -0.11012464733E+02 -0.24868518252E+02  0.47599881662E+01  0.27611140268E+02  0.00000000000E+00 0. -1.
         21    1    1    2  503  501 -0.44255277373E+02  0.14861930522E+02  0.47355841641E+02  0.66497987125E+02  0.00000000000E+00 0. -1.
          1    1    1    2  501    0  0.67831417575E+02  0.14115921069E+03  0.12194476371E+04  0.12294631200E+04  0.00000000000E+00 0. -1.
<scales pt_clust_5="13000.00000" pt_clust_6="13000.00000" pt_clust_7="13000.00000" pt_clust_8="13000.00000" pt_clust_9="46.68411" pt_clust_10="13000.00000"></scales>
<clustering>
<clus scale="   46.684">  2  9  1 -1</clus>
<clus scale="   81.236">  5  6 -1 -1</clus>
<clus scale="   95.431">  7  8 -1 -1</clus>
<clus scale="  156.432">  7 10 -1 -1</clus>
<clus scale="  197.358">  1  5  2 -1</clus>
<clus scale="   46.684">  2  5  1 -1</clus>
</clustering>
</event>
<event>
10    4  0.2565852E-005  0.3597023E+03  0.7546771E-02  0.1095127E+00
          2   -1    0    0  503    0 -0.00000000000E+00  0.00000000000E+00  0.13808661061E+04  0.13808661061E+04  0.00000000000E+00 0. -1.
         21   -1    0    0  501  502  0.00000000000E+00 -0.00000000000E+00 -0.15899455940E+03  0.15899455940E+03  0.00000000000E+00 0. -1.
         24    2    1    2    0    0  0.35963907612E+02  0.10116687579E+03  0.49507306123E+03  0.51289434340E+03  0.80219275265E+02 0.  0.
         23    2    1    2    0    0  0.81165400469E+02  0.88191650555E+02  0.26472028382E+03  0.30281068977E+03  0.85158063109E+02 0.  0.
        -11    1    3    3    0    0  0.31175317488E+02  0.69577005904E+02  0.45642647712E+03  0.46275046104E+03  0.00000000000E+00 0.  1.
         12    1    3    3    0    0  0.47885901232E+01  0.31589869889E+02  0.38646584109E+02  0.50143882362E+02  0.00000000000E+00 0. -1.
        -13    1    4    4    0    0  0.64059700182E+02  0.28397785991E+02  0.72709565446E+02  0.10097900942E+03  0.00000000000E+00 0.  1.
         13    1    4    4    0    0  0.17105700288E+02  0.59793864565E+02  0.19201071837E+03  0.20183168034E+03  0.00000000000E+00 0. -1.
         21    1    1    2  503  502  0.28836168603E+02 -0.25968943966E+03  0.30371260020E+02  0.26304475499E+03  0.00000000000E+00 0. -1.
          1    1    1    2  501    0 -0.14596547668E+03  0.70330913314E+02  0.43170694165E+03  0.46111087736E+03  0.00000000000E+00 0. -1.
<scales pt_clust_5="13000.00000" pt_clust_6="13000.00000" pt_clust_7="13000.00000" pt_clust_8="13000.00000" pt_clust_9="245.25272" pt_clust_10="13000.00000"></scales>
<clustering>
<clus scale="   80.219">  5  6 -1 -1</clus>
<clus scale="   85.158">  7  8 -1 -1</clus>
<clus scale="  134.027">  1  5  2 -1</clus>
<clus scale="  176.464">  7 10 -1 -1</clus>
<clus scale="  245.253">  2  9  1 -1</clus>
<clus scale="  245.253">  2  5  1 -1</clus>
</clustering>
</event>
<event>
10    4  0.2565852E-005  0.4669121E+03  0.7546771E-02  0.1048835E+00
          2   -1    0    0  503    0 -0.00000000000E+00  0.00000000000E+00  0.23729931550E+04  0.23729931550E+04  0.00000000000E+00 0. -1.
         21   -1    0    0  501  502  0.00000000000E+00 -0.00000000000E+00 -0.29373582536E+03  0.29373582536E+03  0.00000000000E+00 0. -1.
         24    2    1    2    0    0  0.10964508977E+03 -0.17412639942E+03  0.30468828736E+03  0.37628414333E+03  0.80079681431E+02 0.  0.
         23    2    1    2    0    0  0.22783057634E+02 -0.26386085121E+02  0.10070415898E+03  0.13969888393E+03  0.90328053961E+02 0.  0.
        -13    1    3    3    0    0  0.87413849686E+02 -0.97328281973E+02  0.24040824005E+03  0.27369709072E+03  0.00000000000E+00 0.  1.
         14    1    3    3    0    0  0.22231240081E+02 -0.76798117443E+02  0.64280047317E+02  0.10258705260E+03  0.00000000000E+00 0. -1.
        -11    1    4    4    0    0  0.55658091347E+02 -0.43822849662E+01  0.70487853472E+02  0.89919770023E+02  0.00000000000E+00 0.  1.
         11    1    4    4    0    0 -0.32875033713E+02 -0.22003800155E+02  0.30216305513E+02  0.49779113910E+02  0.00000000000E+00 0. -1.
         21    1    1    2  503  502  0.26848304717E+02  0.26536871945E+02 -0.22962001041E+03  0.23270235543E+03  0.00000000000E+00 0. -1.
          1    1    1    2  501    0 -0.15927645212E+03  0.17397561259E+03  0.19034848938E+04  0.19180435977E+04  0.00000000000E+00 0. -1.
<scales pt_clust_5="13000.00000" pt_clust_6="13000.00000" pt_clust_7="13000.00000" pt_clust_8="13000.00000" pt_clust_9="37.74966" pt_clust_10="13000.00000"></scales>
<clustering>
<clus scale="   37.750">  2  9  1 -1</clus>
<clus scale="   80.080">  5  6 -1 -1</clus>
<clus scale="   90.328">  7  8 -1 -1</clus>
<clus scale="  217.491">  1  5  2 -1</clus>
<clus scale="   47.664">  7 10 -1 -1</clus>
<clus scale="   37.750">  2  5  1 -1</clus>
</clustering>
</event>
<event>
10    4  0.2565852E-005  0.3106906E+03  0.7546771E-02  0.1106939E+00
         21   -1    0    0  503  502  0.00000000000E+00  0.00000000000E+00  0.43285492078E+03  0.43285492078E+03  0.00000000000E+00 0. -1.
          2   -1    0    0  502    0 -0.00000000000E+00 -0.00000000000E+00 -0.27848664472E+03  0.27848664472E+03  0.00000000000E+00 0. -1.
         24    2    1    2    0    0 -0.11731341106E+03  0.39061893855E+02  0.28599885538E+03  0.32041881174E+03  0.74730192516E+02 0.  0.
         23    2    1    2    0    0 -0.45579106899E+02 -0.83652025838E+02 -0.12680133532E+03  0.18461938357E+03  0.94501966852E+02 0.  0.
        -11    1    3    3    0    0 -0.29484078800E+02  0.22640501315E+02  0.16989106340E+03  0.17391054202E+03  0.00000000000E+00 0.  1.
         12    1    3    3    0    0 -0.87829332262E+02  0.16421392541E+02  0.11610779198E+03  0.14650826972E+03  0.00000000000E+00 0. -1.
        -11    1    4    4    0    0 -0.36267344508E+02 -0.12550536814E+02  0.64650115731E+00  0.38382993835E+02  0.00000000000E+00 0.  1.
         11    1    4    4    0    0 -0.93117623909E+01 -0.71101489024E+02 -0.12744783648E+03  0.14623638974E+03  0.00000000000E+00 0. -1.
         21    1    1    2  503  501  0.15608975543E+01  0.35911765303E+02  0.22552345520E+02  0.42434650662E+02  0.00000000000E+00 0. -1.
          1    1    1    2  501    0  0.16133162041E+03  0.86783666797E+01 -0.27381589517E+02  0.16386871952E+03  0.00000000000E+00 0. -1.
<scales pt_clust_5="13000.00000" pt_clust_6="13000.00000" pt_clust_7="13000.00000" pt_clust_8="13000.00000" pt_clust_9="35.94567" pt_clust_10="13000.00000"></scales>
<clustering>
<clus scale="   35.946">  1  9  2 -1</clus>
<clus scale="   74.730">  5  6 -1 -1</clus>
<clus scale="   94.502">  7  8 -1 -1</clus>
<clus scale="  153.171">  2  5  1 -1</clus>
<clus scale="  123.263">  7 10 -1 -1</clus>
<clus scale="   35.946">  1  5  2 -1</clus>
</clustering>
</event>
<event>
10    4  0.2565852E-005  0.1661081E+03  0.7546771E-02  0.1202598E+00
         21   -1    0    0  503  502  0.00000000000E+00  0.00000000000E+00  0.10927237421E+03  0.10927237421E+03  0.00000000000E+00 0.  1.
          2   -1    0    0  502    0 -0.00000000000E+00 -0.00000000000E+00 -0.33054601999E+03  0.33054601999E+03  0.00000000000E+00 0. -1.
         24    2    1    2    0    0 -0.54354526957E+02  0.32998248488E+02 -0.17966424613E+03  0.20673007861E+03  0.80092353315E+02 0.  0.
         23    2    1    2    0    0  0.35880554246E+02  0.21720743409E+02 -0.29041981285E+01  0.10165560521E+03  0.92553891529E+02 0.  0.
        -11    1    3    3    0    0 -0.56998757809E+02 -0.11080824369E+02 -0.99158362444E+02  0.11490876339E+03  0.00000000000E+00 0.  1.
         12    1    3    3    0    0  0.26442308524E+01  0.44079072857E+02 -0.80505883689E+02  0.91821315223E+02  0.00000000000E+00 0. -1.
        -13    1    4    4    0    0  0.85352789976E+01  0.32889977788E+02 -0.41127700679E+02  0.53348752466E+02  0.00000000000E+00 0. -1.
         13    1    4    4    0    0  0.27345275249E+02 -0.11169234380E+02  0.38223502551E+02  0.48306852747E+02  0.00000000000E+00 0.  1.
         21    1    1    2  503  501 -0.44166562513E+02 -0.14166384425E+02  0.20099143134E+01  0.46426408944E+02  0.00000000000E+00 0.  1.
          1    1    1    2  501    0  0.62640535224E+02 -0.40552607472E+02 -0.40715115832E+02  0.85006301432E+02  0.00000000000E+00 0. -1.
<scales pt_clust_5="13000.00000" pt_clust_6="13000.00000" pt_clust_7="13000.00000" pt_clust_8="13000.00000" pt_clust_9="46.38288" pt_clust_10="13000.00000"></scales>
<clustering>
<clus scale="   46.383">  1  9  2 -1</clus>
<clus scale="   80.092">  5  6 -1 -1</clus>
<clus scale="   92.554">  7  8 -1 -1</clus>
<clus scale="   67.622">  7 10 -1 -1</clus>
<clus scale="  105.488">  2  5  1 -1</clus>
<clus scale="   46.383">  1  5  2 -1</clus>
</clustering>
</event>
<event>
10    4  0.2565852E-005  0.2487014E+03  0.7546771E-02  0.1146988E+00
         21   -1    0    0  503  502  0.00000000000E+00  0.00000000000E+00  0.34195713699E+03  0.34195713699E+03  0.00000000000E+00 0.  1.
          2   -1    0    0  502    0 -0.00000000000E+00 -0.00000000000E+00 -0.37542723809E+03  0.37542723809E+03  0.00000000000E+00 0. -1.
         24    2    1    2    0    0 -0.50700651158E+02  0.68641778219E+02 -0.14618981680E+03  0.18720733236E+03  0.79955443910E+02 0.  0.
         23    2    1    2    0    0  0.11124338439E+03 -0.14338444562E+02 -0.82510995836E+02  0.16317093845E+03  0.85064735105E+02 0.  0.
        -11    1    3    3    0    0  0.10083941099E+02  0.29283437770E+02 -0.91097437400E+02  0.96218234741E+02  0.00000000000E+00 0.  1.
         12    1    3    3    0    0 -0.60784592257E+02  0.39358340449E+02 -0.55092379398E+02  0.90989097624E+02  0.00000000000E+00 0. -1.
        -13    1    4    4    0    0  0.67728263804E+02 -0.48837990618E+02 -0.36818405099E+02  0.91257120267E+02  0.00000000000E+00 0.  1.
         13    1    4    4    0    0  0.43515120585E+02  0.34499546055E+02 -0.45692590737E+02  0.71913818184E+02  0.00000000000E+00 0. -1.
         21    1    1    2  503  501  0.34663258428E+02 -0.20590989876E+02  0.24923563526E+03  0.25247560720E+03  0.00000000000E+00 0.  1.
          1    1    1    2  501    0 -0.95205991658E+02 -0.33712343780E+02 -0.54004923720E+02  0.11453049706E+03  0.00000000000E+00 0. -1.
<scales pt_clust_5="13000.00000" pt_clust_6="13000.00000" pt_clust_7="13000.00000" pt_clust_8="13000.00000" pt_clust_9="40.31787" pt_clust_10="13000.00000"></scales>
<clustering>
<clus scale="   40.318">  1  9  2 -1</clus>
<clus scale="   79.955">  5  6 -1 -1</clus>
<clus scale="   85.065">  7  8 -1 -1</clus>
<clus scale="   92.999">  7 10 -1 -1</clus>
<clus scale="  111.040">  2  5  1 -1</clus>
<clus scale="   40.318">  1  5  2 -1</clus>
</clustering>
</event>
<event>
10    4  0.2565852E-005  0.3311325E+03  0.7546771E-02  0.1121047E+00
          2   -1    0    0  503    0 -0.00000000000E+00  0.00000000000E+00  0.33118320960E+03  0.33118320960E+03  0.00000000000E+00 0. -1.
         21   -1    0    0  501  502  0.00000000000E+00 -0.00000000000E+00 -0.20788828017E+03  0.20788828017E+03  0.00000000000E+00 0. -1.
         24    2    1    2    0    0  0.20122724437E+01 -0.49642573000E+02 -0.20045378564E+02  0.96662401998E+02  0.80457246186E+02 0.  0.
         23    2    1    2    0    0 -0.75724014456E+02 -0.10903670541E+03  0.68368461376E+02  0.17461508779E+03  0.90515484208E+02 0.  0.
        -11    1    3    3    0    0 -0.24696795411E+02 -0.12875968635E+01  0.17124288022E+02  0.30080406406E+02  0.00000000000E+00 0.  1.
         12    1    3    3    0    0  0.26709067855E+02 -0.48354976136E+02 -0.37169666587E+02  0.66581995592E+02  0.00000000000E+00 0. -1.
        -13    1    4    4    0    0 -0.94995938708E+02 -0.10035203162E+03  0.51133689162E+02  0.14734114425E+03  0.00000000000E+00 0. -1.
         13    1    4    4    0    0  0.19271924252E+02 -0.86846737958E+01  0.17234772214E+02  0.27273943546E+02  0.00000000000E+00 0.  1.
         21    1    1    2  503  502 -0.62063380501E+02  0.53958008457E+02  0.44933966993E+02  0.93714413329E+02  0.00000000000E+00 0. -1.
          1    1    1    2  501    0  0.13577512251E+03  0.10472126995E+03  0.30037879627E+02  0.17407958665E+03  0.00000000000E+00 0. -1.
<scales pt_clust_5="13000.00000" pt_clust_6="13000.00000" pt_clust_7="13000.00000" pt_clust_8="13000.00000" pt_clust_9="82.23951" pt_clust_10="13000.00000"></scales>
<clustering>
<clus scale="   80.457">  5  6 -1 -1</clus>
<clus scale="   82.240">  2  9  1 -1</clus>
<clus scale="   88.559">  1  5  2 -1</clus>
<clus scale="   90.515">  7  8 -1 -1</clus>
<clus scale="  151.671">  7 10 -1 -1</clus>
<clus scale="   82.240">  2  5  1 -1</clus>
</clustering>
</event>
<event>
10    4  0.2844185E-005  0.6013159E+03  0.7546771E-02  0.1041526E+00
         21   -1    0    0  501  502  0.00000000000E+00  0.00000000000E+00  0.57999060946E+02  0.57999060946E+02  0.00000000000E+00 0.  1.
          2   -1    0    0  503    0 -0.00000000000E+00 -0.00000000000E+00 -0.28043795827E+04  0.28043795827E+04  0.00000000000E+00 0. -1.
         24    2    1    2    0    0  0.18456754577E+02  0.96757423532E+02 -0.17602909966E+03  0.21739538859E+03  0.81067010908E+02 0.  0.
         23    2    1    2    0    0  0.86942618440E+02  0.18073302035E+03 -0.45065939638E+03  0.50150885265E+03  0.90519579047E+02 0.  0.
        -13    1    3    3    0    0 -0.12951752643E+02  0.70548646390E+02 -0.57263287296E+02  0.91782043320E+02  0.00000000000E+00 0.  1.
         14    1    3    3    0    0  0.31408507220E+02  0.26208777142E+02 -0.11876581236E+03  0.12561334527E+03  0.00000000000E+00 0. -1.
        -11    1    4    4    0    0  0.24900059164E+02  0.14660326320E+03 -0.32110865076E+03  0.35386903696E+03  0.00000000000E+00 0. -1.
         11    1    4    4    0    0  0.62042559277E+02  0.34129757150E+02 -0.12955074563E+03  0.14763981569E+03  0.00000000000E+00 0.  1.
         21    1    1    2  503  502 -0.20026912967E+02 -0.36838027277E+01 -0.49733910305E+02  0.53741133964E+02  0.00000000000E+00 0. -1.
          1    1    1    2  501    0 -0.85372460050E+02 -0.27380664115E+03 -0.20699581154E+04  0.20897332685E+04  0.00000000000E+00 0. -1.
<scales pt_clust_5="13000.00000" pt_clust_6="13000.00000" pt_clust_7="13000.00000" pt_clust_8="13000.00000" pt_clust_9="20.36290" pt_clust_10="13000.00000"></scales>
<clustering>
<clus scale="   20.363">  1  9  2 -1</clus>
<clus scale="   81.067">  5  6 -1 -1</clus>
<clus scale="   90.520">  7  8 -1 -1</clus>
<clus scale="  125.677">  2  5  1 -1</clus>
<clus scale="  212.442">  7 10 -1 -1</clus>
<clus scale="   20.363">  1  5  2 -1</clus>
</clustering>
</event>
<event>
10    4  0.2565852E-005  0.4548929E+03  0.7546771E-02  0.1043474E+00
          2   -1    0    0  503    0 -0.00000000000E+00  0.00000000000E+00  0.52942537100E+03  0.52942537100E+03  0.00000000000E+00 0. -1.
         21   -1    0    0  501  502  0.00000000000E+00 -0.00000000000E+00 -0.30304757355E+03  0.30304757355E+03  0.00000000000E+00 0.  1.
         24    2    1    2    0    0  0.54912718940E+01  0.25449396478E+03 -0.25722282288E+02  0.26816813849E+03  0.80344150510E+02 0.  0.
         23    2    1    2    0    0  0.95945209699E+02  0.17095358865E+02  0.16987928838E+03  0.21904732529E+03  0.98107204305E+02 0.  0.
        -13    1    3    3    0    0  0.18901141334E+02  0.17942728010E+03 -0.51579844933E+02  0.18764829440E+03  0.00000000000E+00 0.  1.
         14    1    3    3    0    0 -0.13409869440E+02  0.75066684681E+02  0.25857562644E+02  0.80519844096E+02  0.00000000000E+00 0. -1.
        -13    1    4    4    0    0  0.15797517014E+02  0.36950595078E+02  0.10982803380E+03  0.11694915574E+03  0.00000000000E+00 0.  1.
         13    1    4    4    0    0  0.80147692685E+02 -0.19855236212E+02  0.60051254575E+02  0.10209816954E+03  0.00000000000E+00 0. -1.
         21    1    1    2  503  502 -0.21846579646E+02  0.14741671746E+02 -0.17671936995E+02  0.31731487284E+02  0.00000000000E+00 0.  1.
          1    1    1    2  501    0 -0.79589901947E+02 -0.28633099539E+03  0.99892728349E+02  0.31352599348E+03  0.00000000000E+00 0. -1.
<scales pt_clust_5="13000.00000" pt_clust_6="13000.00000" pt_clust_7="13000.00000" pt_clust_8="13000.00000" pt_clust_9="26.35507" pt_clust_10="13000.00000"></scales>
<clustering>
<clus scale="   26.355">  2  9  1 -1</clus>
<clus scale="   80.344">  5  6 -1 -1</clus>
<clus scale="   98.107">  7  8 -1 -1</clus>
<clus scale="  274.373">  1  5  2 -1</clus>
<clus scale="  172.019">  7 10 -1 -1</clus>
<clus scale="   26.355">  2  5  1 -1</clus>
</clustering>
</event>
<event>
10    4  0.2565852E-005  0.1083075E+04  0.7546771E-02  0.9459395E-01
         21   -1    0    0  501  502  0.00000000000E+00  0.00000000000E+00  0.31352198320E+03  0.31352198320E+03  0.00000000000E+00 0. -1.
          2   -1    0    0  503    0 -0.00000000000E+00 -0.00000000000E+00 -0.31624905920E+04  0.31624905920E+04  0.00000000000E+00 0. -1.
         24    2    1    2    0    0  0.95331963210E+02 -0.35090623194E+03 -0.24181090815E+03  0.44393416227E+03  0.79885282170E+02 0.  0.
         23    2    1    2    0    0 -0.26983880321E+02 -0.16885704848E+03 -0.33895967479E+02  0.19952696646E+03  0.97063078018E+02 0.  0.
        -11    1    3    3    0    0  0.74577402895E+02 -0.13131132083E+03 -0.11183762015E+03  0.18791515448E+03  0.00000000000E+00 0.  1.
         12    1    3    3    0    0  0.20754560315E+02 -0.21959491111E+03 -0.12997328800E+03  0.25601900780E+03  0.00000000000E+00 0. -1.
        -13    1    4    4    0    0  0.18630433442E+02 -0.14251205198E+03 -0.29029043782E+02  0.14662695316E+03  0.00000000000E+00 0. -1.
         13    1    4    4    0    0 -0.45614313763E+02 -0.26344996495E+02 -0.48669236975E+01  0.52900013295E+02  0.00000000000E+00 0.  1.
         21    1    1    2  503  502  0.34228224672E+03 -0.76194064944E+02 -0.35405509918E+03  0.49831484547E+03  0.00000000000E+00 0.  1.
          1    1    1    2  501    0 -0.41063032961E+03  0.59595734536E+03 -0.22192066340E+04  0.23342366010E+04  0.00000000000E+00 0. -1.
<scales pt_clust_5="13000.00000" pt_clust_6="13000.00000" pt_clust_7="13000.00000" pt_clust_8="13000.00000" pt_clust_9="350.66034" pt_clust_10="13000.00000"></scales>
<clustering>
<clus scale="   79.885">  5  6 -1 -1</clus>
<clus scale="   97.063">  7  8 -1 -1</clus>
<clus scale="  350.660">  1  9  2 -1</clus>
<clus scale="  458.113">  2  5  1 -1</clus>
<clus scale="  293.414">  7 10 -1 -1</clus>
<clus scale="  350.660">  1  5  2 -1</clus>
</clustering>
</event>
<event>
10    4  0.2565852E-005  0.1100940E+04  0.7546771E-02  0.9460888E-01
         21   -1    0    0  501  502  0.00000000000E+00  0.00000000000E+00  0.52695979526E+03  0.52695979526E+03  0.00000000000E+00 0.  1.
          2   -1    0    0  503    0 -0.00000000000E+00 -0.00000000000E+00 -0.17814847797E+04  0.17814847797E+04  0.00000000000E+00 0. -1.
         24    2    1    2    0    0  0.19414483695E+03 -0.24748245872E+03  0.43712931942E+02  0.32779934747E+03  0.81251502747E+02 0.  0.
         23    2    1    2    0    0  0.15312497816E+03  0.18627159353E+03 -0.11289905807E+04  0.11580916029E+04  0.91717305276E+02 0.  0.
        -13    1    3    3    0    0  0.18851459019E+03 -0.22754814802E+03  0.59909627808E+02  0.30150468303E+03  0.00000000000E+00 0.  1.
         14    1    3    3    0    0  0.56302467588E+01 -0.19934310696E+02 -0.16196695865E+02  0.26294664448E+02  0.00000000000E+00 0. -1.
        -11    1    4    4    0    0  0.41796173166E+02  0.12100924039E+03 -0.61095420110E+03  0.62422367161E+03  0.00000000000E+00 0. -1.
         11    1    4    4    0    0  0.11132880500E+03  0.65262353141E+02 -0.51803637956E+03  0.53386793134E+03  0.00000000000E+00 0.  1.
         21    1    1    2  503  502  0.14039187742E+03 -0.20126202769E+03 -0.70946992898E+01  0.24549260231E+03  0.00000000000E+00 0.  1.
          1    1    1    2  501    0 -0.48766169253E+03  0.26247289287E+03 -0.16215263640E+03  0.57706102220E+03  0.00000000000E+00 0. -1.
<scales pt_clust_5="13000.00000" pt_clust_6="13000.00000" pt_clust_7="13000.00000" pt_clust_8="13000.00000" pt_clust_9="245.39006" pt_clust_10="13000.00000"></scales>
<clustering>
<clus scale="   81.252">  5  6 -1 -1</clus>
<clus scale="   91.717">  7  8 -1 -1</clus>
<clus scale="  245.390">  1  9  2 -1</clus>
<clus scale="  433.881">  2  5  1 -1</clus>
<clus scale="  372.721">  7 10 -1 -1</clus>
<clus scale="  245.390">  1  5  2 -1</clus>
</clustering>
</event>
<event>
10    4  0.2565852E-005  0.7959372E+03  0.7546771E-02  0.1023209E+00
         21   -1    0    0  503  502  0.00000000000E+00  0.00000000000E+00  0.12419892092E+04  0.12419892092E+04  0.00000000000E+00 0. -1.
          4   -1    0    0  502    0 -0.00000000000E+00 -0.00000000000E+00 -0.27632816043E+03  0.27632816043E+03  0.00000000000E+00 0. -1.
         24    2    1    2    0    0 -0.44540646835E+02 -0.78219973136E+01 -0.81326443082E+02  0.12387385645E+03  0.81766063280E+02 0.  0.
         23    2    1    2    0    0 -0.94393480592E+02  0.14002544985E+03 -0.10292888137E+03  0.21857217568E+03  0.93070863214E+02 0.  0.
        -13    1    3    3    0    0 -0.68275915481E+02 -0.56675418736E+01 -0.68181638685E+02  0.96656388921E+02  0.00000000000E+00 0.  1.
         14    1    3    3    0    0  0.23735268645E+02 -0.21544554400E+01 -0.13144804398E+02  0.27217467526E+02  0.00000000000E+00 0. -1.
        -13    1    4    4    0    0 -0.86209275729E+01  0.52711919997E+02 -0.76590045262E+02  0.93375060564E+02  0.00000000000E+00 0.  1.
         13    1    4    4    0    0 -0.85772553019E+02  0.87313529856E+02 -0.26338836104E+02  0.12519711512E+03  0.00000000000E+00 0. -1.
         21    1    1    2  503  501  0.27013765891E+02  0.32342382643E+02  0.30139826176E+03  0.30432989576E+03  0.00000000000E+00 0. -1.
          3    1    1    2  501    0  0.11192036154E+03 -0.16454583518E+03  0.84851811144E+03  0.87154144173E+03  0.00000000000E+00 0. -1.
<scales pt_clust_5="13000.00000" pt_clust_6="13000.00000" pt_clust_7="13000.00000" pt_clust_8="13000.00000" pt_clust_9="42.13992" pt_clust_10="13000.00000"></scales>
<clustering>
<clus scale="   42.140">  1  9  2 -1</clus>
<clus scale="   81.766">  5  6 -1 -1</clus>
<clus scale="   93.071">  7  8 -1 -1</clus>
<clus scale="   93.090">  2  5  1 -1</clus>
<clus scale="  190.184">  7 10 -1 -1</clus>
<clus scale="   42.140">  1  5  2 -1</clus>
</clustering>
</event>
<event>
10    4  0.2565852E-005  0.3759477E+03  0.7546771E-02  0.1075500E+00
         21   -1    0    0  501  502  0.00000000000E+00  0.00000000000E+00  0.69976742753E+03  0.69976742753E+03  0.00000000000E+00 0. -1.
          2   -1    0    0  503    0 -0.00000000000E+00 -0.00000000000E+00 -0.16576203267E+03  0.16576203267E+03  0.00000000000E+00 0. -1.
         24    2    1    2    0    0  0.14778012472E+03  0.88237271146E+02  0.18056060802E+03  0.26235246773E+03  0.81252094608E+02 0.  0.
         23    2    1    2    0    0 -0.79702766656E+02  0.60930338584E+02 -0.48828824723E+02  0.14399986895E+03  0.91031153791E+02 0.  0.
        -13    1    3    3    0    0  0.84429269369E+02  0.12893008441E+02  0.50435584117E+02  0.99188100788E+02  0.00000000000E+00 0.  1.
         14    1    3    3    0    0  0.63350855349E+02  0.75344262705E+02  0.13012502390E+03  0.16316436694E+03  0.00000000000E+00 0. -1.
        -13    1    4    4    0    0 -0.58081765640E+02  0.38882884848E+02 -0.75723185336E+02  0.10305033251E+03  0.00000000000E+00 0. -1.
         13    1    4    4    0    0 -0.21621001016E+02  0.22047453737E+02  0.26894360614E+02  0.40949536432E+02  0.00000000000E+00 0.  1.
         21    1    1    2  503  502  0.41543461343E+02 -0.35839029749E+02  0.16845050095E+03  0.17716056701E+03  0.00000000000E+00 0. -1.
          1    1    1    2  501    0 -0.10962081940E+03 -0.11332857998E+03  0.23382311062E+03  0.28201655651E+03  0.00000000000E+00 0. -1.
<scales pt_clust_5="13000.00000" pt_clust_6="13000.00000" pt_clust_7="13000.00000" pt_clust_8="13000.00000" pt_clust_9="54.86616" pt_clust_10="13000.00000"></scales>
<clustering>
<clus scale="   54.866">  1  9  2 -1</clus>
<clus scale="   81.252">  5  6 -1 -1</clus>
<clus scale="   91.031">  7  8 -1 -1</clus>
<clus scale="  158.427">  7 10 -1 -1</clus>
<clus scale="  198.143">  2  5  1 -1</clus>
<clus scale="   54.866">  1  5  2 -1</clus>
</clustering>
</event>
<event>
10    4  0.2565852E-005  0.1476890E+04  0.7546771E-02  0.9011441E-01
         21   -1    0    0  501  502  0.00000000000E+00  0.00000000000E+00  0.17737651595E+04  0.17737651595E+04  0.00000000000E+00 0.  1.
          2   -1    0    0  503    0 -0.00000000000E+00 -0.00000000000E+00 -0.94837502093E+03  0.94837502093E+03  0.00000000000E+00 0. -1.
         24    2    1    2    0    0 -0.88436669717E+03 -0.42725944933E+03  0.24642646511E+03  0.10157280353E+04  0.79513186853E+02 0.  0.
         23    2    1    2    0    0  0.81269634255E+02  0.37202346502E+02 -0.32931998148E+03  0.35353447453E+03  0.92445694582E+02 0.  0.
        -11    1    3    3    0    0 -0.82337301618E+03 -0.41752553446E+03  0.22358362440E+03  0.94987385099E+03  0.00000000000E+00 0.  1.
         12    1    3    3    0    0 -0.60993680990E+02 -0.97339148780E+01  0.22842840714E+02  0.65854184312E+02  0.00000000000E+00 0. -1.
        -11    1    4    4    0    0  0.21945291017E+02  0.52695853615E+02 -0.22860256336E+03  0.23562168992E+03  0.00000000000E+00 0.  1.
         11    1    4    4    0    0  0.59324343238E+02 -0.15493507113E+02 -0.10071741812E+03  0.11791278462E+03  0.00000000000E+00 0. -1.
         21    1    1    2  503  502  0.14024223931E+03 -0.74387537219E+02  0.35698587967E+02  0.16271379955E+03  0.00000000000E+00 0.  1.
          1    1    1    2  501    0  0.66285482361E+03  0.46444464005E+03  0.87258506700E+03  0.11901638711E+04  0.00000000000E+00 0. -1.
<scales pt_clust_5="13000.00000" pt_clust_6="13000.00000" pt_clust_7="13000.00000" pt_clust_8="13000.00000" pt_clust_9="158.74954" pt_clust_10="13000.00000"></scales>
<clustering>
<clus scale="   79.513">  5  6 -1 -1</clus>
<clus scale="   92.446">  7  8 -1 -1</clus>
<clus scale="  158.750">  1  9  2 -1</clus>
<clus scale="  858.253">  7 10 -1 -1</clus>
<clus scale="  951.331">  2  5  1 -1</clus>
<clus scale="  158.750">  1  5  2 -1</clus>
</clustering>
</event>
<event>
10    4  0.2565852E-005  0.2538373E+03  0.7546771E-02  0.1123360E+00
         21   -1    0    0  501  502  0.00000000000E+00  0.00000000000E+00  0.12850571879E+03  0.12850571879E+03  0.00000000000E+00 0. -1.
          2   -1    0    0  503    0 -0.00000000000E+00 -0.00000000000E+00 -0.41978215974E+03  0.41978215974E+03  0.00000000000E+00 0. -1.
         24    2    1    2    0    0  0.11151796706E+03 -0.11692183567E+03 -0.10422162782E+03  0.20864924086E+03  0.81027065666E+02 0.  0.
         23    2    1    2    0    0 -0.94501304497E+02  0.16157938582E+02 -0.33821249952E+02  0.13737393771E+03  0.92391267349E+02 0.  0.
        -11    1    3    3    0    0  0.10141229475E+03 -0.97408587187E+02 -0.11726452410E+03  0.18309520747E+03  0.00000000000E+00 0.  1.
         12    1    3    3    0    0  0.10105672310E+02 -0.19513248482E+02  0.13042896279E+02  0.25554033390E+02  0.00000000000E+00 0. -1.
        -11    1    4    4    0    0 -0.16897577475E+02  0.44465318950E+02  0.13638454000E+01  0.47587317514E+02  0.00000000000E+00 0.  1.
         11    1    4    4    0    0 -0.77603727022E+02 -0.28307380368E+02 -0.35185095352E+02  0.89786620195E+02  0.00000000000E+00 0. -1.
         21    1    1    2  503  502  0.23303751505E+02  0.57925728731E+01 -0.10655238877E+02  0.26270760366E+02  0.00000000000E+00 0.  1.
          1    1    1    2  501    0 -0.40320414071E+02  0.94971324214E+02 -0.14257832431E+03  0.17599393960E+03  0.00000000000E+00 0. -1.
<scales pt_clust_5="13000.00000" pt_clust_6="13000.00000" pt_clust_7="13000.00000" pt_clust_8="13000.00000" pt_clust_9="24.01289" pt_clust_10="13000.00000"></scales>
<clustering>
<clus scale="   24.013">  1  9  2 -1</clus>
<clus scale="   81.027">  5  6 -1 -1</clus>
<clus scale="   92.391">  7  8 -1 -1</clus>
<clus scale="  102.706">  7 10 -1 -1</clus>
<clus scale="  185.588">  2  5  1 -1</clus>
<clus scale="   24.013">  1  5  2 -1</clus>
</clustering>
</event>
<event>
10    4  0.2565852E-005  0.3137476E+03  0.7546771E-02  0.1092466E+00
         21   -1    0    0  501  502  0.00000000000E+00  0.00000000000E+00  0.61982770589E+02  0.61982770589E+02  0.00000000000E+00 0. -1.
          2   -1    0    0  503    0 -0.00000000000E+00 -0.00000000000E+00 -0.16804021690E+04  0.16804021690E+04  0.00000000000E+00 0. -1.
         24    2    1    2    0    0 -0.16198868060E+02  0.20374251917E+03 -0.10459230520E+04  0.10686318265E+04  0.79028681145E+02 0.  0.
         23    2    1    2    0    0  0.62573950533E+02  0.27242569924E+01 -0.16254535027E+03  0.19664116438E+03  0.91235057815E+02 0.  0.
        -13    1    3    3    0    0 -0.39184480232E+02  0.10538489129E+03 -0.67033376380E+03  0.67969754575E+03  0.00000000000E+00 0.  1.
         14    1    3    3    0    0  0.22985612172E+02  0.98357627882E+02 -0.37558928823E+03  0.38893428078E+03  0.00000000000E+00 0. -1.
        -13    1    4    4    0    0  0.73040626169E+02 -0.27093059033E+02 -0.10202218136E+03  0.12836468521E+03  0.00000000000E+00 0.  1.
         13    1    4    4    0    0 -0.10466675636E+02  0.29817316026E+02 -0.60523168911E+02  0.68276479177E+02  0.00000000000E+00 0. -1.
         21    1    1    2  503  502 -0.20007197388E+02 -0.14021290218E+02 -0.10900067541E+01  0.24455523741E+02  0.00000000000E+00 0.  1.
          1    1    1    2  501    0 -0.26367885085E+02 -0.19244548594E+03 -0.40886098935E+03  0.45265642494E+03  0.00000000000E+00 0. -1.
<scales pt_clust_5="13000.00000" pt_clust_6="13000.00000" pt_clust_7="13000.00000" pt_clust_8="13000.00000" pt_clust_9="24.43122" pt_clust_10="13000.00000"></scales>
<clustering>
<clus scale="   24.431">  1  9  2 -1</clus>
<clus scale="   79.029">  5  6 -1 -1</clus>
<clus scale="   91.235">  7  8 -1 -1</clus>
<clus scale="  201.624">  7 10 -1 -1</clus>
<clus scale="  216.578">  2  5  1 -1</clus>
<clus scale="   24.431">  1  5  2 -1</clus>
</clustering>
</event>
<event>
10    4  0.2565852E-005  0.2014773E+03  0.7546771E-02  0.1169161E+00
         21   -1    0    0  501  502  0.00000000000E+00  0.00000000000E+00  0.53529433377E+03  0.53529433377E+03  0.00000000000E+00 0.  1.
          2   -1    0    0  503    0 -0.00000000000E+00 -0.00000000000E+00 -0.16609857795E+03  0.16609857795E+03  0.00000000000E+00 0. -1.
         24    2    1    2    0    0 -0.79345151623E+02 -0.63487569060E+02 -0.49134944206E+02  0.13840936925E+03  0.80103596941E+02 0.  0.
         23    2    1    2    0    0 -0.68866190434E+01  0.45330919916E+02  0.13839210776E+03  0.16894451101E+03  0.85367174532E+02 0.  0.
        -13    1    3    3    0    0  0.34577020179E+01 -0.40023240011E+02 -0.18570035751E+01  0.40215219836E+02  0.00000000000E+00 0.  1.
         14    1    3    3    0    0 -0.82802853640E+02 -0.23464329049E+02 -0.47277940631E+02  0.98194149414E+02  0.00000000000E+00 0. -1.
        -11    1    4    4    0    0 -0.34121130095E+02 -0.62790065732E+01  0.30104372158E+02  0.45934199303E+02  0.00000000000E+00 0.  1.
         11    1    4    4    0    0  0.27234511052E+02  0.51609926489E+02  0.10828773560E+03  0.12301031171E+03  0.00000000000E+00 0. -1.
         21    1    1    2  503  502  0.96612029604E+02 -0.51866402320E+02  0.30086326680E+03  0.32022291183E+03  0.00000000000E+00 0.  1.
          1    1    1    2  501    0 -0.10380258938E+02  0.70023051464E+02 -0.20924674533E+02  0.73816119623E+02  0.00000000000E+00 0. -1.
<scales pt_clust_5="13000.00000" pt_clust_6="13000.00000" pt_clust_7="13000.00000" pt_clust_8="13000.00000" pt_clust_9="109.65404" pt_clust_10="13000.00000"></scales>
<clustering>
<clus scale="   80.104">  5  6 -1 -1</clus>
<clus scale="   85.367">  7  8 -1 -1</clus>
<clus scale="   70.788">  7 10 -1 -1</clus>
<clus scale="  109.654">  1  9  2 -1</clus>
<clus scale="  124.420">  2  5  1 -1</clus>
<clus scale="  109.654">  1  5  2 -1</clus>
</clustering>
</event>
<event>
10    4  0.2565852E-005  0.1087898E+04  0.7546771E-02  0.9709067E-01
         -1   -1    0    0    0  501 -0.00000000000E+00  0.00000000000E+00  0.55795185820E+03  0.55795185820E+03  0.00000000000E+00 0.  1.
         21   -1    0    0  503  502  0.00000000000E+00 -0.00000000000E+00 -0.10662414303E+04  0.10662414303E+04  0.00000000000E+00 0.  1.
         24    2    1    2    0    0  0.16901826888E+03 -0.36846895524E+02  0.11596775040E+03  0.22327036868E+03  0.80475272418E+02 0.  0.
         23    2    1    2    0    0 -0.12808242752E+02  0.97119106074E+02  0.35779764687E+03  0.38867526039E+03  0.11598762903E+03 0.  0.
        -11    1    3    3    0    0  0.52821674071E+02  0.84526903999E+01  0.77883163852E+00  0.53499381356E+02  0.00000000000E+00 0.  1.
         12    1    3    3    0    0  0.11619659481E+03 -0.45299585924E+02  0.11518891877E+03  0.16977098732E+03  0.00000000000E+00 0. -1.
        -11    1    4    4    0    0  0.21343220485E+02  0.46315274763E+02  0.39393114744E+02  0.64439547067E+02  0.00000000000E+00 0. -1.
         11    1    4    4    0    0 -0.34151463237E+02  0.50803831311E+02  0.31840453213E+03  0.32423571333E+03  0.00000000000E+00 0.  1.
         21    1    1    2  503  501  0.21787573672E+02  0.33735727253E+02 -0.24175785331E+03  0.24507071897E+03  0.00000000000E+00 0. -1.
         -2    1    1    2    0  502 -0.17799759980E+03 -0.94007937803E+02 -0.74029711608E+03  0.76717694047E+03  0.00000000000E+00 0.  1.
<scales pt_clust_5="13000.00000" pt_clust_6="13000.00000" pt_clust_7="13000.00000" pt_clust_8="13000.00000" pt_clust_9="40.15965" pt_clust_10="13000.00000"></scales>
<clustering>
<clus scale="   40.160">  2  9  1 -1</clus>
<clus scale="   80.475">  5  6 -1 -1</clus>
<clus scale="  115.988">  7  8 -1 -1</clus>
<clus scale="  170.173">  7 10 -1 -1</clus>
<clus scale="  191.641">  1  5  2 -1</clus>
<clus scale="   40.160">  2  5  1 -1</clus>
</clustering>
</event>
<event>
10    4  0.2565852E-005  0.2521076E+03  0.7546771E-02  0.1131392E+00
          2   -1    0    0  503    0 -0.00000000000E+00  0.00000000000E+00  0.11841017640E+04  0.11841017640E+04  0.00000000000E+00 0. -1.
         21   -1    0    0  501  502  0.00000000000E+00 -0.00000000000E+00 -0.83701513242E+02  0.83701513242E+02  0.00000000000E+00 0. -1.
         24    2    1    2    0    0  0.69915600442E+02 -0.11842438057E+03  0.74628522766E+03  0.76311015871E+03  0.80516757313E+02 0.  0.
         23    2    1    2    0    0  0.36914980063E+02 -0.30668648971E+00  0.18964932883E+03  0.21326891732E+03  0.90299243406E+02 0.  0.
        -11    1    3    3    0    0  0.41455600888E+02 -0.75651466867E+02  0.25607218856E+03  0.27021228143E+03  0.00000000000E+00 0.  1.
         12    1    3    3    0    0  0.28459999554E+02 -0.42772913699E+02  0.49021303910E+03  0.49289787728E+03  0.00000000000E+00 0. -1.
        -11    1    4    4    0    0  0.33521567717E+02 -0.30075577517E+02  0.38714331161E+02  0.59388848300E+02  0.00000000000E+00 0. -1.
         11    1    4    4    0    0  0.33934123452E+01  0.29768891027E+02  0.15093499767E+03  0.15388006902E+03  0.00000000000E+00 0.  1.
         21    1    1    2  503  502  0.82837208966E+01  0.33244175815E+02 -0.32881868750E+02  0.47486972424E+02  0.00000000000E+00 0. -1.
          1    1    1    2  501    0 -0.11511430140E+03  0.85486891240E+02  0.19734756304E+03  0.24393722881E+03  0.00000000000E+00 0. -1.
<scales pt_clust_5="13000.00000" pt_clust_6="13000.00000" pt_clust_7="13000.00000" pt_clust_8="13000.00000" pt_clust_9="34.26070" pt_clust_10="13000.00000"></scales>
<clustering>
<clus scale="   34.261">  2  9  1 -1</clus>
<clus scale="   80.517">  5  6 -1 -1</clus>
<clus scale="   90.299">  7  8 -1 -1</clus>
<clus scale="  151.385">  7 10 -1 -1</clus>
<clus scale="  155.374">  1  5  2 -1</clus>
<clus scale="   34.261">  2  5  1 -1</clus>
</clustering>
</event>
<event>
10    4  0.2565852E-005  0.4507556E+03  0.7546771E-02  0.1082128E+00
         21   -1    0    0  503  502  0.00000000000E+00  0.00000000000E+00  0.18204488375E+03  0.18204488375E+03  0.00000000000E+00 0. -1.
          2   -1    0    0  502    0 -0.00000000000E+00 -0.00000000000E+00 -0.10361752382E+04  0.10361752382E+04  0.00000000000E+00 0. -1.
         24    2    1    2    0    0  0.20739584023E+02 -0.33451642695E+02  0.70381481244E+02  0.11499377264E+03  0.81980925222E+02 0.  0.
         23    2    1    2    0    0 -0.44083463697E+02 -0.18922501978E+03 -0.60933712712E+03  0.64534376480E+03  0.86182251087E+02 0.  0.
        -11    1    3    3    0    0  0.31226431020E+02  0.13150624040E+02  0.53474598864E+01  0.34301956709E+02  0.00000000000E+00 0.  1.
         12    1    3    3    0    0 -0.10486846997E+02 -0.46602266735E+02  0.65034021357E+02  0.80691815934E+02  0.00000000000E+00 0. -1.
        -11    1    4    4    0    0 -0.46281160726E+01 -0.31716034377E+02 -0.30799722593E+02  0.44451650215E+02  0.00000000000E+00 0.  1.
         11    1    4    4    0    0 -0.39455347624E+02 -0.15750898540E+03 -0.57853740453E+03  0.60089211459E+03  0.00000000000E+00 0. -1.
         21    1    1    2  503  501  0.25545244979E+02 -0.23023211253E+00  0.34662480359E+02  0.43059262564E+02  0.00000000000E+00 0.  1.
          1    1    1    2  501    0 -0.22013653043E+01  0.22290689458E+03 -0.34983718890E+03  0.41482332191E+03  0.00000000000E+00 0. -1.
<scales pt_clust_5="13000.00000" pt_clust_6="13000.00000" pt_clust_7="13000.00000" pt_clust_8="13000.00000" pt_clust_9="25.54628" pt_clust_10="13000.00000"></scales>
<clustering>
<clus scale="   25.546">  1  9  2 -1</clus>
<clus scale="   81.981">  5  6 -1 -1</clus>
<clus scale="   86.182">  7  8 -1 -1</clus>
<clus scale="   96.122">  2  5  1 -1</clus>
<clus scale="  210.826">  7 10 -1 -1</clus>
<clus scale="   25.546">  1  5  2 -1</clus>
</clustering>
</event>
<event>
10    4  0.2565852E-005  0.1429652E+03  0.7546771E-02  0.1236099E+00
          2   -1    0    0  502    0 -0.00000000000E+00  0.00000000000E+00  0.92019934785E+03  0.92019934785E+03  0.00000000000E+00 0. -1.
         21   -1    0    0  503  502  0.00000000000E+00 -0.00000000000E+00 -0.18936280951E+02  0.18936280951E+02  0.00000000000E+00 0.  1.
         24    2    1    2    0    0 -0.10136382631E+02  0.15777754759E+02  0.31704449969E+03  0.32783984596E+03  0.81302312504E+02 0.  0.
         23    2    1    2    0    0 -0.29462540122E+02 -0.26795482752E+02  0.27101428903E+03  0.28896154198E+03  0.91999938685E+02 0.  0.
        -11    1    3    3    0    0  0.24705537712E+02 -0.15473145134E+01  0.33583859850E+02  0.41720899059E+02  0.00000000000E+00 0.  1.
         12    1    3    3    0    0 -0.34841920343E+02  0.17325069273E+02  0.28346063984E+03  0.28611894690E+03  0.00000000000E+00 0. -1.
        -13    1    4    4    0    0 -0.60654881908E+02 -0.28037509152E+01  0.17275532775E+03  0.18311547992E+03  0.00000000000E+00 0.  1.
         13    1    4    4    0    0  0.31192341786E+02 -0.23991731836E+02  0.98258961278E+02  0.10584606206E+03  0.00000000000E+00 0. -1.
         21    1    1    2  503  501  0.28330636205E+02 -0.19190928658E+02  0.81421786516E+02  0.88320009115E+02  0.00000000000E+00 0.  1.
          1    1    1    2  501    0  0.11268286548E+02  0.30208656651E+02  0.23178249166E+03  0.23401423175E+03  0.00000000000E+00 0. -1.
<scales pt_clust_5="13000.00000" pt_clust_6="13000.00000" pt_clust_7="13000.00000" pt_clust_8="13000.00000" pt_clust_9="34.21866" pt_clust_10="13000.00000"></scales>
<clustering>
<clus scale="   34.219">  2  9  1 -1</clus>
<clus scale="   81.302">  5  6 -1 -1</clus>
<clus scale="   81.809">  1  5  2 -1</clus>
<clus scale="   92.000">  7  8 -1 -1</clus>
<clus scale="   35.123">  7 10 -1 -1</clus>
<clus scale="   34.219">  2  5  1 -1</clus>
</clustering>
</event>
<event>
10    4  0.2565852E-005  0.1591554E+03  0.7546771E-02  0.1212344E+00
         -1   -1    0    0    0  501 -0.00000000000E+00  0.00000000000E+00  0.52390493896E+03  0.52390493896E+03  0.00000000000E+00 0.  1.
         21   -1    0    0  501  502  0.00000000000E+00 -0.00000000000E+00 -0.28617070745E+03  0.28617070745E+03  0.00000000000E+00 0. -1.
         24    2    1    2    0    0  0.35575140058E+02  0.17821253434E+02  0.19263747152E+03  0.21216661230E+03  0.79512818318E+02 0.  0.
         23    2    1    2    0    0 -0.50161030477E+02 -0.16404100060E+02  0.25614415007E+03  0.27671323914E+03  0.90416633578E+02 0.  0.
        -13    1    3    3    0    0  0.34735909409E+02  0.17387134585E+02  0.20050979572E+03  0.20423778796E+03  0.00000000000E+00 0.  1.
         14    1    3    3    0    0  0.83923064894E+00  0.43411884914E+00 -0.78723241941E+01  0.79288243438E+01  0.00000000000E+00 0. -1.
        -13    1    4    4    0    0  0.19489699700E+02 -0.13236994082E+02  0.13412765417E+03  0.13618110743E+03  0.00000000000E+00 0.  1.
         13    1    4    4    0    0 -0.69650730177E+02 -0.31671059781E+01  0.12201649589E+03  0.14053213172E+03  0.00000000000E+00 0. -1.
         21    1    1    2  503  502  0.39654119982E+02  0.48128293004E+02 -0.24719539457E+03  0.25493988490E+03  0.00000000000E+00 0. -1.
         -2    1    1    2    0  503 -0.25068229563E+02 -0.49545446378E+02  0.36148004491E+02  0.66255910067E+02  0.00000000000E+00 0.  1.
<scales pt_clust_5="13000.00000" pt_clust_6="13000.00000" pt_clust_7="13000.00000" pt_clust_8="13000.00000" pt_clust_9="62.36010" pt_clust_10="13000.00000"></scales>
<clustering>
<clus scale="   62.360">  2  9  1 -1</clus>
<clus scale="   79.513">  5  6 -1 -1</clus>
<clus scale="   90.417">  7  8 -1 -1</clus>
<clus scale="   30.009">  7 10 -1 -1</clus>
<clus scale="   97.306">  1  5  2 -1</clus>
<clus scale="   62.360">  2  5  1 -1</clus>
</clustering>
</event>
<event>
10    4  0.2565852E-005  0.3547994E+03  0.7546771E-02  0.1086956E+00
          2   -1    0    0  503    0 -0.00000000000E+00  0.00000000000E+00  0.32649051053E+03  0.32649051053E+03  0.00000000000E+00 0. -1.
         21   -1    0    0  501  502  0.00000000000E+00 -0.00000000000E+00 -0.60252781973E+03  0.60252781973E+03  0.00000000000E+00 0. -1.
         24    2    1    2    0    0 -0.10444120032E+02  0.15725068507E+03 -0.20072865141E+03  0.26851046955E+03  0.83480675371E+02 0.  0.
         23    2    1    2    0    0  0.86311492350E+02 -0.87652926940E+02 -0.24401619964E+02  0.15488268269E+03  0.90887276481E+02 0.  0.
        -13    1    3    3    0    0 -0.11064921677E+02  0.35621247838E+02 -0.44011385239E+01  0.37558964437E+02  0.00000000000E+00 0.  1.
         14    1    3    3    0    0  0.62080164546E+00  0.12162943724E+03 -0.19632751288E+03  0.23095150511E+03  0.00000000000E+00 0. -1.
        -13    1    4    4    0    0  0.65516870942E+02 -0.18177336864E+02  0.18704903717E+02  0.70517723847E+02  0.00000000000E+00 0.  1.
         13    1    4    4    0    0  0.20794621408E+02 -0.69475590077E+02 -0.43106523681E+02  0.84364958839E+02  0.00000000000E+00 0. -1.
         21    1    1    2  503  502  0.36781308052E+02 -0.89709276456E+01 -0.25878403447E+03  0.26153875174E+03  0.00000000000E+00 0. -1.
          1    1    1    2  501    0 -0.11264868037E+03 -0.60626830488E+02  0.20787699664E+03  0.24408642629E+03  0.00000000000E+00 0. -1.
<scales pt_clust_5="13000.00000" pt_clust_6="13000.00000" pt_clust_7="13000.00000" pt_clust_8="13000.00000" pt_clust_9="37.85951" pt_clust_10="13000.00000"></scales>
<clustering>
<clus scale="   37.860">  2  9  1 -1</clus>
<clus scale="   83.481">  5  6 -1 -1</clus>
<clus scale="   90.887">  7  8 -1 -1</clus>
<clus scale="  126.446">  7 10 -1 -1</clus>
<clus scale="  173.260">  1  5  2 -1</clus>
<clus scale="   37.860">  2  5  1 -1</clus>
</clustering>
</event>
<event>
10    4  0.2565852E-005  0.2062653E+03  0.7546771E-02  0.1181491E+00
          2   -1    0    0  502    0 -0.00000000000E+00  0.00000000000E+00  0.83502680622E+03  0.83502680622E+03  0.00000000000E+00 0. -1.
         21   -1    0    0  503  502  0.00000000000E+00 -0.00000000000E+00 -0.84034303423E+02  0.84034303423E+02  0.00000000000E+00 0. -1.
         24    2    1    2    0    0  0.10999946513E+02 -0.28827427434E+02  0.55421587431E+03  0.56099182492E+03  0.81268523359E+02 0.  0.
         23    2    1    2    0    0 -0.88475001536E+02 -0.32965846520E+02  0.13128063419E+03  0.18572142342E+03  0.91341498069E+02 0.  0.
        -11    1    3    3    0    0  0.71485639573E+01  0.27478120060E+02  0.13187919746E+03  0.13490097024E+03  0.00000000000E+00 0.  1.
         12    1    3    3    0    0  0.38513825559E+01 -0.56305547495E+02  0.42233667685E+03  0.42609085467E+03  0.00000000000E+00 0. -1.
        -11    1    4    4    0    0 -0.99134064424E+02 -0.92327355742E+01  0.78179309906E+02  0.12658914105E+03  0.00000000000E+00 0.  1.
         11    1    4    4    0    0  0.10659062888E+02 -0.23733110946E+02  0.53101324287E+02  0.59132282366E+02  0.00000000000E+00 0. -1.
         21    1    1    2  503  501  0.41915733377E+02 -0.13340409050E+02 -0.24078675623E+02  0.50146563570E+02  0.00000000000E+00 0. -1.
          1    1    1    2  501    0  0.35559321645E+02  0.75133683005E+02  0.89574669916E+02  0.12220129774E+03  0.00000000000E+00 0. -1.
<scales pt_clust_5="13000.00000" pt_clust_6="13000.00000" pt_clust_7="13000.00000" pt_clust_8="13000.00000" pt_clust_9="43.98744" pt_clust_10="13000.00000"></scales>
<clustering>
<clus scale="   43.987">  2  9  1 -1</clus>
<clus scale="   81.269">  5  6 -1 -1</clus>
<clus scale="   87.686">  1  5  2 -1</clus>
<clus scale="   91.341">  7  8 -1 -1</clus>
<clus scale="   80.186">  7 10 -1 -1</clus>
<clus scale="   43.987">  2  5  1 -1</clus>
</clustering>
</event>
<event>
10    4  0.2565852E-005  0.3308192E+03  0.7546771E-02  0.1108680E+00
          2   -1    0    0  502    0 -0.00000000000E+00  0.00000000000E+00  0.46907313922E+03  0.46907313922E+03  0.00000000000E+00 0. -1.
         21   -1    0    0  503  502  0.00000000000E+00 -0.00000000000E+00 -0.21682047688E+03  0.21682047688E+03  0.00000000000E+00 0. -1.
         24    2    1    2    0    0 -0.77969179124E+02 -0.46989322576E+02  0.21554972943E+03  0.24677382946E+03  0.78412038091E+02 0.  0.
         23    2    1    2    0    0 -0.43977629387E+02  0.82852116506E+02  0.14619358918E+03  0.19661067634E+03  0.92112363111E+02 0.  0.
        -11    1    3    3    0    0 -0.46850762285E+02 -0.52731261826E+02  0.76034921648E+02  0.10371542417E+03  0.00000000000E+00 0.  1.
         12    1    3    3    0    0 -0.31118416839E+02  0.57419392495E+01  0.13951480778E+03  0.14305840529E+03  0.00000000000E+00 0. -1.
        -11    1    4    4    0    0 -0.67514624619E+02  0.31674026677E+02  0.92167960536E+02  0.11855969574E+03  0.00000000000E+00 0. -1.
         11    1    4    4    0    0  0.23536995233E+02  0.51178089828E+02  0.54025628642E+02  0.78050980604E+02  0.00000000000E+00 0.  1.
         21    1    1    2  503  501 -0.24660225091E+02  0.15146353887E+02 -0.79242782134E+02  0.84362060536E+02  0.00000000000E+00 0. -1.
          1    1    1    2  501    0  0.14660703360E+03 -0.51009147816E+02 -0.30247874134E+02  0.15814704977E+03  0.00000000000E+00 0. -1.
<scales pt_clust_5="13000.00000" pt_clust_6="13000.00000" pt_clust_7="13000.00000" pt_clust_8="13000.00000" pt_clust_9="28.94026" pt_clust_10="13000.00000"></scales>
<clustering>
<clus scale="   28.940">  2  9  1 -1</clus>
<clus scale="   78.412">  5  6 -1 -1</clus>
<clus scale="   92.112">  7  8 -1 -1</clus>
<clus scale="  121.354">  1  5  2 -1</clus>
<clus scale="  122.471">  7 10 -1 -1</clus>
<clus scale="   28.940">  2  5  1 -1</clus>
</clustering>
</event>
<event>
10    4  0.2565852E-005  0.2058953E+03  0.7546771E-02  0.1183222E+00
          4   -1    0    0  503    0 -0.00000000000E+00  0.00000000000E+00  0.38744635039E+03  0.38744635039E+03  0.00000000000E+00 0. -1.
         21   -1    0    0  501  502  0.00000000000E+00 -0.00000000000E+00 -0.11569282721E+03  0.11569282721E+03  0.00000000000E+00 0. -1.
         24    2    1    2    0    0 -0.10777563689E+02  0.21357913502E+02  0.18614455243E+03  0.20450061179E+03  0.81230471339E+02 0.  0.
         23    2    1    2    0    0 -0.77117435604E+02 -0.54068003059E+02  0.13205459062E+03  0.18498073490E+03  0.88932612430E+02 0.  0.
        -11    1    3    3    0    0  0.13532251206E+01  0.23630446592E+02  0.66545993496E+01  0.24586844386E+02  0.00000000000E+00 0.  1.
         12    1    3    3    0    0 -0.12130788810E+02 -0.22725330897E+01  0.17948995308E+03  0.17991376740E+03  0.00000000000E+00 0. -1.
        -13    1    4    4    0    0  0.17969275372E+01 -0.39389962719E+02  0.80343664051E+02  0.89498058441E+02  0.00000000000E+00 0.  1.
         13    1    4    4    0    0 -0.78914363141E+02 -0.14678040341E+02  0.51710926565E+02  0.95482676462E+02  0.00000000000E+00 0. -1.
         21    1    1    2  503  502  0.31174736929E+02  0.15626066941E+02 -0.41512464431E+02  0.54215522627E+02  0.00000000000E+00 0. -1.
          3    1    1    2  501    0  0.56720262364E+02  0.17084022616E+02 -0.49331554356E+01  0.59442308283E+02  0.00000000000E+00 0. -1.
<scales pt_clust_5="13000.00000" pt_clust_6="13000.00000" pt_clust_7="13000.00000" pt_clust_8="13000.00000" pt_clust_9="34.87174" pt_clust_10="13000.00000"></scales>
<clustering>
<clus scale="   34.872">  2  9  1 -1</clus>
<clus scale="   81.230">  5  6 -1 -1</clus>
<clus scale="   84.808">  1  5  2 -1</clus>
<clus scale="   88.933">  7  8 -1 -1</clus>
<clus scale="   76.226">  7 10 -1 -1</clus>
<clus scale="   34.872">  2  5  1 -1</clus>
</clustering>
</event>
<event>
10    4  0.2565852E-005  0.3541455E+03  0.7546771E-02  0.1100669E+00
         21   -1    0    0  503  502  0.00000000000E+00  0.00000000000E+00  0.24509395126E+03  0.24509395126E+03  0.00000000000E+00 0.  1.
          2   -1    0    0  502    0 -0.00000000000E+00 -0.00000000000E+00 -0.10632821598E+04  0.10632821598E+04  0.00000000000E+00 0. -1.
         24    2    1    2    0    0 -0.29530938385E+02  0.10019690875E+03 -0.23138238102E+03  0.26186785568E+03  0.64229827545E+02 0.  0.
         23    2    1    2    0    0  0.17784319652E+03 -0.10731660566E+03 -0.30033310120E+03  0.37602073713E+03  0.89702657023E+02 0.  0.
        -13    1    3    3    0    0 -0.14509321363E+02  0.23433282398E+02 -0.14148940822E+02  0.30981150023E+02  0.00000000000E+00 0.  1.
         14    1    3    3    0    0 -0.15021617023E+02  0.76763626353E+02 -0.21723344019E+03  0.23088670565E+03  0.00000000000E+00 0. -1.
        -13    1    4    4    0    0  0.92763518541E+02 -0.17384323510E+02 -0.81971334460E+02  0.12500633884E+03  0.00000000000E+00 0.  1.
         13    1    4    4    0    0  0.85079677982E+02 -0.89932282147E+02 -0.21836176674E+03  0.25101439829E+03  0.00000000000E+00 0. -1.
         21    1    1    2  503  501 -0.90173680149E+02 -0.45105752154E+02  0.17525730987E+03  0.20219037102E+03  0.00000000000E+00 0.  1.
          1    1    1    2  501    0 -0.58138577989E+02  0.52225449059E+02 -0.46173003624E+03  0.46829714728E+03  0.00000000000E+00 0. -1.
<scales pt_clust_5="13000.00000" pt_clust_6="13000.00000" pt_clust_7="13000.00000" pt_clust_8="13000.00000" pt_clust_9="100.82570" pt_clust_10="13000.00000"></scales>
<clustering>
<clus scale="   64.230">  5  6 -1 -1</clus>
<clus scale="   89.703">  7  8 -1 -1</clus>
<clus scale="   78.151">  7 10 -1 -1</clus>
<clus scale="  100.826">  1  9  2 -1</clus>
<clus scale="  121.558">  2  5  1 -1</clus>
<clus scale="  100.826">  1  5  2 -1</clus>
</clustering>
</event>
<event>
10    4  0.2565852E-005  0.1987106E+03  0.7546771E-02  0.1185933E+00
         -1   -1    0    0    0  501 -0.00000000000E+00  0.00000000000E+00  0.53076956510E+03  0.53076956510E+03  0.00000000000E+00 0.  1.
         21   -1    0    0  501  502  0.00000000000E+00 -0.00000000000E+00 -0.11495351376E+03  0.11495351376E+03  0.00000000000E+00 0.  1.
         24    2    1    2    0    0 -0.35041920905E+02 -0.81880904836E+01  0.27537451890E+03  0.28934128451E+03  0.81192808903E+02 0.  0.
         23    2    1    2    0    0 -0.28826574080E+02  0.12409861545E+03  0.94229707193E+02  0.18329582909E+03  0.92123208333E+02 0.  0.
        -13    1    3    3    0    0 -0.37664142364E+02 -0.38646455261E+02  0.12943068720E+03  0.14022995013E+03  0.00000000000E+00 0.  1.
         14    1    3    3    0    0  0.26222214588E+01  0.30458364778E+02  0.14594383170E+03  0.14911133438E+03  0.00000000000E+00 0. -1.
        -13    1    4    4    0    0  0.46647206302E+00  0.47320674079E+02 -0.12164309986E+02  0.48861377682E+02  0.00000000000E+00 0.  1.
         13    1    4    4    0    0 -0.29293046143E+02  0.76777941371E+02  0.10639401718E+03  0.13443445141E+03  0.00000000000E+00 0. -1.
         21    1    1    2  503  502  0.77885814698E+02 -0.87187023839E+02  0.13380363427E-01  0.11690927010E+03  0.00000000000E+00 0. -1.
         -2    1    1    2    0  503 -0.14017319713E+02 -0.28723501127E+02  0.46198444885E+02  0.56176695157E+02  0.00000000000E+00 0.  1.
<scales pt_clust_5="13000.00000" pt_clust_6="13000.00000" pt_clust_7="13000.00000" pt_clust_8="13000.00000" pt_clust_9="113.09687" pt_clust_10="13000.00000"></scales>
<clustering>
<clus scale="   81.193">  5  6 -1 -1</clus>
<clus scale="   88.810">  1  5  2 -1</clus>
<clus scale="   92.123">  7  8 -1 -1</clus>
<clus scale="   37.093">  7 10 -1 -1</clus>
<clus scale="  113.097">  2  9  1 -1</clus>
<clus scale="  113.097">  2  5  1 -1</clus>
</clustering>
</event>
<event>
10    4  0.2565852E-005  0.3607858E+03  0.7546771E-02  0.1079308E+00
          2   -1    0    0  503    0 -0.00000000000E+00  0.00000000000E+00  0.18937108710E+04  0.18937108710E+04  0.00000000000E+00 0. -1.
         21   -1    0    0  501  502  0.00000000000E+00 -0.00000000000E+00 -0.96403729634E+02  0.96403729634E+02  0.00000000000E+00 0. -1.
         24    2    1    2    0    0  0.61158225199E+02 -0.16930048517E+03  0.82777480847E+03  0.85083338757E+03  0.79393558154E+02 0.  0.
         23    2    1    2    0    0 -0.84583126671E+02  0.10939999673E+01  0.13968388246E+03  0.18689613785E+03  0.90901469570E+02 0.  0.
        -13    1    3    3    0    0  0.15261696898E+02 -0.45211930414E+02  0.96125627098E+02  0.10731809833E+03  0.00000000000E+00 0.  1.
         14    1    3    3    0    0  0.45896528300E+02 -0.12408855476E+03  0.73164918137E+03  0.74351528924E+03  0.00000000000E+00 0. -1.
        -11    1    4    4    0    0 -0.60280379741E+02 -0.16940871106E+02  0.23572779292E+02  0.66905853399E+02  0.00000000000E+00 0. -1.
         11    1    4    4    0    0 -0.24302746930E+02  0.18034871073E+02  0.11611110317E+03  0.11999028445E+03  0.00000000000E+00 0.  1.
         21    1    1    2  503  502  0.34238890659E+02 -0.11481117906E+02 -0.45856837336E+02  0.58369231898E+02  0.00000000000E+00 0. -1.
          1    1    1    2  501    0 -0.10813989187E+02  0.17968760311E+03  0.87570528777E+03  0.89401584332E+03  0.00000000000E+00 0. -1.
<scales pt_clust_5="13000.00000" pt_clust_6="13000.00000" pt_clust_7="13000.00000" pt_clust_8="13000.00000" pt_clust_9="36.11257" pt_clust_10="13000.00000"></scales>
<clustering>
<clus scale="   36.113">  2  9  1 -1</clus>
<clus scale="   79.394">  5  6 -1 -1</clus>
<clus scale="   90.901">  7  8 -1 -1</clus>
<clus scale="  177.354">  7 10 -1 -1</clus>
<clus scale="  202.230">  1  5  2 -1</clus>
<clus scale="   36.113">  2  5  1 -1</clus>
</clustering>
</event>
<event>
10    4  0.2565852E-005  0.2221446E+03  0.7546771E-02  0.1150128E+00
         -3   -1    0    0    0  501 -0.00000000000E+00  0.00000000000E+00  0.32899207961E+03  0.32899207961E+03  0.00000000000E+00 0.  1.
         21   -1    0    0  503  502  0.00000000000E+00 -0.00000000000E+00 -0.14289045774E+03  0.14289045774E+03  0.00000000000E+00 0.  1.
         24    2    1    2    0    0 -0.90270371251E+02 -0.73430166884E+02  0.15512213405E+03  0.21011470709E+03  0.80898605239E+02 0.  0.
         23    2    1    2    0    0 -0.18388511955E+01  0.52950180662E+02  0.37464441428E+02  0.11043308012E+03  0.89357583935E+02 0.  0.
        -13    1    3    3    0    0 -0.63758177395E+02 -0.13167677840E+02  0.11738346024E+03  0.13422879595E+03  0.00000000000E+00 0.  1.
         14    1    3    3    0    0 -0.26512193855E+02 -0.60262489044E+02  0.37738673811E+02  0.75885911142E+02  0.00000000000E+00 0. -1.
        -11    1    4    4    0    0 -0.40620218925E+02  0.15199128643E+02 -0.20540543913E+01  0.43419291064E+02  0.00000000000E+00 0.  1.
         11    1    4    4    0    0  0.38781367729E+02  0.37751052019E+02  0.39518495819E+02  0.67013789053E+02  0.00000000000E+00 0. -1.
         21    1    1    2  503  501 -0.27861076037E+02  0.84916403146E+01  0.71706580599E+01  0.29996097250E+02  0.00000000000E+00 0.  1.
         -4    1    1    2    0  502  0.11997029848E+03  0.11988345908E+02 -0.13655611671E+02  0.12133865289E+03  0.00000000000E+00 0.  1.
<scales pt_clust_5="13000.00000" pt_clust_6="13000.00000" pt_clust_7="13000.00000" pt_clust_8="13000.00000" pt_clust_9="29.12641" pt_clust_10="13000.00000"></scales>
<clustering>
<clus scale="   29.126">  2  9  1 -1</clus>
<clus scale="   80.899">  5  6 -1 -1</clus>
<clus scale="   89.358">  7  8 -1 -1</clus>
<clus scale="  106.924">  7 10 -1 -1</clus>
<clus scale="  144.615">  1  5  2 -1</clus>
<clus scale="   29.126">  2  5  1 -1</clus>
</clustering>
</event>
<event>
10    4  0.2565852E-005  0.2586768E+03  0.7546771E-02  0.1141748E+00
         21   -1    0    0  501  502  0.00000000000E+00  0.00000000000E+00  0.77302344112E+03  0.77302344112E+03  0.00000000000E+00 0. -1.
          2   -1    0    0  503    0 -0.00000000000E+00 -0.00000000000E+00 -0.11968281286E+03  0.11968281286E+03  0.00000000000E+00 0. -1.
         24    2    1    2    0    0  0.64072286211E+02 -0.44694681054E+02  0.45691191347E+02  0.12083856142E+03  0.80071221945E+02 0.  0.
         23    2    1    2    0    0 -0.83202721210E+02 -0.40417167678E+02  0.22219062530E+03  0.25757605125E+03  0.91763325720E+02 0.  0.
        -13    1    3    3    0    0 -0.17306276432E+02 -0.10484920496E+02  0.21025399636E+02  0.29180613284E+02  0.00000000000E+00 0.  1.
         14    1    3    3    0    0  0.81378562643E+02 -0.34209760558E+02  0.24665791711E+02  0.91657948133E+02  0.00000000000E+00 0. -1.
        -11    1    4    4    0    0 -0.10077779499E+03 -0.19608769352E+02  0.16710197059E+03  0.19612173865E+03  0.00000000000E+00 0.  1.
         11    1    4    4    0    0  0.17575073775E+02 -0.20808398326E+02  0.55088654711E+02  0.61454312599E+02  0.00000000000E+00 0. -1.
         21    1    1    2  503  502  0.13367447237E+03  0.15454289932E+03  0.26079910682E+03  0.33131336588E+03  0.00000000000E+00 0. -1.
          1    1    1    2  501    0 -0.11454403737E+03 -0.69431050584E+02  0.12465970479E+03  0.18297827543E+03  0.00000000000E+00 0. -1.
<scales pt_clust_5="13000.00000" pt_clust_6="13000.00000" pt_clust_7="13000.00000" pt_clust_8="13000.00000" pt_clust_9="210.47832" pt_clust_10="13000.00000"></scales>
<clustering>
<clus scale="   80.071">  5  6 -1 -1</clus>
<clus scale="   91.763">  7  8 -1 -1</clus>
<clus scale="  111.867">  2  5  1 -1</clus>
<clus scale="  125.308">  7 10 -1 -1</clus>
<clus scale="  210.478">  1  9  2 -1</clus>
<clus scale="  210.478">  1  5  2 -1</clus>
</clustering>
</event>
<event>
10    4  0.2565852E-005  0.5881975E+03  0.7546771E-02  0.1022214E+00
         21   -1    0    0  503  502  0.00000000000E+00  0.00000000000E+00  0.13041907633E+04  0.13041907633E+04  0.00000000000E+00 0. -1.
          2   -1    0    0  502    0 -0.00000000000E+00 -0.00000000000E+00 -0.16561088790E+03  0.16561088790E+03  0.00000000000E+00 0. -1.
         24    2    1    2    0    0 -0.21305270372E+03 -0.14325763445E+02  0.51171671192E+03  0.55999525535E+03  0.78383739975E+02 0.  0.
         23    2    1    2    0    0 -0.15895356036E+03  0.40337059491E+02  0.21487039285E+03  0.28518723461E+03  0.90934923653E+02 0.  0.
        -11    1    3    3    0    0 -0.31087935389E+02  0.69306743379E+01  0.26802220757E+02  0.41627551106E+02  0.00000000000E+00 0.  1.
         12    1    3    3    0    0 -0.18196476833E+03 -0.21256437783E+02  0.48491449116E+03  0.51836770424E+03  0.00000000000E+00 0. -1.
        -13    1    4    4    0    0 -0.91364263685E+02  0.68096574950E+02  0.12065079678E+03  0.16595537642E+03  0.00000000000E+00 0. -1.
         13    1    4    4    0    0 -0.67589296676E+02 -0.27759515459E+02  0.94219596071E+02  0.11923185819E+03  0.00000000000E+00 0.  1.
         21    1    1    2  503  501 -0.24316534340E+02  0.14543656831E+02  0.13854103526E+03  0.14140873469E+03  0.00000000000E+00 0.  1.
          1    1    1    2  501    0  0.39632279842E+03 -0.40554952877E+02  0.27345173537E+03  0.48321042655E+03  0.00000000000E+00 0. -1.
<scales pt_clust_5="13000.00000" pt_clust_6="13000.00000" pt_clust_7="13000.00000" pt_clust_8="13000.00000" pt_clust_9="28.33393" pt_clust_10="13000.00000"></scales>
<clustering>
<clus scale="   28.334">  1  9  2 -1</clus>
<clus scale="   78.384">  5  6 -1 -1</clus>
<clus scale="   90.935">  7  8 -1 -1</clus>
<clus scale="  237.672">  2  5  1 -1</clus>
<clus scale="  228.983">  7 10 -1 -1</clus>
<clus scale="   28.334">  1  5  2 -1</clus>
</clustering>
</event>
<event>
10    4  0.2565852E-005  0.1954257E+03  0.7546771E-02  0.1183769E+00
         21   -1    0    0  503  502  0.00000000000E+00  0.00000000000E+00  0.60590306287E+02  0.60590306287E+02  0.00000000000E+00 0. -1.
          2   -1    0    0  502    0 -0.00000000000E+00 -0.00000000000E+00 -0.82708370636E+03  0.82708370636E+03  0.00000000000E+00 0. -1.
         24    2    1    2    0    0  0.29263072456E+02  0.60103472133E+02 -0.89309623875E+02  0.13837881754E+03  0.81876330241E+02 0.  0.
         23    2    1    2    0    0  0.34061377030E+02  0.22252504404E+02 -0.49311441166E+03  0.50341313500E+03  0.92777207007E+02 0.  0.
        -13    1    3    3    0    0  0.40668158531E+01  0.48794111008E+02 -0.97895141286E+02  0.10945712835E+03  0.00000000000E+00 0.  1.
         14    1    3    3    0    0  0.25196256603E+02  0.11309361125E+02  0.85855174109E+01  0.28921689181E+02  0.00000000000E+00 0. -1.
        -13    1    4    4    0    0  0.11089135895E+02 -0.36514827889E+02 -0.17846338044E+03  0.18249788971E+03  0.00000000000E+00 0.  1.
         13    1    4    4    0    0  0.22972241135E+02  0.58767332293E+02 -0.31465103122E+03  0.32091524528E+03  0.00000000000E+00 0. -1.
         21    1    1    2  503  501 -0.15808691101E+02 -0.15019258830E+02  0.17600493376E+02  0.28022673270E+02  0.00000000000E+00 0.  1.
          1    1    1    2  501    0 -0.47515758385E+02 -0.67336717707E+02 -0.20166985791E+03  0.21785938684E+03  0.00000000000E+00 0. -1.
<scales pt_clust_5="13000.00000" pt_clust_6="13000.00000" pt_clust_7="13000.00000" pt_clust_8="13000.00000" pt_clust_9="21.80580" pt_clust_10="13000.00000"></scales>
<clustering>
<clus scale="   21.806">  1  9  2 -1</clus>
<clus scale="   81.876">  5  6 -1 -1</clus>
<clus scale="   92.777">  7  8 -1 -1</clus>
<clus scale="   87.001">  7 10 -1 -1</clus>
<clus scale="   97.978">  2  5  1 -1</clus>
<clus scale="   21.806">  1  5  2 -1</clus>
</clustering>
</event>
<event>
10    4  0.2565852E-005  0.2229975E+03  0.7546771E-02  0.1153136E+00
         21   -1    0    0  503  502  0.00000000000E+00  0.00000000000E+00  0.73653167991E+02  0.73653167991E+02  0.00000000000E+00 0. -1.
          2   -1    0    0  502    0 -0.00000000000E+00 -0.00000000000E+00 -0.77750888221E+03  0.77750888221E+03  0.00000000000E+00 0. -1.
         24    2    1    2    0    0  0.86457644374E+02 -0.59749070631E+02 -0.20326111512E+03  0.24307413450E+03  0.82006574332E+02 0.  0.
         23    2    1    2    0    0 -0.41949223859E+02  0.48498803178E+02 -0.48580740033E+03  0.49853678357E+03  0.91750875025E+02 0.  0.
        -11    1    3    3    0    0  0.62540541756E+02 -0.56893101468E+02 -0.20197049772E+03  0.21895256634E+03  0.00000000000E+00 0.  1.
         12    1    3    3    0    0  0.23917102618E+02 -0.28559691631E+01 -0.12906174002E+01  0.24121568166E+02  0.00000000000E+00 0. -1.
        -11    1    4    4    0    0 -0.33280916533E+02  0.75950534671E+02 -0.34622224561E+03  0.35601396949E+03  0.00000000000E+00 0.  1.
         11    1    4    4    0    0 -0.86683073263E+01 -0.27451731493E+02 -0.13958515472E+03  0.14252281408E+03  0.00000000000E+00 0. -1.
         21    1    1    2  503  501  0.14468308131E+02  0.24885152628E+02  0.24152344960E+02  0.37575770498E+02  0.00000000000E+00 0.  1.
          1    1    1    2  501    0 -0.58976728645E+02 -0.13634885175E+02 -0.38939543735E+02  0.71975361630E+02  0.00000000000E+00 0. -1.
<scales pt_clust_5="13000.00000" pt_clust_6="13000.00000" pt_clust_7="13000.00000" pt_clust_8="13000.00000" pt_clust_9="28.78546" pt_clust_10="13000.00000"></scales>
<clustering>
<clus scale="   28.785">  1  9  2 -1</clus>
<clus scale="   82.007">  5  6 -1 -1</clus>
<clus scale="   91.751">  7  8 -1 -1</clus>
<clus scale="   53.543">  7 10 -1 -1</clus>
<clus scale="  133.153">  2  5  1 -1</clus>
<clus scale="   28.785">  1  5  2 -1</clus>
</clustering>
</event>
<event>
10    4  0.2565852E-005  0.4346715E+03  0.7546771E-02  0.1059714E+00
         21   -1    0    0  501  502  0.00000000000E+00  0.00000000000E+00  0.26709801753E+03  0.26709801753E+03  0.00000000000E+00 0. -1.
          2   -1    0    0  503    0 -0.00000000000E+00 -0.00000000000E+00 -0.58773516742E+03  0.58773516742E+03  0.00000000000E+00 0. -1.
         24    2    1    2    0    0  0.13349118753E+03  0.12508328117E+03 -0.27575822125E+03  0.34033302417E+03  0.79487397593E+02 0.  0.
         23    2    1    2    0    0 -0.10454680506E+03 -0.93846435154E+02  0.12450341487E+03  0.20883108191E+03  0.91499358575E+02 0.  0.
        -13    1    3    3    0    0  0.85253719529E+02  0.12489347865E+03 -0.21002758952E+03  0.25880140274E+03  0.00000000000E+00 0.  1.
         14    1    3    3    0    0  0.48237468004E+02  0.18980251797E+00 -0.65730631730E+02  0.81531621424E+02  0.00000000000E+00 0. -1.
        -13    1    4    4    0    0 -0.10411472365E+03 -0.44458056387E+02  0.10877200423E+03  0.15699599792E+03  0.00000000000E+00 0. -1.
         13    1    4    4    0    0 -0.43208140580E+00 -0.49388378767E+02  0.15731410634E+02  0.51835083989E+02  0.00000000000E+00 0.  1.
         21    1    1    2  503  502  0.89321629901E+01 -0.22942082722E+02  0.64268564867E+02  0.68822751510E+02  0.00000000000E+00 0. -1.
          1    1    1    2  501    0 -0.37876545468E+02 -0.82947632946E+01 -0.23365090839E+03  0.23684632736E+03  0.00000000000E+00 0. -1.
<scales pt_clust_5="13000.00000" pt_clust_6="13000.00000" pt_clust_7="13000.00000" pt_clust_8="13000.00000" pt_clust_9="24.61956" pt_clust_10="13000.00000"></scales>
<clustering>
<clus scale="   24.620">  1  9  2 -1</clus>
<clus scale="   79.487">  5  6 -1 -1</clus>
<clus scale="   91.499">  7  8 -1 -1</clus>
<clus scale="   38.744">  7 10 -1 -1</clus>
<clus scale="  198.140">  2  5  1 -1</clus>
<clus scale="   24.620">  1  5  2 -1</clus>
</clustering>
</event>
<event>
10    4  0.2565852E-005  0.1578586E+03  0.7546771E-02  0.1219164E+00
         21   -1    0    0  503  502  0.00000000000E+00  0.00000000000E+00  0.23450142999E+03  0.23450142999E+03  0.00000000000E+00 0.  1.
          2   -1    0    0  502    0 -0.00000000000E+00 -0.00000000000E+00 -0.37961384964E+03  0.37961384964E+03  0.00000000000E+00 0. -1.
         24    2    1    2    0    0  0.25885958552E+02  0.12354395160E+02 -0.32178341443E+03  0.33317172279E+03  0.81462366377E+02 0.  0.
         23    2    1    2    0    0 -0.11733074187E+02  0.48391546763E+02  0.13491448117E+03  0.16773659378E+03  0.86337945505E+02 0.  0.
        -13    1    3    3    0    0  0.15059059039E+00  0.38945232401E+02 -0.84787955467E+02  0.93304615088E+02  0.00000000000E+00 0.  1.
         14    1    3    3    0    0  0.25735367961E+02 -0.26590837242E+02 -0.23699545896E+03  0.23986710770E+03  0.00000000000E+00 0. -1.
        -13    1    4    4    0    0  0.19465242390E+02  0.23511968444E+02  0.38904694433E+01  0.30770831544E+02  0.00000000000E+00 0. -1.
         13    1    4    4    0    0 -0.31198316577E+02  0.24879578319E+02  0.13102401173E+03  0.13696576223E+03  0.00000000000E+00 0.  1.
         21    1    1    2  503  501  0.18091871947E+02 -0.48533021070E+02  0.55657814452E+02  0.76030009037E+02  0.00000000000E+00 0. -1.
          1    1    1    2  501    0 -0.32244756311E+02 -0.12212920853E+02 -0.13901300846E+02  0.37176954025E+02  0.00000000000E+00 0. -1.
<scales pt_clust_5="13000.00000" pt_clust_6="13000.00000" pt_clust_7="13000.00000" pt_clust_8="13000.00000" pt_clust_9="51.79546" pt_clust_10="13000.00000"></scales>
<clustering>
<clus scale="   51.795">  1  9  2 -1</clus>
<clus scale="   81.462">  5  6 -1 -1</clus>
<clus scale="   86.331">  2  5  1 -1</clus>
<clus scale="   86.338">  7  8 -1 -1</clus>
<clus scale="   20.257">  7 10 -1 -1</clus>
<clus scale="   51.795">  1  5  2 -1</clus>
</clustering>
</event>
<event>
10    4  0.2565852E-005  0.5786116E+03  0.7546771E-02  0.1038965E+00
         21   -1    0    0  503  502  0.00000000000E+00  0.00000000000E+00  0.54216583207E+03  0.54216583207E+03  0.00000000000E+00 0.  1.
         -3   -1    0    0    0  501 -0.00000000000E+00 -0.00000000000E+00 -0.47387463029E+03  0.47387463029E+03  0.00000000000E+00 0.  1.
         24    2    1    2    0    0  0.34306836011E+02  0.11359911499E+03  0.29589550913E+02  0.14545831472E+03  0.78745551464E+02 0.  0.
         23    2    1    2    0    0  0.21964811579E+02  0.19522372926E+03 -0.18212448122E+02  0.21717078414E+03  0.90756260411E+02 0.  0.
        -11    1    3    3    0    0  0.24386910878E+02  0.47653099814E+02  0.52466922678E+02  0.74955435555E+02  0.00000000000E+00 0.  1.
         12    1    3    3    0    0  0.99199251333E+01  0.65946015171E+02 -0.22877371765E+02  0.70502879164E+02  0.00000000000E+00 0. -1.
        -11    1    4    4    0    0  0.53755176362E+02  0.94758354200E+02 -0.24296096522E+02  0.11162018179E+03  0.00000000000E+00 0.  1.
         11    1    4    4    0    0 -0.31790364783E+02  0.10046537506E+03  0.60836484000E+01  0.10555060235E+03  0.00000000000E+00 0. -1.
         21    1    1    2  503  501 -0.66718301868E+02  0.53173403077E+02  0.23488307476E+03  0.24989758183E+03  0.00000000000E+00 0.  1.
         -4    1    1    2    0  502  0.10446654278E+02 -0.36199624732E+03 -0.17796897577E+03  0.40351378167E+03  0.00000000000E+00 0.  1.
<scales pt_clust_5="13000.00000" pt_clust_6="13000.00000" pt_clust_7="13000.00000" pt_clust_8="13000.00000" pt_clust_9="85.31555" pt_clust_10="13000.00000"></scales>
<clustering>
<clus scale="   78.746">  5  6 -1 -1</clus>
<clus scale="   85.316">  1  9  2 -1</clus>
<clus scale="   90.756">  7  8 -1 -1</clus>
<clus scale="  151.966">  2  5  1 -1</clus>
<clus scale="  257.975">  7 10 -1 -1</clus>
<clus scale="   85.316">  1  5  2 -1</clus>
</clustering>
</event>
<event>
10    4  0.2565852E-005  0.5297760E+03  0.7546771E-02  0.1067277E+00
         21   -1    0    0  501  502  0.00000000000E+00  0.00000000000E+00  0.10563136758E+03  0.10563136758E+03  0.00000000000E+00 0. -1.
          2   -1    0    0  503    0 -0.00000000000E+00 -0.00000000000E+00 -0.12239960457E+04  0.12239960457E+04  0.00000000000E+00 0. -1.
         24    2    1    2    0    0 -0.31021896366E+02  0.65484461867E+01 -0.56467247327E+02  0.10395256861E+03  0.81316334755E+02 0.  0.
         23    2    1    2    0    0  0.26088659004E+03  0.61365379641E+02 -0.51890670033E+03  0.59092102271E+03  0.89977601398E+02 0.  0.
        -13    1    3    3    0    0 -0.16525831292E+02  0.38743410395E+02 -0.54102441619E+02  0.68565509829E+02  0.00000000000E+00 0.  1.
         14    1    3    3    0    0 -0.14496065074E+02 -0.32194964209E+02 -0.23648057079E+01  0.35387058779E+02  0.00000000000E+00 0. -1.
        -13    1    4    4    0    0  0.21784679190E+03  0.13612276561E+02 -0.39265285146E+03  0.44924245188E+03  0.00000000000E+00 0.  1.
         13    1    4    4    0    0  0.43039798147E+02  0.47753103080E+02 -0.12625384887E+03  0.14167857083E+03  0.00000000000E+00 0. -1.
         21    1    1    2  503  502 -0.39954083735E+01  0.30167385434E+02  0.78078361140E+01  0.31416504210E+02  0.00000000000E+00 0. -1.
          1    1    1    2  501    0 -0.22586928530E+03 -0.98081211262E+02 -0.55079856655E+03  0.60333731773E+03  0.00000000000E+00 0. -1.
<scales pt_clust_5="13000.00000" pt_clust_6="13000.00000" pt_clust_7="13000.00000" pt_clust_8="13000.00000" pt_clust_9="30.43081" pt_clust_10="13000.00000"></scales>
<clustering>
<clus scale="   30.431">  1  9  2 -1</clus>
<clus scale="   81.316">  5  6 -1 -1</clus>
<clus scale="   88.688">  2  5  1 -1</clus>
<clus scale="   89.978">  7  8 -1 -1</clus>
<clus scale="  256.476">  7 10 -1 -1</clus>
<clus scale="   30.431">  1  5  2 -1</clus>
</clustering>
</event>
<event>
10    4  0.2565852E-005  0.3202620E+03  0.7546771E-02  0.1105230E+00
         21   -1    0    0  501  502  0.00000000000E+00  0.00000000000E+00  0.26113253202E+03  0.26113253202E+03  0.00000000000E+00 0. -1.
          2   -1    0    0  503    0 -0.00000000000E+00 -0.00000000000E+00 -0.64232826435E+03  0.64232826435E+03  0.00000000000E+00 0. -1.
         24    2    1    2    0    0 -0.34631630502E+02 -0.12180493714E+03  0.90252791025E+02  0.17426904379E+03  0.78666007846E+02 0.  0.
         23    2    1    2    0    0  0.29600727409E+02 -0.73199158473E+02 -0.25048990734E+03  0.27806328801E+03  0.91321840739E+02 0.  0.
        -11    1    3    3    0    0  0.37206285724E+01 -0.10835089581E+03  0.64393046617E+02  0.12609609095E+03  0.00000000000E+00 0.  1.
         12    1    3    3    0    0 -0.38352259074E+02 -0.13454041334E+02  0.25859744408E+02  0.48172952838E+02  0.00000000000E+00 0. -1.
        -13    1    4    4    0    0  0.81379957637E+01 -0.91856119840E+02 -0.18739183676E+03  0.20885275726E+03  0.00000000000E+00 0. -1.
         13    1    4    4    0    0  0.21462731645E+02  0.18656961367E+02 -0.63098070577E+02  0.69210530757E+02  0.00000000000E+00 0.  1.
         21    1    1    2  503  502  0.27167825695E+02 -0.67941905053E+00  0.83901764235E+02  0.88193301362E+02  0.00000000000E+00 0. -1.
          1    1    1    2  501    0 -0.22136922603E+02  0.19568351467E+03 -0.30486038024E+03  0.36293516321E+03  0.00000000000E+00 0. -1.
<scales pt_clust_5="13000.00000" pt_clust_6="13000.00000" pt_clust_7="13000.00000" pt_clust_8="13000.00000" pt_clust_9="27.17632" pt_clust_10="13000.00000"></scales>
<clustering>
<clus scale="   27.176">  1  9  2 -1</clus>
<clus scale="   78.666">  5  6 -1 -1</clus>
<clus scale="   91.322">  7  8 -1 -1</clus>
<clus scale="  146.114">  2  5  1 -1</clus>
<clus scale="  130.292">  7 10 -1 -1</clus>
<clus scale="   27.176">  1  5  2 -1</clus>
</clustering>
</event>
<event>
10    4  0.2565852E-005  0.5255134E+03  0.7546771E-02  0.1053823E+00
         21   -1    0    0  501  502  0.00000000000E+00  0.00000000000E+00  0.11797438373E+03  0.11797438373E+03  0.00000000000E+00 0. -1.
          2   -1    0    0  503    0 -0.00000000000E+00 -0.00000000000E+00 -0.14642841088E+04  0.14642841088E+04  0.00000000000E+00 0. -1.
         24    2    1    2    0    0  0.22479759088E+02  0.12781340206E+03 -0.25857165233E+03  0.30008444947E+03  0.79685457321E+02 0.  0.
         23    2    1    2    0    0  0.14397853713E+03  0.15127455620E+03 -0.82909168805E+03  0.85949634258E+03  0.87904068147E+02 0.  0.
        -13    1    3    3    0    0  0.17018433669E+02  0.57137201507E+02 -0.43971264383E+02  0.74079409906E+02  0.00000000000E+00 0.  1.
         14    1    3    3    0    0  0.54613254183E+01  0.70676200555E+02 -0.21460038795E+03  0.22600503956E+03  0.00000000000E+00 0. -1.
        -11    1    4    4    0    0  0.11333976378E+03  0.63926155530E+02 -0.40384181018E+03  0.42428841967E+03  0.00000000000E+00 0. -1.
         11    1    4    4    0    0  0.30638773348E+02  0.87348400668E+02 -0.42524987787E+03  0.43520792291E+03  0.00000000000E+00 0.  1.
         21    1    1    2  503  502 -0.62041961789E+02 -0.87563983525E+02 -0.42014264789E+02  0.11524692915E+03  0.00000000000E+00 0. -1.
          1    1    1    2  501    0 -0.10441633443E+03 -0.19152397474E+03 -0.21663211991E+03  0.30743077135E+03  0.00000000000E+00 0. -1.
<scales pt_clust_5="13000.00000" pt_clust_6="13000.00000" pt_clust_7="13000.00000" pt_clust_8="13000.00000" pt_clust_9="107.31568" pt_clust_10="13000.00000"></scales>
<clustering>
<clus scale="   79.685">  5  6 -1 -1</clus>
<clus scale="   87.904">  7  8 -1 -1</clus>
<clus scale="  107.316">  1  9  2 -1</clus>
<clus scale="  132.358">  2  5  1 -1</clus>
<clus scale="  241.620">  7 10 -1 -1</clus>
<clus scale="  107.316">  1  5  2 -1</clus>
</clustering>
</event>
<event>
10    4  0.2565852E-005  0.7101788E+03  0.7546771E-02  0.1018022E+00
         21   -1    0    0  501  502  0.00000000000E+00  0.00000000000E+00  0.13848227228E+03  0.13848227228E+03  0.00000000000E+00 0. -1.
          2   -1    0    0  503    0 -0.00000000000E+00 -0.00000000000E+00 -0.21786470801E+04  0.21786470801E+04  0.00000000000E+00 0. -1.
         24    2    1    2    0    0  0.12772943450E+03  0.13275811888E+02 -0.52919989351E+03  0.55055389307E+03  0.81030896930E+02 0.  0.
         23    2    1    2    0    0 -0.54653711420E+02 -0.27018151363E+03 -0.28256281356E+03  0.40546437462E+03  0.92598795864E+02 0.  0.
        -13    1    3    3    0    0  0.25366987195E+02  0.35484227448E+02 -0.10686973675E+03  0.11542857129E+03  0.00000000000E+00 0.  1.
         14    1    3    3    0    0  0.10236244731E+03 -0.22208415560E+02 -0.42233015676E+03  0.43512532178E+03  0.00000000000E+00 0. -1.
        -13    1    4    4    0    0 -0.68286213157E+01 -0.21161510506E+03 -0.17909799786E+03  0.27731511966E+03  0.00000000000E+00 0. -1.
         13    1    4    4    0    0 -0.47825090105E+02 -0.58566408578E+02 -0.10346481570E+03  0.12814925495E+03  0.00000000000E+00 0.  1.
         21    1    1    2  503  502  0.15994093610E+02 -0.18387423732E+02  0.47191770593E+02  0.53112819485E+02  0.00000000000E+00 0. -1.
          1    1    1    2  501    0 -0.89069816694E+02  0.27529312548E+03 -0.12755938713E+04  0.13079982652E+04  0.00000000000E+00 0. -1.
<scales pt_clust_5="13000.00000" pt_clust_6="13000.00000" pt_clust_7="13000.00000" pt_clust_8="13000.00000" pt_clust_9="24.37024" pt_clust_10="13000.00000"></scales>
<clustering>
<clus scale="   24.370">  1  9  2 -1</clus>
<clus scale="   81.031">  5  6 -1 -1</clus>
<clus scale="   92.599">  7  8 -1 -1</clus>
<clus scale="  153.299">  2  5  1 -1</clus>
<clus scale="  280.797">  7 10 -1 -1</clus>
<clus scale="   24.370">  1  5  2 -1</clus>
</clustering>
</event>
<event>
10    4  0.2565852E-005  0.4133406E+03  0.7546771E-02  0.1053639E+00
          2   -1    0    0  503    0 -0.00000000000E+00  0.00000000000E+00  0.22913004494E+04  0.22913004494E+04  0.00000000000E+00 0. -1.
         21   -1    0    0  501  502  0.00000000000E+00 -0.00000000000E+00 -0.13717107638E+03  0.13717107638E+03  0.00000000000E+00 0. -1.
         24    2    1    2    0    0  0.16310885458E+03 -0.18374652701E+03  0.76303745995E+03  0.80612246515E+03  0.85088065505E+02 0.  0.
         23    2    1    2    0    0 -0.76735176129E+01  0.11498945096E+03  0.23660722747E+03  0.27863236471E+03  0.91496217789E+02 0.  0.
        -11    1    3    3    0    0  0.86189064052E+01 -0.54372869840E+02  0.11536154531E+03  0.12782402223E+03  0.00000000000E+00 0.  1.
         12    1    3    3    0    0  0.15448994818E+03 -0.12937365717E+03  0.64767591464E+03  0.67829844292E+03  0.00000000000E+00 0. -1.
        -11    1    4    4    0    0  0.27825462005E+02  0.33417095879E+02  0.27664260944E+02  0.51539014022E+02  0.00000000000E+00 0.  1.
         11    1    4    4    0    0 -0.35498979618E+02  0.81572355083E+02  0.20894296652E+03  0.22709335069E+03  0.00000000000E+00 0. -1.
         21    1    1    2  503  502  0.49044715347E+02 -0.69719026093E+00 -0.78171987601E+02  0.92286130178E+02  0.00000000000E+00 0. -1.
          1    1    1    2  501    0 -0.20448005232E+03  0.69454266308E+02  0.12326566732E+04  0.12514305657E+04  0.00000000000E+00 0. -1.
<scales pt_clust_5="13000.00000" pt_clust_6="13000.00000" pt_clust_7="13000.00000" pt_clust_8="13000.00000" pt_clust_9="49.04967" pt_clust_10="13000.00000"></scales>
<clustering>
<clus scale="   49.050">  2  9  1 -1</clus>
<clus scale="   85.088">  5  6 -1 -1</clus>
<clus scale="   91.496">  7  8 -1 -1</clus>
<clus scale="  207.539">  7 10 -1 -1</clus>
<clus scale="  273.428">  1  5  2 -1</clus>
<clus scale="   49.050">  2  5  1 -1</clus>
</clustering>
</event>
<event>
10    4  0.2565852E-005  0.3168639E+03  0.7546771E-02  0.1081247E+00
          2   -1    0    0  502    0 -0.00000000000E+00  0.00000000000E+00  0.14584288494E+04  0.14584288494E+04  0.00000000000E+00 0. -1.
         21   -1    0    0  503  502  0.00000000000E+00 -0.00000000000E+00 -0.83082992646E+02  0.83082992646E+02  0.00000000000E+00 0. -1.
         24    2    1    2    0    0  0.41332142761E+02  0.28557782015E+03  0.95287260411E+03  0.99865063591E+03  0.77934944341E+02 0.  0.
         23    2    1    2    0    0  0.89816154677E+01 -0.14776573721E+03  0.15933478788E+03  0.23905045362E+03  0.99207672289E+02 0.  0.
        -11    1    3    3    0    0  0.17679062250E+02  0.31866518424E+02  0.60660710456E+02  0.70765429636E+02  0.00000000000E+00 0.  1.
         12    1    3    3    0    0  0.23653080511E+02  0.25371130172E+03  0.89221189366E+03  0.92788520627E+03  0.00000000000E+00 0. -1.
        -11    1    4    4    0    0 -0.11973314248E+02 -0.25353021245E+02  0.95263350150E+02  0.99303785538E+02  0.00000000000E+00 0.  1.
         11    1    4    4    0    0  0.20954929716E+02 -0.12241271596E+03  0.64071437726E+02  0.13974666808E+03  0.00000000000E+00 0. -1.
         21    1    1    2  503  501 -0.99937463277E-01 -0.53761034032E+02  0.86231256309E+02  0.10161736236E+03  0.00000000000E+00 0. -1.
          1    1    1    2  501    0 -0.50213820765E+02 -0.84051048909E+02  0.17690720844E+03  0.20219339014E+03  0.00000000000E+00 0. -1.
<scales pt_clust_5="13000.00000" pt_clust_6="13000.00000" pt_clust_7="13000.00000" pt_clust_8="13000.00000" pt_clust_9="53.76113" pt_clust_10="13000.00000"></scales>
<clustering>
<clus scale="   53.761">  2  9  1 -1</clus>
<clus scale="   77.935">  5  6 -1 -1</clus>
<clus scale="   99.208">  7  8 -1 -1</clus>
<clus scale="  105.757">  7 10 -1 -1</clus>
<clus scale="  283.334">  1  5  2 -1</clus>
<clus scale="   53.761">  2  5  1 -1</clus>
</clustering>
</event>
<event>
10    4  0.2565852E-005  0.6374846E+03  0.7546771E-02  0.9884310E-01
         21   -1    0    0  503  502  0.00000000000E+00  0.00000000000E+00  0.13670479397E+03  0.13670479397E+03  0.00000000000E+00 0.  1.
          2   -1    0    0  502    0 -0.00000000000E+00 -0.00000000000E+00 -0.29477813967E+04  0.29477813967E+04  0.00000000000E+00 0. -1.
         24    2    1    2    0    0  0.34794615954E+03 -0.41143107544E+03 -0.16612958991E+04  0.17484111232E+04  0.81825006741E+02 0.  0.
         23    2    1    2    0    0  0.25482214635E+02  0.23279231561E+02 -0.30296444440E+03  0.31849803979E+03  0.91990656561E+02 0.  0.
        -13    1    3    3    0    0  0.17968353412E+03 -0.19183347023E+03 -0.93386479156E+03  0.97014931926E+03  0.00000000000E+00 0.  1.
         14    1    3    3    0    0  0.16826262542E+03 -0.21959760521E+03 -0.72743110754E+03  0.77826180399E+03  0.00000000000E+00 0. -1.
        -11    1    4    4    0    0 -0.25050966523E+02 -0.13339968702E+02 -0.16012696913E+03  0.16262272882E+03  0.00000000000E+00 0.  1.
         11    1    4    4    0    0  0.50533181159E+02  0.36619200263E+02 -0.14283747527E+03  0.15587531096E+03  0.00000000000E+00 0. -1.
         21    1    1    2  503  501 -0.18173981640E+02  0.20331190191E+02  0.12148691138E+01  0.27297011012E+02  0.00000000000E+00 0.  1.
          1    1    1    2  501    0 -0.35525439254E+03  0.36782065368E+03 -0.84803112834E+03  0.99028001662E+03  0.00000000000E+00 0. -1.
<scales pt_clust_5="13000.00000" pt_clust_6="13000.00000" pt_clust_7="13000.00000" pt_clust_8="13000.00000" pt_clust_9="27.26996" pt_clust_10="13000.00000"></scales>
<clustering>
<clus scale="   27.270">  1  9  2 -1</clus>
<clus scale="   81.825">  5  6 -1 -1</clus>
<clus scale="   91.991">  7  8 -1 -1</clus>
<clus scale="  527.197">  7 10 -1 -1</clus>
<clus scale="  535.426">  2  5  1 -1</clus>
<clus scale="   27.270">  1  5  2 -1</clus>
</clustering>
</event>
<event>
10    4  0.2565852E-005  0.5320266E+03  0.7546771E-02  0.1047918E+00
         21   -1    0    0  503  502  0.00000000000E+00  0.00000000000E+00  0.12075491101E+03  0.12075491101E+03  0.00000000000E+00 0. -1.
          2   -1    0    0  502    0 -0.00000000000E+00 -0.00000000000E+00 -0.13757731478E+04  0.13757731478E+04  0.00000000000E+00 0. -1.
         24    2    1    2    0    0 -0.90709154565E+02 -0.77055721745E+02 -0.45681611083E+03  0.47933440892E+03  0.83155165157E+02 0.  0.
         23    2    1    2    0    0  0.10709467342E+03 -0.98628445405E+02 -0.95381934599E+01  0.15701675458E+03  0.58021071744E+02 0.  0.
        -11    1    3    3    0    0 -0.76708639742E+02 -0.20371936604E+02 -0.18479938035E+03  0.20112195850E+03  0.00000000000E+00 0.  1.
         12    1    3    3    0    0 -0.14000514823E+02 -0.56683785142E+02 -0.27201673048E+03  0.27821245043E+03  0.00000000000E+00 0. -1.
        -11    1    4    4    0    0  0.41718746605E+02 -0.52850199341E+02  0.22535164388E+02  0.71003035306E+02  0.00000000000E+00 0. -1.
         11    1    4    4    0    0  0.65375926817E+02 -0.45778246064E+02 -0.32073357848E+02  0.86013719275E+02  0.00000000000E+00 0.  1.
         21    1    1    2  503  501 -0.60098267335E+02 -0.22196774429E+02 -0.22874968528E+02  0.68027661410E+02  0.00000000000E+00 0. -1.
          1    1    1    2  501    0  0.43712748478E+02  0.19788094158E+03 -0.76578896399E+03  0.79214923391E+03  0.00000000000E+00 0. -1.
<scales pt_clust_5="13000.00000" pt_clust_6="13000.00000" pt_clust_7="13000.00000" pt_clust_8="13000.00000" pt_clust_9="64.06636" pt_clust_10="13000.00000"></scales>
<clustering>
<clus scale="   58.021">  7  8 -1 -1</clus>
<clus scale="   64.066">  1  9  2 -1</clus>
<clus scale="   83.155">  5  6 -1 -1</clus>
<clus scale="  150.921">  2  5  1 -1</clus>
<clus scale="  135.004">  7 10 -1 -1</clus>
<clus scale="   64.066">  1  5  2 -1</clus>
</clustering>
</event>
<event>
10    4  0.3406606E-005  0.2007507E+03  0.7546771E-02  0.1172834E+00
          2   -1    0    0  502    0 -0.00000000000E+00  0.00000000000E+00  0.15399272295E+04  0.15399272295E+04  0.00000000000E+00 0. -1.
         21   -1    0    0  503  502  0.00000000000E+00 -0.00000000000E+00 -0.26535816221E+03  0.26535816221E+03  0.00000000000E+00 0. -1.
         24    2    1    2    0    0 -0.66674128692E+02  0.12798639100E+03  0.37197096695E+03  0.40714203009E+03  0.81094245750E+02 0.  0.
         23    2    1    2    0    0  0.50412527052E+02 -0.83583765069E+02  0.75595782374E+03  0.76880070789E+03  0.10027277054E+03 0.  0.
        -13    1    3    3    0    0 -0.21780214108E+02  0.38597665308E+01  0.15477850332E+02  0.26997025302E+02  0.00000000000E+00 0.  1.
         14    1    3    3    0    0 -0.44893914584E+02  0.12412662447E+03  0.35649311662E+03  0.38014500479E+03  0.00000000000E+00 0. -1.
        -11    1    4    4    0    0 -0.17163580308E+02  0.11368841174E+02  0.68246071385E+02  0.71283695879E+02  0.00000000000E+00 0.  1.
         11    1    4    4    0    0  0.67576107360E+02 -0.94952606243E+02  0.68771175235E+03  0.69751701201E+03  0.00000000000E+00 0. -1.
         21    1    1    2  503  501  0.55740561265E+02 -0.73595286741E+02 -0.23087413971E+03  0.24864863721E+03  0.00000000000E+00 0. -1.
          1    1    1    2  501    0 -0.39478959625E+02  0.29192660813E+02  0.37751441631E+03  0.38069401653E+03  0.00000000000E+00 0. -1.
<scales pt_clust_5="13000.00000" pt_clust_6="13000.00000" pt_clust_7="13000.00000" pt_clust_8="13000.00000" pt_clust_9="92.32159" pt_clust_10="13000.00000"></scales>
<clustering>
<clus scale="   81.094">  5  6 -1 -1</clus>
<clus scale="   92.322">  2  9  1 -1</clus>
<clus scale="  100.273">  7  8 -1 -1</clus>
<clus scale="   43.629">  7 10 -1 -1</clus>
<clus scale="  115.656">  1  5  2 -1</clus>
<clus scale="   92.322">  2  5  1 -1</clus>
</clustering>
</event>
<event>
10    4  0.2833249E-005  0.1559060E+03  0.7546771E-02  0.1222234E+00
          2   -1    0    0  502    0 -0.00000000000E+00  0.00000000000E+00  0.77028923866E+03  0.77028923866E+03  0.00000000000E+00 0. -1.
         21   -1    0    0  503  502  0.00000000000E+00 -0.00000000000E+00 -0.29630026752E+03  0.29630026752E+03  0.00000000000E+00 0. -1.
         24    2    1    2    0    0 -0.20020780631E+02 -0.11980758637E+02  0.71511892154E+03  0.72003068114E+03  0.80651965927E+02 0.  0.
         23    2    1    2    0    0  0.81695018471E+01  0.61856391306E+02 -0.13235911893E+02  0.11174359343E+03  0.91752315519E+02 0.  0.
        -13    1    3    3    0    0  0.25590326549E+02  0.11206791939E+02  0.14840373976E+03  0.15101035386E+03  0.00000000000E+00 0.  1.
         14    1    3    3    0    0 -0.45611107181E+02 -0.23187550577E+02  0.56671518178E+03  0.56902032728E+03  0.00000000000E+00 0. -1.
        -13    1    4    4    0    0  0.19553771562E+02 -0.13225703790E+02 -0.25578309159E+02  0.34806883263E+02  0.00000000000E+00 0.  1.
         13    1    4    4    0    0 -0.11384269715E+02  0.75082095096E+02  0.12342397266E+02  0.76936710166E+02  0.00000000000E+00 0. -1.
         21    1    1    2  503  501  0.23319084156E+01 -0.28007450374E+02 -0.16821959693E+03  0.17055112977E+03  0.00000000000E+00 0. -1.
          1    1    1    2  501    0  0.95193703684E+01 -0.21868182295E+02 -0.59674441572E+02  0.64264101845E+02  0.00000000000E+00 0. -1.
<scales pt_clust_5="13000.00000" pt_clust_6="13000.00000" pt_clust_7="13000.00000" pt_clust_8="13000.00000" pt_clust_9="28.10436" pt_clust_10="13000.00000"></scales>
<clustering>
<clus scale="   28.104">  2  9  1 -1</clus>
<clus scale="   80.652">  5  6 -1 -1</clus>
<clus scale="   84.027">  1  5  2 -1</clus>
<clus scale="   91.752">  7  8 -1 -1</clus>
<clus scale="   38.075">  7 10 -1 -1</clus>
<clus scale="   28.104">  2  5  1 -1</clus>
</clustering>
</event>
<event>
10    4  0.2565852E-005  0.2369045E+03  0.7546771E-02  0.1144904E+00
         21   -1    0    0  501  502  0.00000000000E+00  0.00000000000E+00  0.25486537716E+03  0.25486537716E+03  0.00000000000E+00 0. -1.
         -1   -1    0    0    0  501 -0.00000000000E+00 -0.00000000000E+00 -0.64371290835E+03  0.64371290835E+03  0.00000000000E+00 0.  1.
         24    2    1    2    0    0 -0.14273620315E+03 -0.45663204873E+02 -0.15754085200E+03  0.23057458403E+03  0.76725268210E+02 0.  0.
         23    2    1    2    0    0  0.41722932135E+02  0.33725289770E+02 -0.31924673929E+03  0.33452378352E+03  0.84317749966E+02 0.  0.
        -11    1    3    3    0    0 -0.13913022692E+03 -0.39446241071E+02 -0.10793996025E+03  0.18045570369E+03  0.00000000000E+00 0.  1.
         12    1    3    3    0    0 -0.36059762348E+01 -0.62169638023E+01 -0.49600891755E+02  0.50118880339E+02  0.00000000000E+00 0. -1.
        -13    1    4    4    0    0  0.67884045055E+02  0.24241146291E+02 -0.22669060296E+03  0.23787498023E+03  0.00000000000E+00 0.  1.
         13    1    4    4    0    0 -0.26161112919E+02  0.94841434788E+01 -0.92556136328E+02  0.96648803297E+02  0.00000000000E+00 0. -1.
         21    1    1    2  503  502  0.59442374475E+02  0.10200093954E+03  0.16846636099E+03  0.20571461381E+03  0.00000000000E+00 0. -1.
         -2    1    1    2    0  503  0.41570896544E+02 -0.90063024435E+02 -0.80526300880E+02  0.12776530414E+03  0.00000000000E+00 0.  1.
<scales pt_clust_5="13000.00000" pt_clust_6="13000.00000" pt_clust_7="13000.00000" pt_clust_8="13000.00000" pt_clust_9="118.05756" pt_clust_10="13000.00000"></scales>
<clustering>
<clus scale="   76.725">  5  6 -1 -1</clus>
<clus scale="   84.318">  7  8 -1 -1</clus>
<clus scale="   99.194">  7 10 -1 -1</clus>
<clus scale="  118.058">  1  9  2 -1</clus>
<clus scale="  135.017">  2  5  1 -1</clus>
<clus scale="  118.058">  1  5  2 -1</clus>
</clustering>
</event>
<event>
10    4  0.2565852E-005  0.2158255E+03  0.7546771E-02  0.1157442E+00
          2   -1    0    0  503    0 -0.00000000000E+00  0.00000000000E+00  0.13417853104E+04  0.13417853104E+04  0.00000000000E+00 0. -1.
         21   -1    0    0  501  502  0.00000000000E+00 -0.00000000000E+00 -0.46686700203E+02  0.46686700203E+02  0.00000000000E+00 0. -1.
         24    2    1    2    0    0 -0.44638809037E+02 -0.16225499254E+03  0.41586360897E+03  0.45307127668E+03  0.63338255517E+02 0.  0.
         23    2    1    2    0    0 -0.19862282823E+02  0.26332575216E+01  0.13690374926E+03  0.15674926899E+03  0.73663100977E+02 0.  0.
        -11    1    3    3    0    0 -0.29340605921E+02 -0.18342176766E+02  0.94039642763E+02  0.10020359782E+03  0.00000000000E+00 0.  1.
         12    1    3    3    0    0 -0.15298203116E+02 -0.14391281578E+03  0.32182396621E+03  0.35286767887E+03  0.00000000000E+00 0. -1.
        -11    1    4    4    0    0 -0.41355129335E+02  0.87617424695E+01  0.12385248310E+03  0.13086807259E+03  0.00000000000E+00 0. -1.
         11    1    4    4    0    0  0.21492846512E+02 -0.61284849478E+01  0.13051266155E+02  0.25881196402E+02  0.00000000000E+00 0.  1.
         21    1    1    2  503  502  0.35367823043E+02  0.80791549295E+02  0.11109805872E+03  0.14184828513E+03  0.00000000000E+00 0. -1.
          1    1    1    2  501    0  0.29133268817E+02  0.78830185725E+02  0.63123319329E+03  0.63680317983E+03  0.00000000000E+00 0. -1.
<scales pt_clust_5="13000.00000" pt_clust_6="13000.00000" pt_clust_7="13000.00000" pt_clust_8="13000.00000" pt_clust_9="88.19386" pt_clust_10="13000.00000"></scales>
<clustering>
<clus scale="   63.338">  5  6 -1 -1</clus>
<clus scale="   73.663">  7  8 -1 -1</clus>
<clus scale="   84.041">  7 10 -1 -1</clus>
<clus scale="   88.194">  2  9  1 -1</clus>
<clus scale="  132.754">  1  5  2 -1</clus>
<clus scale="   88.194">  2  5  1 -1</clus>
</clustering>
</event>
<event>
10    4  0.2565852E-005  0.1871162E+03  0.7546771E-02  0.1179010E+00
         21   -1    0    0  501  502  0.00000000000E+00  0.00000000000E+00  0.28480557766E+03  0.28480557766E+03  0.00000000000E+00 0.  1.
          2   -1    0    0  503    0 -0.00000000000E+00 -0.00000000000E+00 -0.25911357731E+03  0.25911357731E+03  0.00000000000E+00 0. -1.
         24    2    1    2    0    0  0.94094955188E+02  0.11823582919E+03  0.10937647786E+03  0.20182728588E+03  0.77054964274E+02 0.  0.
         23    2    1    2    0    0 -0.55034635406E+02 -0.20693679986E+02 -0.32871750316E+02  0.11311587154E+03  0.90871386803E+02 0.  0.
        -13    1    3    3    0    0  0.98830936428E+02  0.87217510203E+02  0.63663182016E+02  0.14638117647E+03  0.00000000000E+00 0.  1.
         14    1    3    3    0    0 -0.47359812396E+01  0.31018318989E+02  0.45713295845E+02  0.55446109406E+02  0.00000000000E+00 0. -1.
        -11    1    4    4    0    0 -0.11219741154E+02  0.33035043085E+02 -0.25871628723E+02  0.43434293317E+02  0.00000000000E+00 0.  1.
         11    1    4    4    0    0 -0.43814894252E+02 -0.53728723071E+02 -0.70001215933E+01  0.69681578222E+02  0.00000000000E+00 0. -1.
         21    1    1    2  503  502 -0.21288458677E+02 -0.74868778969E+02  0.70056655727E+02  0.10472090311E+03  0.00000000000E+00 0.  1.
          1    1    1    2  501    0 -0.17771861105E+02 -0.22673370237E+02 -0.12086938292E+03  0.12425509443E+03  0.00000000000E+00 0. -1.
<scales pt_clust_5="13000.00000" pt_clust_6="13000.00000" pt_clust_7="13000.00000" pt_clust_8="13000.00000" pt_clust_9="77.83658" pt_clust_10="13000.00000"></scales>
<clustering>
<clus scale="   77.055">  5  6 -1 -1</clus>
<clus scale="   77.837">  1  9  2 -1</clus>
<clus scale="   90.871">  7  8 -1 -1</clus>
<clus scale="   29.427">  7 10 -1 -1</clus>
<clus scale="  124.189">  2  5  1 -1</clus>
<clus scale="   77.837">  1  5  2 -1</clus>
</clustering>
</event>
<event>
10    4  0.2565852E-005  0.2987805E+03  0.7546771E-02  0.1115574E+00
         21   -1    0    0  503  502  0.00000000000E+00  0.00000000000E+00  0.75022756806E+03  0.75022756806E+03  0.00000000000E+00 0.  1.
         -1   -1    0    0    0  501 -0.00000000000E+00 -0.00000000000E+00 -0.17592140569E+03  0.17592140569E+03  0.00000000000E+00 0.  1.
         24    2    1    2    0    0  0.92923011640E+02 -0.46291558927E+02 -0.42734474930E+02  0.14073950000E+03  0.84875066961E+02 0.  0.
         23    2    1    2    0    0 -0.86674637354E+01 -0.67464000296E+02  0.53962414424E+02  0.12801549974E+03  0.94071832866E+02 0.  0.
        -13    1    3    3    0    0  0.10392624115E+03 -0.31382320939E+02 -0.18330379586E+02  0.11009775875E+03  0.00000000000E+00 0.  1.
         14    1    3    3    0    0 -0.11003229506E+02 -0.14909237988E+02 -0.24404095344E+02  0.30641741245E+02  0.00000000000E+00 0. -1.
        -13    1    4    4    0    0 -0.41551501021E+02 -0.52693728639E+02  0.51064720911E+01  0.67299571561E+02  0.00000000000E+00 0.  1.
         13    1    4    4    0    0  0.32884037286E+02 -0.14770271657E+02  0.48855942333E+02  0.60715928176E+02  0.00000000000E+00 0. -1.
         21    1    1    2  503  501  0.14622511646E+02 -0.54152642209E+02  0.39822377826E+03  0.40215482600E+03  0.00000000000E+00 0.  1.
         -2    1    1    2    0  502 -0.98878059551E+02  0.16790820143E+03  0.16485444462E+03  0.25523914802E+03  0.00000000000E+00 0.  1.
<scales pt_clust_5="13000.00000" pt_clust_6="13000.00000" pt_clust_7="13000.00000" pt_clust_8="13000.00000" pt_clust_9="56.09213" pt_clust_10="13000.00000"></scales>
<clustering>
<clus scale="   56.092">  1  9  2 -1</clus>
<clus scale="   84.875">  5  6 -1 -1</clus>
<clus scale="   94.072">  7  8 -1 -1</clus>
<clus scale="  138.294">  2  5  1 -1</clus>
<clus scale="  122.875">  7 10 -1 -1</clus>
<clus scale="   56.092">  1  5  2 -1</clus>
</clustering>
</event>
<event>
10    4  0.2565852E-005  0.1876685E+03  0.7546771E-02  0.1193696E+00
          2   -1    0    0  503    0 -0.00000000000E+00  0.00000000000E+00  0.51180328066E+03  0.51180328066E+03  0.00000000000E+00 0. -1.
         21   -1    0    0  501  502  0.00000000000E+00 -0.00000000000E+00 -0.50405723427E+02  0.50405723427E+02  0.00000000000E+00 0.  1.
         24    2    1    2    0    0  0.30209324544E+02  0.18882778649E+02  0.17756656213E+03  0.19906881133E+03  0.82639851386E+02 0.  0.
         23    2    1    2    0    0  0.29206080843E+02  0.34241182365E+02  0.93411824636E+02  0.13762856107E+03  0.90500818296E+02 0.  0.
        -13    1    3    3    0    0 -0.20022236910E+02  0.25780935952E+02  0.35504894055E+02  0.48230116435E+02  0.00000000000E+00 0.  1.
         14    1    3    3    0    0  0.50231561454E+02 -0.68981573023E+01  0.14206166808E+03  0.15083869490E+03  0.00000000000E+00 0. -1.
        -13    1    4    4    0    0  0.91518611951E+01 -0.27457179549E+02  0.73637567715E+01  0.29864329658E+02  0.00000000000E+00 0.  1.
         13    1    4    4    0    0  0.20054219648E+02  0.61698361914E+02  0.86048067864E+02  0.10776423141E+03  0.00000000000E+00 0. -1.
         21    1    1    2  503  502 -0.29694205167E+02  0.17686938778E+02  0.23561007418E+02  0.41829352068E+02  0.00000000000E+00 0. -1.
          1    1    1    2  501    0 -0.29721200219E+02 -0.70810899792E+02  0.16685816305E+03  0.18368227962E+03  0.00000000000E+00 0. -1.
<scales pt_clust_5="13000.00000" pt_clust_6="13000.00000" pt_clust_7="13000.00000" pt_clust_8="13000.00000" pt_clust_9="34.56260" pt_clust_10="13000.00000"></scales>
<clustering>
<clus scale="   34.563">  2  9  1 -1</clus>
<clus scale="   82.640">  5  6 -1 -1</clus>
<clus scale="   88.804">  1  5  2 -1</clus>
<clus scale="   90.501">  7  8 -1 -1</clus>
<clus scale="   58.856">  7 10 -1 -1</clus>
<clus scale="   34.563">  2  5  1 -1</clus>
</clustering>
</event>
<event>
10    4  0.2565852E-005  0.2673672E+03  0.7546771E-02  0.1151622E+00
          2   -1    0    0  502    0 -0.00000000000E+00  0.00000000000E+00  0.53375172408E+03  0.53375172408E+03  0.00000000000E+00 0. -1.
         21   -1    0    0  503  502  0.00000000000E+00 -0.00000000000E+00 -0.12199395612E+03  0.12199395612E+03  0.00000000000E+00 0.  1.
         24    2    1    2    0    0  0.54691102875E+00  0.26926861658E+01  0.13431076675E+03  0.15610286395E+03  0.79505801033E+02 0.  0.
         23    2    1    2    0    0 -0.10869387786E+02  0.83010544700E+02  0.59481407051E+02  0.13832147641E+03  0.92660125886E+02 0.  0.
        -11    1    3    3    0    0 -0.27089367168E+02  0.26116782467E+02  0.97253192993E+02  0.10427897049E+03  0.00000000000E+00 0.  1.
         12    1    3    3    0    0  0.27636278197E+02 -0.23424096302E+02  0.37057573757E+02  0.51823893455E+02  0.00000000000E+00 0. -1.
        -11    1    4    4    0    0  0.21488604327E+02  0.48306964745E+02 -0.10370410267E+02  0.53878273616E+02  0.00000000000E+00 0.  1.
         11    1    4    4    0    0 -0.32357992114E+02  0.34703579956E+02  0.69851817318E+02  0.84443202793E+02  0.00000000000E+00 0. -1.
         21    1    1    2  503  501 -0.53819273255E+02 -0.31408388785E+01 -0.50095609281E+02  0.73593132232E+02  0.00000000000E+00 0.  1.
          1    1    1    2  501    0  0.64141750012E+02 -0.82562391988E+02  0.26806120344E+03  0.28772820761E+03  0.00000000000E+00 0. -1.
<scales pt_clust_5="13000.00000" pt_clust_6="13000.00000" pt_clust_7="13000.00000" pt_clust_8="13000.00000" pt_clust_9="53.91084" pt_clust_10="13000.00000"></scales>
<clustering>
<clus scale="   53.911">  2  9  1 -1</clus>
<clus scale="   79.506">  5  6 -1 -1</clus>
<clus scale="   80.065">  1  5  2 -1</clus>
<clus scale="   92.660">  7  8 -1 -1</clus>
<clus scale="   95.306">  7 10 -1 -1</clus>
<clus scale="   53.911">  2  5  1 -1</clus>
</clustering>
</event>
<event>
10    4  0.2565852E-005  0.5604372E+03  0.7546771E-02  0.1059457E+00
         21   -1    0    0  501  502  0.00000000000E+00  0.00000000000E+00  0.10169956000E+04  0.10169956000E+04  0.00000000000E+00 0. -1.
          2   -1    0    0  503    0 -0.00000000000E+00 -0.00000000000E+00 -0.12833624187E+03  0.12833624187E+03  0.00000000000E+00 0. -1.
         24    2    1    2    0    0  0.38715812087E+01  0.50111187503E+02  0.25641832507E+03  0.27286615118E+03  0.78609533608E+02 0.  0.
         23    2    1    2    0    0  0.55377367523E+02 -0.43617956350E+02 -0.82693681012E+02  0.14284690083E+03  0.92724394031E+02 0.  0.
        -11    1    3    3    0    0 -0.27332189627E+02 -0.84152848468E+00  0.40750600582E+02  0.49075128200E+02  0.00000000000E+00 0.  1.
         12    1    3    3    0    0  0.31203770836E+02  0.50952715987E+02  0.21566772448E+03  0.22379102298E+03  0.00000000000E+00 0. -1.
        -13    1    4    4    0    0  0.56709274660E+02 -0.66297499532E+02 -0.82579872235E+02  0.12012799663E+03  0.00000000000E+00 0. -1.
         13    1    4    4    0    0 -0.13319071368E+01  0.22679543183E+02 -0.11380877661E+00  0.22718904200E+02  0.00000000000E+00 0.  1.
         21    1    1    2  503  502  0.33757831079E+02 -0.72309313527E+01  0.70418074149E+02  0.78425650741E+02  0.00000000000E+00 0. -1.
          1    1    1    2  501    0 -0.93006779811E+02  0.73770019965E+00  0.64451663996E+03  0.65119313915E+03  0.00000000000E+00 0. -1.
<scales pt_clust_5="13000.00000" pt_clust_6="13000.00000" pt_clust_7="13000.00000" pt_clust_8="13000.00000" pt_clust_9="34.52358" pt_clust_10="13000.00000"></scales>
<clustering>
<clus scale="   34.524">  1  9  2 -1</clus>
<clus scale="   78.610">  5  6 -1 -1</clus>
<clus scale="   92.724">  7  8 -1 -1</clus>
<clus scale="   69.932">  7 10 -1 -1</clus>
<clus scale="   93.110">  2  5  1 -1</clus>
<clus scale="   34.524">  1  5  2 -1</clus>
</clustering>
</event>
<event>
10    4  0.2565852E-005  0.3944398E+03  0.7546771E-02  0.1102180E+00
         21   -1    0    0  503  502  0.00000000000E+00  0.00000000000E+00  0.82370325761E+03  0.82370325761E+03  0.00000000000E+00 0. -1.
          2   -1    0    0  502    0 -0.00000000000E+00 -0.00000000000E+00 -0.19157899340E+03  0.19157899340E+03  0.00000000000E+00 0. -1.
         24    2    1    2    0    0  0.62032836681E+01  0.32657794516E+02  0.56799362497E+01  0.84795456460E+02  0.77800999284E+02 0.  0.
         23    2    1    2    0    0  0.27197654823E+02  0.28780616644E+03  0.18592653026E+03  0.35630090169E+03  0.93859235150E+02 0.  0.
        -13    1    3    3    0    0  0.34407630319E+02  0.42197649125E+02 -0.19252781168E+00  0.54447806960E+02  0.00000000000E+00 0.  1.
         14    1    3    3    0    0 -0.28204346651E+02 -0.95398546087E+01  0.58724640613E+01  0.30347649499E+02  0.00000000000E+00 0. -1.
        -11    1    4    4    0    0 -0.32040330068E+02  0.54632409073E+02  0.40720044637E+02  0.75295450774E+02  0.00000000000E+00 0.  1.
         11    1    4    4    0    0  0.59237984891E+02  0.23317375737E+03  0.14520648563E+03  0.28100545092E+03  0.00000000000E+00 0. -1.
         21    1    1    2  503  501 -0.18500124103E+02 -0.25529147227E+03  0.43797294885E+03  0.50728324862E+03  0.00000000000E+00 0. -1.
          1    1    1    2  501    0 -0.14900814388E+02 -0.65172488685E+02  0.25448488456E+01  0.66902644241E+02  0.00000000000E+00 0. -1.
<scales pt_clust_5="13000.00000" pt_clust_6="13000.00000" pt_clust_7="13000.00000" pt_clust_8="13000.00000" pt_clust_9="248.43496" pt_clust_10="13000.00000"></scales>
<clustering>
<clus scale="   77.801">  5  6 -1 -1</clus>
<clus scale="   84.605">  2  5  1 -1</clus>
<clus scale="   93.859">  7  8 -1 -1</clus>
<clus scale="   59.823">  7 10 -1 -1</clus>
<clus scale="  248.435">  1  9  2 -1</clus>
<clus scale="  248.435">  1  5  2 -1</clus>
</clustering>
</event>
<event>
10    4  0.2565852E-005  0.1895988E+03  0.7546771E-02  0.1190397E+00
          2   -1    0    0  503    0 -0.00000000000E+00  0.00000000000E+00  0.67765650495E+03  0.67765650495E+03  0.00000000000E+00 0. -1.
         21   -1    0    0  501  502  0.00000000000E+00 -0.00000000000E+00 -0.82981886836E+02  0.82981886836E+02  0.00000000000E+00 0.  1.
         24    2    1    2    0    0 -0.29441542196E+02  0.36783704869E+02  0.35856664767E+03  0.37051399927E+03  0.80565113309E+02 0.  0.
         23    2    1    2    0    0  0.17157033170E+02  0.22245838925E+02  0.42376314814E+02  0.95756698806E+02  0.81144021174E+02 0.  0.
        -13    1    3    3    0    0 -0.90976315666E+01 -0.18519260147E+02  0.28251324858E+02  0.34983814154E+02  0.00000000000E+00 0.  1.
         14    1    3    3    0    0 -0.20343910629E+02  0.55302965016E+02  0.33031532281E+03  0.33553018511E+03  0.00000000000E+00 0. -1.
        -13    1    4    4    0    0  0.37956276023E+02 -0.58090663798E+01 -0.29787969565E+01  0.38513599845E+02  0.00000000000E+00 0. -1.
         13    1    4    4    0    0 -0.20799242853E+02  0.28054905305E+02  0.45355111771E+02  0.57243098961E+02  0.00000000000E+00 0.  1.
         21    1    1    2  503  502 -0.10599957874E+02 -0.20342922443E+02 -0.45497207593E+02  0.50952816401E+02  0.00000000000E+00 0.  1.
          1    1    1    2  501    0  0.22884466900E+02 -0.38686621351E+02  0.23922886322E+03  0.24341487731E+03  0.00000000000E+00 0. -1.
<scales pt_clust_5="13000.00000" pt_clust_6="13000.00000" pt_clust_7="13000.00000" pt_clust_8="13000.00000" pt_clust_9="22.93891" pt_clust_10="13000.00000"></scales>
<clustering>
<clus scale="   22.939">  2  9  1 -1</clus>
<clus scale="   80.565">  5  6 -1 -1</clus>
<clus scale="   81.144">  7  8 -1 -1</clus>
<clus scale="   45.693">  7 10 -1 -1</clus>
<clus scale="   92.608">  1  5  2 -1</clus>
<clus scale="   22.939">  2  5  1 -1</clus>
</clustering>
</event>
<event>
10    4  0.2565852E-005  0.3880216E+03  0.7546771E-02  0.1081269E+00
         21   -1    0    0  503  502  0.00000000000E+00  0.00000000000E+00  0.14177003531E+03  0.14177003531E+03  0.00000000000E+00 0. -1.
          2   -1    0    0  502    0 -0.00000000000E+00 -0.00000000000E+00 -0.76583494178E+03  0.76583494178E+03  0.00000000000E+00 0. -1.
         24    2    1    2    0    0  0.61044943827E+02 -0.11559126270E+03 -0.27593110526E+03  0.31774229992E+03  0.87945262095E+02 0.  0.
         23    2    1    2    0    0  0.10273191853E+03 -0.18085736279E+02 -0.29165930122E+03  0.32267222376E+03  0.90395105284E+02 0.  0.
        -13    1    3    3    0    0  0.90880390270E+01 -0.21947514305E+02 -0.22577526363E+01  0.23861753592E+02  0.00000000000E+00 0.  1.
         14    1    3    3    0    0  0.51956904800E+02 -0.93643748396E+02 -0.27367335263E+03  0.29388054633E+03  0.00000000000E+00 0. -1.
        -11    1    4    4    0    0  0.90303174323E+02  0.18360626007E+02 -0.15154756233E+03  0.17736527148E+03  0.00000000000E+00 0. -1.
         11    1    4    4    0    0  0.12428744209E+02 -0.36446362286E+02 -0.14011173889E+03  0.14530695228E+03  0.00000000000E+00 0.  1.
         21    1    1    2  503  501  0.42929657805E+01  0.24399045309E+02  0.38166052453E+02  0.45501544227E+02  0.00000000000E+00 0. -1.
          1    1    1    2  501    0 -0.16806982814E+03  0.10927795367E+03 -0.94640552444E+02  0.22168890919E+03  0.00000000000E+00 0. -1.
<scales pt_clust_5="13000.00000" pt_clust_6="13000.00000" pt_clust_7="13000.00000" pt_clust_8="13000.00000" pt_clust_9="24.77384" pt_clust_10="13000.00000"></scales>
<clustering>
<clus scale="   24.774">  1  9  2 -1</clus>
<clus scale="   87.945">  5  6 -1 -1</clus>
<clus scale="   90.395">  7  8 -1 -1</clus>
<clus scale="  154.204">  2  5  1 -1</clus>
<clus scale="  166.798">  7 10 -1 -1</clus>
<clus scale="   24.774">  1  5  2 -1</clus>
</clustering>
</event>
<event>
10    4  0.2565852E-005  0.3185214E+03  0.7546771E-02  0.1116099E+00
         21   -1    0    0  503  502  0.00000000000E+00  0.00000000000E+00  0.57611163276E+03  0.57611163276E+03  0.00000000000E+00 0.  1.
          4   -1    0    0  502    0 -0.00000000000E+00 -0.00000000000E+00 -0.10738624133E+03  0.10738624133E+03  0.00000000000E+00 0. -1.
         24    2    1    2    0    0  0.68518366799E+02  0.42173908248E+02  0.90980195979E+02  0.14543889889E+03  0.80010450098E+02 0.  0.
         23    2    1    2    0    0  0.27417180146E+02  0.94581379703E+02  0.15860830793E+03  0.20802157538E+03  0.91755334037E+02 0.  0.
        -13    1    3    3    0    0  0.83545398761E+02  0.32134066184E+02  0.54688719087E+02  0.10489655790E+03  0.00000000000E+00 0.  1.
         14    1    3    3    0    0 -0.15027031961E+02  0.10039842064E+02  0.36291476891E+02  0.40542340993E+02  0.00000000000E+00 0. -1.
        -11    1    4    4    0    0 -0.62893777705E+01  0.99022407085E+02  0.10435827374E+03  0.14399875929E+03  0.00000000000E+00 0.  1.
         11    1    4    4    0    0  0.33706557916E+02 -0.44410273821E+01  0.54250034186E+02  0.64022816089E+02  0.00000000000E+00 0. -1.
         21    1    1    2  503  501 -0.15940787996E+02  0.16044650226E+02  0.13726992733E+03  0.13912071187E+03  0.00000000000E+00 0.  1.
          3    1    1    2  501    0 -0.79994758950E+02 -0.15279993818E+03  0.81866960184E+02  0.19091668795E+03  0.00000000000E+00 0. -1.
<scales pt_clust_5="13000.00000" pt_clust_6="13000.00000" pt_clust_7="13000.00000" pt_clust_8="13000.00000" pt_clust_9="22.61724" pt_clust_10="13000.00000"></scales>
<clustering>
<clus scale="   22.617">  1  9  2 -1</clus>
<clus scale="   80.010">  5  6 -1 -1</clus>
<clus scale="   91.755">  7  8 -1 -1</clus>
<clus scale="  112.641">  2  5  1 -1</clus>
<clus scale="  124.149">  7 10 -1 -1</clus>
<clus scale="   22.617">  1  5  2 -1</clus>
</clustering>
</event>
<event>
10    4  0.2565852E-005  0.3234602E+03  0.7546771E-02  0.1121986E+00
          2   -1    0    0  502    0 -0.00000000000E+00  0.00000000000E+00  0.16367802250E+04  0.16367802250E+04  0.00000000000E+00 0. -1.
         21   -1    0    0  503  502  0.00000000000E+00 -0.00000000000E+00 -0.27706296961E+03  0.27706296961E+03  0.00000000000E+00 0. -1.
         24    2    1    2    0    0 -0.99984881692E+01 -0.45989366264E+02  0.61909941453E+03  0.62631209353E+03  0.82266407753E+02 0.  0.
         23    2    1    2    0    0 -0.19956195954E+00  0.13044151280E+03  0.80860701481E+03  0.82397912685E+03  0.89895878605E+02 0.  0.
        -11    1    3    3    0    0  0.33941819491E+02 -0.25703334595E+02  0.20363185098E+03  0.20803518754E+03  0.00000000000E+00 0.  1.
         12    1    3    3    0    0 -0.43940307661E+02 -0.20286031668E+02  0.41546756355E+03  0.41827690599E+03  0.00000000000E+00 0. -1.
        -11    1    4    4    0    0  0.38443427664E+02  0.27686903932E+02  0.19860915037E+03  0.20418143008E+03  0.00000000000E+00 0. -1.
         11    1    4    4    0    0 -0.38642989624E+02  0.10275460887E+03  0.60999786445E+03  0.61979769677E+03  0.00000000000E+00 0.  1.
         21    1    1    2  503  501  0.19120249564E+01  0.33373326198E+02 -0.24690828473E+03  0.24916086332E+03  0.00000000000E+00 0. -1.
          1    1    1    2  501    0  0.82860251723E+01 -0.11782547273E+03  0.17891911079E+03  0.21439111092E+03  0.00000000000E+00 0. -1.
<scales pt_clust_5="13000.00000" pt_clust_6="13000.00000" pt_clust_7="13000.00000" pt_clust_8="13000.00000" pt_clust_9="33.42805" pt_clust_10="13000.00000"></scales>
<clustering>
<clus scale="   33.428">  2  9  1 -1</clus>
<clus scale="   82.266">  5  6 -1 -1</clus>
<clus scale="   89.896">  7  8 -1 -1</clus>
<clus scale="   92.811">  1  5  2 -1</clus>
<clus scale="  103.492">  7 10 -1 -1</clus>
<clus scale="   33.428">  2  5  1 -1</clus>
</clustering>
</event>
<event>
10    4  0.2565852E-005  0.4378810E+03  0.7546771E-02  0.1034715E+00
          4   -1    0    0  503    0 -0.00000000000E+00  0.00000000000E+00  0.81606319318E+03  0.81606319318E+03  0.00000000000E+00 0. -1.
         21   -1    0    0  501  502  0.00000000000E+00 -0.00000000000E+00 -0.37269916959E+03  0.37269916959E+03  0.00000000000E+00 0. -1.
         24    2    1    2    0    0 -0.27460383005E+03  0.23312609172E+03  0.27682265239E+03  0.46149915292E+03  0.81213602030E+02 0.  0.
         23    2    1    2    0    0  0.10335900681E+03 -0.37771765879E+02  0.49625869118E+02  0.15179043415E+03  0.92020749981E+02 0.  0.
        -11    1    3    3    0    0 -0.52080353730E+01  0.33602852801E+02  0.26754363663E+02  0.43267439534E+02  0.00000000000E+00 0.  1.
         12    1    3    3    0    0 -0.26939579468E+03  0.19952323892E+03  0.25006828872E+03  0.41823171339E+03  0.00000000000E+00 0. -1.
        -13    1    4    4    0    0  0.86400264216E+02  0.60685698829E+01  0.57732105914E+02  0.10409048588E+03  0.00000000000E+00 0.  1.
         13    1    4    4    0    0  0.16958742594E+02 -0.43840335762E+02 -0.81062367957E+01  0.47699948271E+02  0.00000000000E+00 0. -1.
         21    1    1    2  503  502 -0.83562033842E+02  0.52855912699E+01 -0.13904991396E+03  0.16231275226E+03  0.00000000000E+00 0. -1.
          3    1    1    2  501    0  0.25480685708E+03 -0.20063991711E+03  0.25596541605E+03  0.41316002344E+03  0.00000000000E+00 0. -1.
<scales pt_clust_5="13000.00000" pt_clust_6="13000.00000" pt_clust_7="13000.00000" pt_clust_8="13000.00000" pt_clust_9="83.72903" pt_clust_10="13000.00000"></scales>
<clustering>
<clus scale="   81.214">  5  6 -1 -1</clus>
<clus scale="   83.729">  2  9  1 -1</clus>
<clus scale="   92.021">  7  8 -1 -1</clus>
<clus scale="  300.392">  7 10 -1 -1</clus>
<clus scale="  397.084">  1  5  2 -1</clus>
<clus scale="   83.729">  2  5  1 -1</clus>
</clustering>
</event>
<event>
10    4  0.2565852E-005  0.1541251E+03  0.7546771E-02  0.1219707E+00
          2   -1    0    0  502    0 -0.00000000000E+00  0.00000000000E+00  0.36256802428E+03  0.36256802428E+03  0.00000000000E+00 0. -1.
         21   -1    0    0  503  502  0.00000000000E+00 -0.00000000000E+00 -0.14250676031E+03  0.14250676031E+03  0.00000000000E+00 0.  1.
         24    2    1    2    0    0 -0.35003335822E+02 -0.16197239736E+02  0.27675098463E+03  0.29144961950E+03  0.82850402030E+02 0.  0.
         23    2    1    2    0    0  0.38287588065E+02  0.12925560545E+02 -0.94764755278E+02  0.13791632568E+03  0.91692663450E+02 0.  0.
        -11    1    3    3    0    0  0.22850274539E+02 -0.12575045630E+02  0.14759605262E+03  0.14988282613E+03  0.00000000000E+00 0.  1.
         12    1    3    3    0    0 -0.57853610361E+02 -0.36221941064E+01  0.12915493202E+03  0.14156679337E+03  0.00000000000E+00 0. -1.
        -13    1    4    4    0    0  0.57454099334E+02 -0.16467522905E+02 -0.79965846572E+02  0.99833308364E+02  0.00000000000E+00 0.  1.
         13    1    4    4    0    0 -0.19166511269E+02  0.29393083450E+02 -0.14798908706E+02  0.38083017315E+02  0.00000000000E+00 0. -1.
         21    1    1    2  503  501  0.47346474769E-01 -0.30988951864E+02  0.19118578162E+02  0.36412050344E+02  0.00000000000E+00 0. -1.
          1    1    1    2  501    0 -0.33315987178E+01  0.34260631055E+02  0.18956456446E+02  0.39296789071E+02  0.00000000000E+00 0. -1.
<scales pt_clust_5="13000.00000" pt_clust_6="13000.00000" pt_clust_7="13000.00000" pt_clust_8="13000.00000" pt_clust_9="30.98900" pt_clust_10="13000.00000"></scales>
<clustering>
<clus scale="   30.989">  2  9  1 -1</clus>
<clus scale="   82.850">  5  6 -1 -1</clus>
<clus scale="   91.693">  7  8 -1 -1</clus>
<clus scale="   32.079">  7 10 -1 -1</clus>
<clus scale="   91.704">  1  5  2 -1</clus>
<clus scale="   30.989">  2  5  1 -1</clus>
</clustering>
</event>
<event>
10    4  0.2565852E-005  0.1951319E+03  0.7546771E-02  0.1180016E+00
          2   -1    0    0  502    0 -0.00000000000E+00  0.00000000000E+00  0.10823499706E+04  0.10823499706E+04  0.00000000000E+00 0. -1.
         21   -1    0    0  503  502  0.00000000000E+00 -0.00000000000E+00 -0.88847446806E+02  0.88847446806E+02  0.00000000000E+00 0. -1.
         24    2    1    2    0    0  0.69463085210E+01 -0.65914443550E+02  0.83338744255E+03  0.84044722281E+03  0.86162287891E+02 0.  0.
         23    2    1    2    0    0  0.36499000784E+02  0.10327701306E+02  0.20226073592E+03  0.22530255642E+03  0.91722397287E+02 0.  0.
        -11    1    3    3    0    0  0.35552938548E+02 -0.99934185091E+01  0.16338503666E+03  0.16750686570E+03  0.00000000000E+00 0.  1.
         12    1    3    3    0    0 -0.28606630027E+02 -0.55921025040E+02  0.67000240589E+03  0.67294035711E+03  0.00000000000E+00 0. -1.
        -13    1    4    4    0    0  0.52495473917E+02 -0.22124329470E+02  0.82958755555E+02  0.10063506277E+03  0.00000000000E+00 0. -1.
         13    1    4    4    0    0 -0.15996473133E+02  0.32452030776E+02  0.11930198036E+03  0.12466749365E+03  0.00000000000E+00 0.  1.
         21    1    1    2  503  501  0.23531570358E+01  0.31745351612E+02 -0.43372792055E+02  0.53800592819E+02  0.00000000000E+00 0. -1.
          1    1    1    2  501    0 -0.45798466340E+02  0.23841390632E+02  0.12271373643E+01  0.51647045341E+02  0.00000000000E+00 0. -1.
<scales pt_clust_5="13000.00000" pt_clust_6="13000.00000" pt_clust_7="13000.00000" pt_clust_8="13000.00000" pt_clust_9="31.83245" pt_clust_10="13000.00000"></scales>
<clustering>
<clus scale="   31.832">  2  9  1 -1</clus>
<clus scale="   86.162">  5  6 -1 -1</clus>
<clus scale="   91.722">  7  8 -1 -1</clus>
<clus scale="   62.258">  7 10 -1 -1</clus>
<clus scale="  107.054">  1  5  2 -1</clus>
<clus scale="   31.832">  2  5  1 -1</clus>
</clustering>
</event>
<event>
10    4  0.2565852E-005  0.4797050E+03  0.7546771E-02  0.1063345E+00
         21   -1    0    0  501  502  0.00000000000E+00  0.00000000000E+00  0.32642390086E+03  0.32642390086E+03  0.00000000000E+00 0. -1.
          2   -1    0    0  503    0 -0.00000000000E+00 -0.00000000000E+00 -0.11901378536E+04  0.11901378536E+04  0.00000000000E+00 0. -1.
         24    2    1    2    0    0  0.10466328183E+03 -0.11983467686E+02 -0.76508092905E+03  0.77639621334E+03  0.79650775475E+02 0.  0.
         23    2    1    2    0    0  0.15997534722E+03  0.11150476108E+02 -0.65787673938E+02  0.19812548720E+03  0.95964815419E+02 0.  0.
        -11    1    3    3    0    0  0.61749735240E+02 -0.31587242702E+01 -0.19349649990E+03  0.20313518360E+03  0.00000000000E+00 0.  1.
         12    1    3    3    0    0  0.42913546586E+02 -0.88247434155E+01 -0.57158442915E+03  0.57326102975E+03  0.00000000000E+00 0. -1.
        -11    1    4    4    0    0  0.14404778268E+03  0.43797243174E+02 -0.53167684062E+02  0.15967080144E+03  0.00000000000E+00 0. -1.
         11    1    4    4    0    0  0.15927564547E+02 -0.32646767067E+02 -0.12619989875E+02  0.38454685758E+02  0.00000000000E+00 0.  1.
         21    1    1    2  503  502  0.27250138178E+02 -0.10366657972E+03  0.14828963596E+03  0.18297307429E+03  0.00000000000E+00 0. -1.
          1    1    1    2  501    0 -0.29188876723E+03  0.10449957130E+03 -0.18113498575E+03  0.35906697968E+03  0.00000000000E+00 0. -1.
<scales pt_clust_5="13000.00000" pt_clust_6="13000.00000" pt_clust_7="13000.00000" pt_clust_8="13000.00000" pt_clust_9="107.18829" pt_clust_10="13000.00000"></scales>
<clustering>
<clus scale="   79.651">  5  6 -1 -1</clus>
<clus scale="   95.965">  7  8 -1 -1</clus>
<clus scale="  107.188">  1  9  2 -1</clus>
<clus scale="  133.209">  2  5  1 -1</clus>
<clus scale="  218.910">  7 10 -1 -1</clus>
<clus scale="  107.188">  1  5  2 -1</clus>
</clustering>
</event>
<event>
10    4  0.2565852E-005  0.4334194E+03  0.7546771E-02  0.1038502E+00
         21   -1    0    0  503  502  0.00000000000E+00  0.00000000000E+00  0.35182881368E+03  0.35182881368E+03  0.00000000000E+00 0. -1.
         -1   -1    0    0    0  501 -0.00000000000E+00 -0.00000000000E+00 -0.83397831132E+03  0.83397831132E+03  0.00000000000E+00 0.  1.
         24    2    1    2    0    0  0.19606381628E+03 -0.26357496426E+03  0.16512174404E+03  0.37571471909E+03  0.77353590402E+02 0.  0.
         23    2    1    2    0    0 -0.87524899928E+02  0.20414390014E+03 -0.46069183906E+03  0.52017019691E+03  0.94893219490E+02 0.  0.
        -13    1    3    3    0    0  0.12166039118E+02 -0.26833330667E+02  0.42762842558E+02  0.51929768401E+02  0.00000000000E+00 0.  1.
         14    1    3    3    0    0  0.18389777716E+03 -0.23674163360E+03  0.12235890148E+03  0.32378495069E+03  0.00000000000E+00 0. -1.
        -11    1    4    4    0    0 -0.35920253586E+02  0.16163491623E+03 -0.25640185466E+03  0.30521799068E+03  0.00000000000E+00 0.  1.
         11    1    4    4    0    0 -0.51604646342E+02  0.42508983914E+02 -0.20428998440E+03  0.21495220623E+03  0.00000000000E+00 0. -1.
         21    1    1    2  503  501  0.44457368407E+02 -0.13133815788E+02 -0.71404554776E+02  0.85132632789E+02  0.00000000000E+00 0.  1.
         -2    1    1    2    0  502 -0.15299628476E+03  0.72564879911E+02 -0.11517484785E+03  0.20478957621E+03  0.00000000000E+00 0.  1.
<scales pt_clust_5="13000.00000" pt_clust_6="13000.00000" pt_clust_7="13000.00000" pt_clust_8="13000.00000" pt_clust_9="46.35684" pt_clust_10="13000.00000"></scales>
<clustering>
<clus scale="   46.357">  1  9  2 -1</clus>
<clus scale="   77.354">  5  6 -1 -1</clus>
<clus scale="   94.893">  7  8 -1 -1</clus>
<clus scale="  163.387">  7 10 -1 -1</clus>
<clus scale="  366.483">  2  5  1 -1</clus>
<clus scale="   46.357">  1  5  2 -1</clus>
</clustering>
</event>
<event>
10    4  0.2565852E-005  0.2638270E+03  0.7546771E-02  0.1135077E+00
         21   -1    0    0  503  502  0.00000000000E+00  0.00000000000E+00  0.45602141075E+03  0.45602141075E+03  0.00000000000E+00 0. -1.
          2   -1    0    0  502    0 -0.00000000000E+00 -0.00000000000E+00 -0.10874256711E+03  0.10874256711E+03  0.00000000000E+00 0. -1.
         24    2    1    2    0    0 -0.63655963239E+02  0.74811478529E+02  0.19852136836E+03  0.23569618648E+03  0.80579896068E+02 0.  0.
         23    2    1    2    0    0  0.97900010447E+02 -0.33608060174E+02  0.14709848696E+03  0.20409491640E+03  0.96451315607E+02 0.  0.
        -13    1    3    3    0    0 -0.17314400653E+02  0.15319087539E+02  0.13538400625E+03  0.13734370048E+03  0.00000000000E+00 0.  1.
         14    1    3    3    0    0 -0.46341562586E+02  0.59492390990E+02  0.63137362113E+02  0.98352486005E+02  0.00000000000E+00 0. -1.
        -13    1    4    4    0    0  0.61618382223E+01  0.23869921886E+02  0.60938411733E+02  0.65736074158E+02  0.00000000000E+00 0.  1.
         13    1    4    4    0    0  0.91738172225E+02 -0.57477982060E+02  0.86160075226E+02  0.13835884225E+03  0.00000000000E+00 0. -1.
         21    1    1    2  503  501  0.19490324883E+02  0.51143079654E+01  0.39666621850E+02  0.44491232833E+02  0.00000000000E+00 0. -1.
          1    1    1    2  501    0 -0.53734372090E+02 -0.46317726320E+02 -0.38007633529E+02  0.80481642142E+02  0.00000000000E+00 0. -1.
<scales pt_clust_5="13000.00000" pt_clust_6="13000.00000" pt_clust_7="13000.00000" pt_clust_8="13000.00000" pt_clust_9="20.15016" pt_clust_10="13000.00000"></scales>
<clustering>
<clus scale="   20.150">  1  9  2 -1</clus>
<clus scale="   80.580">  5  6 -1 -1</clus>
<clus scale="   96.451">  7  8 -1 -1</clus>
<clus scale="   70.014">  7 10 -1 -1</clus>
<clus scale="  123.910">  2  5  1 -1</clus>
<clus scale="   20.150">  1  5  2 -1</clus>
</clustering>
</event>
<event>
10    4  0.2565852E-005  0.4582538E+03  0.7546771E-02  0.1075667E+00
          2   -1    0    0  502    0 -0.00000000000E+00  0.00000000000E+00  0.15543675155E+04  0.15543675155E+04  0.00000000000E+00 0. -1.
         21   -1    0    0  503  502  0.00000000000E+00 -0.00000000000E+00 -0.91064598124E+02  0.91064598124E+02  0.00000000000E+00 0. -1.
         24    2    1    2    0    0  0.57960426101E+02 -0.58836248152E+02  0.48025919938E+03  0.49276823796E+03  0.73147266973E+02 0.  0.
         23    2    1    2    0    0  0.19183881350E+03 -0.51795227115E+02  0.49962613733E+03  0.54542963985E+03  0.91555114621E+02 0.  0.
        -11    1    3    3    0    0  0.57430547207E+02 -0.59489279247E+02  0.48293535488E+03  0.48996305890E+03  0.00000000000E+00 0.  1.
         12    1    3    3    0    0  0.52987889475E+00  0.65303109544E+00 -0.26761555034E+01  0.28051790554E+01  0.00000000000E+00 0. -1.
        -11    1    4    4    0    0  0.26458561250E+02  0.18959242202E+02  0.38234140417E+02  0.50213123998E+02  0.00000000000E+00 0.  1.
         11    1    4    4    0    0  0.16538025225E+03 -0.70754469317E+02  0.46139199691E+03  0.49521651585E+03  0.00000000000E+00 0. -1.
         21    1    1    2  503  501 -0.51949087864E+02 -0.24237777082E+02 -0.10553121066E+02  0.58288471690E+02  0.00000000000E+00 0. -1.
          1    1    1    2  501    0 -0.19785015174E+03  0.13486925235E+03  0.49397070176E+03  0.54894576414E+03  0.00000000000E+00 0. -1.
<scales pt_clust_5="13000.00000" pt_clust_6="13000.00000" pt_clust_7="13000.00000" pt_clust_8="13000.00000" pt_clust_9="57.32519" pt_clust_10="13000.00000"></scales>
<clustering>
<clus scale="   57.325">  2  9  1 -1</clus>
<clus scale="   73.147">  5  6 -1 -1</clus>
<clus scale="   91.555">  7  8 -1 -1</clus>
<clus scale="  108.911">  1  5  2 -1</clus>
<clus scale="  213.027">  7 10 -1 -1</clus>
<clus scale="   57.325">  2  5  1 -1</clus>
</clustering>
</event>
<event>
10    4  0.2565852E-005  0.3349735E+03  0.7546771E-02  0.1072383E+00
          2   -1    0    0  503    0 -0.00000000000E+00  0.00000000000E+00  0.72326876903E+03  0.72326876903E+03  0.00000000000E+00 0. -1.
         21   -1    0    0  501  502  0.00000000000E+00 -0.00000000000E+00 -0.16810358874E+03  0.16810358874E+03  0.00000000000E+00 0. -1.
         24    2    1    2    0    0  0.24880614858E+03 -0.16050731853E+03  0.33912277828E+03  0.45891845674E+03  0.89077451242E+02 0.  0.
         23    2    1    2    0    0 -0.87455443692E+02  0.13059715208E+03  0.12864871179E+03  0.22310345859E+03  0.92307049718E+02 0.  0.
        -13    1    3    3    0    0  0.35729174906E+02 -0.67924905144E+02  0.78636068770E+02  0.10988174548E+03  0.00000000000E+00 0.  1.
         14    1    3    3    0    0  0.21307697367E+03 -0.92582413382E+02  0.26048670951E+03  0.34903671126E+03  0.00000000000E+00 0. -1.
        -13    1    4    4    0    0 -0.49528652365E+02  0.14718620928E+02  0.93265926021E+01  0.52504385880E+02  0.00000000000E+00 0.  1.
         13    1    4    4    0    0 -0.37926791327E+02  0.11587853116E+03  0.11932211919E+03  0.17059907271E+03  0.00000000000E+00 0. -1.
         21    1    1    2  503  502 -0.19186526837E+02 -0.94316257979E+01 -0.18091414173E+02  0.28006742832E+02  0.00000000000E+00 0. -1.
          1    1    1    2  501    0 -0.14216417805E+03  0.39341792241E+02  0.10548510439E+03  0.18134369960E+03  0.00000000000E+00 0. -1.
<scales pt_clust_5="13000.00000" pt_clust_6="13000.00000" pt_clust_7="13000.00000" pt_clust_8="13000.00000" pt_clust_9="21.37939" pt_clust_10="13000.00000"></scales>
<clustering>
<clus scale="   21.379">  2  9  1 -1</clus>
<clus scale="   89.077">  5  6 -1 -1</clus>
<clus scale="   92.307">  7  8 -1 -1</clus>
<clus scale="  151.730">  7 10 -1 -1</clus>
<clus scale="  304.939">  1  5  2 -1</clus>
<clus scale="   21.379">  2  5  1 -1</clus>
</clustering>
</event>
<event>
10    4  0.2565852E-005  0.1994402E+03  0.7546771E-02  0.1154466E+00
         21   -1    0    0  503  502  0.00000000000E+00  0.00000000000E+00  0.54592025511E+02  0.54592025511E+02  0.00000000000E+00 0.  1.
          2   -1    0    0  502    0 -0.00000000000E+00 -0.00000000000E+00 -0.14020692142E+04  0.14020692142E+04  0.00000000000E+00 0. -1.
         24    2    1    2    0    0 -0.11546123536E+03 -0.12038826404E+03 -0.97505243131E+03  0.99239328607E+03  0.79325654378E+02 0.  0.
         23    2    1    2    0    0  0.63434687970E+02  0.69056472487E+02 -0.29664912260E+03  0.32374377817E+03  0.89535333455E+02 0.  0.
        -13    1    3    3    0    0 -0.83988448473E+02 -0.11254538007E+03 -0.61246975081E+03  0.62836272782E+03  0.00000000000E+00 0.  1.
         14    1    3    3    0    0 -0.31472786886E+02 -0.78428839728E+01 -0.36258268050E+03  0.36403055826E+03  0.00000000000E+00 0. -1.
        -11    1    4    4    0    0  0.43168328293E+02  0.89658045264E+02 -0.20957897588E+03  0.23200305338E+03  0.00000000000E+00 0. -1.
         11    1    4    4    0    0  0.20266359677E+02 -0.20601572776E+02 -0.87070146716E+02  0.91740724788E+02  0.00000000000E+00 0.  1.
         21    1    1    2  503  501  0.78206131077E+00  0.22942594589E+02  0.18531677656E+02  0.29502497236E+02  0.00000000000E+00 0. -1.
          1    1    1    2  501    0  0.51244486078E+02  0.28389196963E+02 -0.94307312410E+02  0.11102167821E+03  0.00000000000E+00 0. -1.
<scales pt_clust_5="13000.00000" pt_clust_6="13000.00000" pt_clust_7="13000.00000" pt_clust_8="13000.00000" pt_clust_9="22.95592" pt_clust_10="13000.00000"></scales>
<clustering>
<clus scale="   22.956">  1  9  2 -1</clus>
<clus scale="   79.326">  5  6 -1 -1</clus>
<clus scale="   89.535">  7  8 -1 -1</clus>
<clus scale="   62.043">  7 10 -1 -1</clus>
<clus scale="  180.394">  2  5  1 -1</clus>
<clus scale="   22.956">  1  5  2 -1</clus>
</clustering>
</event>
<event>
10    4  0.2565852E-005  0.2144756E+03  0.7546771E-02  0.1165341E+00
          4   -1    0    0  503    0 -0.00000000000E+00  0.00000000000E+00  0.48181519189E+03  0.48181519189E+03  0.00000000000E+00 0. -1.
         21   -1    0    0  501  502  0.00000000000E+00 -0.00000000000E+00 -0.70210728689E+02  0.70210728689E+02  0.00000000000E+00 0.  1.
         24    2    1    2    0    0 -0.59705377360E+02 -0.39749604043E+02  0.14165936778E+03  0.17805875781E+03  0.80577798720E+02 0.  0.
         23    2    1    2    0    0  0.16723205871E+01  0.30161003735E+02  0.28658225512E+02  0.99185876044E+02  0.90022560032E+02 0.  0.
        -13    1    3    3    0    0 -0.44217287576E+02 -0.63506635780E+02  0.86685652389E+02  0.11620096230E+03  0.00000000000E+00 0.  1.
         14    1    3    3    0    0 -0.15488089784E+02  0.23757031736E+02  0.54973715393E+02  0.61857795517E+02  0.00000000000E+00 0. -1.
        -13    1    4    4    0    0 -0.15748650290E+02  0.51062259890E+02 -0.74723926871E+01  0.53955639404E+02  0.00000000000E+00 0.  1.
         13    1    4    4    0    0  0.17420970877E+02 -0.20901256155E+02  0.36130618199E+02  0.45230236641E+02  0.00000000000E+00 0. -1.
         21    1    1    2  503  502 -0.43220364002E+01 -0.32297429812E+02  0.14112828735E+02  0.35510222556E+02  0.00000000000E+00 0.  1.
          3    1    1    2  501    0  0.62355093173E+02  0.41886030120E+02  0.22717404118E+03  0.23927106417E+03  0.00000000000E+00 0. -1.
<scales pt_clust_5="13000.00000" pt_clust_6="13000.00000" pt_clust_7="13000.00000" pt_clust_8="13000.00000" pt_clust_9="32.58533" pt_clust_10="13000.00000"></scales>
<clustering>
<clus scale="   32.585">  2  9  1 -1</clus>
<clus scale="   80.578">  5  6 -1 -1</clus>
<clus scale="   90.023">  7  8 -1 -1</clus>
<clus scale="   72.964">  7 10 -1 -1</clus>
<clus scale="  112.605">  1  5  2 -1</clus>
<clus scale="   32.585">  2  5  1 -1</clus>
</clustering>
</event>
<event>
10    4  0.2565852E-005  0.2107648E+03  0.7546771E-02  0.1160378E+00
         -3   -1    0    0    0  501 -0.00000000000E+00  0.00000000000E+00  0.31278201727E+03  0.31278201727E+03  0.00000000000E+00 0.  1.
         21   -1    0    0  503  502  0.00000000000E+00 -0.00000000000E+00 -0.35498554032E+03  0.35498554032E+03  0.00000000000E+00 0.  1.
         24    2    1    2    0    0 -0.10503553205E+03  0.25276180681E+02  0.16448841775E+03  0.21359027280E+03  0.83024193814E+02 0.  0.
         23    2    1    2    0    0  0.12022468307E+03  0.74446812427E+00 -0.15223151695E+02  0.15091730741E+03  0.89943096879E+02 0.  0.
        -11    1    3    3    0    0 -0.41213089926E+02 -0.77986536511E+01  0.98863898297E+01  0.43093833479E+02  0.00000000000E+00 0.  1.
         12    1    3    3    0    0 -0.63822442128E+02  0.33074834333E+02  0.15460202792E+03  0.17049643932E+03  0.00000000000E+00 0. -1.
        -13    1    4    4    0    0  0.12548806659E+02 -0.22908822495E+02 -0.29898618582E+02  0.39701562813E+02  0.00000000000E+00 0.  1.
         13    1    4    4    0    0  0.10767587641E+03  0.23653290619E+02  0.14675466886E+02  0.11121574460E+03  0.00000000000E+00 0. -1.
         21    1    1    2  503  501  0.11495640135E+02 -0.33339263812E+02 -0.24258505904E+03  0.24513499775E+03  0.00000000000E+00 0.  1.
         -4    1    1    2    0  502 -0.26684791150E+02  0.73186150062E+01  0.51116269933E+02  0.58124979623E+02  0.00000000000E+00 0.  1.
<scales pt_clust_5="13000.00000" pt_clust_6="13000.00000" pt_clust_7="13000.00000" pt_clust_8="13000.00000" pt_clust_9="35.26551" pt_clust_10="13000.00000"></scales>
<clustering>
<clus scale="   35.266">  2  9  1 -1</clus>
<clus scale="   83.024">  5  6 -1 -1</clus>
<clus scale="   89.943">  7  8 -1 -1</clus>
<clus scale="   27.058">  7 10 -1 -1</clus>
<clus scale="  133.113">  1  5  2 -1</clus>
<clus scale="   35.266">  2  5  1 -1</clus>
</clustering>
</event>
<event>
10    4  0.2565852E-005  0.3658363E+03  0.7546771E-02  0.1100400E+00
         21   -1    0    0  501  502  0.00000000000E+00  0.00000000000E+00  0.98812425694E+02  0.98812425694E+02  0.00000000000E+00 0.  1.
          2   -1    0    0  503    0 -0.00000000000E+00 -0.00000000000E+00 -0.11960362446E+04  0.11960362446E+04  0.00000000000E+00 0. -1.
         24    2    1    2    0    0 -0.78547390572E+02 -0.34228653648E+02 -0.54781302031E+03  0.56016746691E+03  0.79669269288E+02 0.  0.
         23    2    1    2    0    0 -0.10261763826E+03  0.72197890438E+02 -0.10546019956E+03  0.19028927437E+03  0.96670777309E+02 0.  0.
        -11    1    3    3    0    0 -0.13095289736E+01 -0.35916509073E+02 -0.11407242757E+03  0.11960028939E+03  0.00000000000E+00 0.  1.
         12    1    3    3    0    0 -0.77237861598E+02  0.16878554252E+01 -0.43374059274E+03  0.44056717752E+03  0.00000000000E+00 0. -1.
        -11    1    4    4    0    0  0.10738736386E+02  0.28136386500E+02 -0.12689464624E+01  0.30142775744E+02  0.00000000000E+00 0.  1.
         11    1    4    4    0    0 -0.11335637465E+03  0.44061503939E+02 -0.10419125310E+03  0.16014649863E+03  0.00000000000E+00 0. -1.
         21    1    1    2  503  502  0.67778375236E+02  0.46122248898E+02 -0.37040710377E+01  0.82066376400E+02  0.00000000000E+00 0.  1.
          1    1    1    2  501    0  0.11338665360E+03 -0.84091485689E+02 -0.44024652804E+03  0.46232555264E+03  0.00000000000E+00 0. -1.
<scales pt_clust_5="13000.00000" pt_clust_6="13000.00000" pt_clust_7="13000.00000" pt_clust_8="13000.00000" pt_clust_9="81.98274" pt_clust_10="13000.00000"></scales>
<clustering>
<clus scale="   79.669">  5  6 -1 -1</clus>
<clus scale="   81.983">  1  9  2 -1</clus>
<clus scale="   96.671">  7  8 -1 -1</clus>
<clus scale="  111.043">  2  5  1 -1</clus>
<clus scale="  121.991">  7 10 -1 -1</clus>
<clus scale="   81.983">  1  5  2 -1</clus>
</clustering>
</event>
<event>
10    4  0.2565852E-005  0.5796174E+03  0.7546771E-02  0.9956106E-01
          4   -1    0    0  503    0 -0.00000000000E+00  0.00000000000E+00  0.66075094371E+03  0.66075094371E+03  0.00000000000E+00 0. -1.
         21   -1    0    0  501  502  0.00000000000E+00 -0.00000000000E+00 -0.65416470436E+03  0.65416470436E+03  0.00000000000E+00 0. -1.
         24    2    1    2    0    0  0.43333091536E+03 -0.35593752989E+03  0.11572440622E+03  0.57815773337E+03  0.80043857181E+02 0.  0.
         23    2    1    2    0    0 -0.20037098539E+03  0.15014257938E+03  0.38331150621E+02  0.26910155420E+03  0.90857269580E+02 0.  0.
        -13    1    3    3    0    0  0.12695060409E+03 -0.60339937749E+02  0.22698796448E+02  0.14238187850E+03  0.00000000000E+00 0.  1.
         14    1    3    3    0    0  0.30638031128E+03 -0.29559759214E+03  0.93025609769E+02  0.43577585487E+03  0.00000000000E+00 0. -1.
        -11    1    4    4    0    0 -0.16680335368E+03  0.15537070800E+03  0.49638635352E+02  0.23329682772E+03  0.00000000000E+00 0.  1.
         11    1    4    4    0    0 -0.33567631709E+02 -0.52281286201E+01 -0.11307484731E+02  0.35804726481E+02  0.00000000000E+00 0. -1.
         21    1    1    2  503  502  0.40225902425E+02  0.53541671252E+02 -0.13957356086E+03  0.15480830946E+03  0.00000000000E+00 0.  1.
          3    1    1    2  501    0 -0.27318583240E+03  0.15225327925E+03 -0.78957566355E+01  0.31284805104E+03  0.00000000000E+00 0. -1.
<scales pt_clust_5="13000.00000" pt_clust_6="13000.00000" pt_clust_7="13000.00000" pt_clust_8="13000.00000" pt_clust_9="66.96890" pt_clust_10="13000.00000"></scales>
<clustering>
<clus scale="   66.969">  2  9  1 -1</clus>
<clus scale="   80.044">  5  6 -1 -1</clus>
<clus scale="   90.857">  7  8 -1 -1</clus>
<clus scale="  310.589">  7 10 -1 -1</clus>
<clus scale="  565.971">  1  5  2 -1</clus>
<clus scale="   66.969">  2  5  1 -1</clus>
</clustering>
</event>
<event>
10    4  0.2565852E-005  0.5896918E+03  0.7546771E-02  0.1010945E+00
          2   -1    0    0  502    0 -0.00000000000E+00  0.00000000000E+00  0.14923077028E+04  0.14923077028E+04  0.00000000000E+00 0. -1.
         21   -1    0    0  503  502  0.00000000000E+00 -0.00000000000E+00 -0.15139280882E+03  0.15139280882E+03  0.00000000000E+00 0. -1.
         24    2    1    2    0    0  0.27455398318E+03  0.16626998511E+03  0.39800018949E+03  0.51774198559E+03  0.81406481211E+02 0.  0.
         23    2    1    2    0    0 -0.15459344008E+02  0.79136151548E+02  0.13573490765E+02  0.12015312850E+03  0.88039836657E+02 0.  0.
        -13    1    3    3    0    0  0.11546539428E+03  0.56759792787E+02  0.22122754038E+03  0.25592099557E+03  0.00000000000E+00 0.  1.
         14    1    3    3    0    0  0.15908858890E+03  0.10951019232E+03  0.17677264912E+03  0.26182099002E+03  0.00000000000E+00 0. -1.
        -13    1    4    4    0    0 -0.51058654271E+02  0.59323341207E+02  0.44131146288E+01  0.78394646301E+02  0.00000000000E+00 0. -1.
         13    1    4    4    0    0  0.35599310263E+02  0.19812810341E+02  0.91603761362E+01  0.41758482202E+02  0.00000000000E+00 0.  1.
         21    1    1    2  503  501  0.14835783011E+02 -0.18372069036E+02  0.27077713999E+02  0.35928205822E+02  0.00000000000E+00 0.  1.
          1    1    1    2  501    0 -0.27393042218E+03 -0.22703406762E+03  0.90226349977E+03  0.96987719175E+03  0.00000000000E+00 0. -1.
<scales pt_clust_5="13000.00000" pt_clust_6="13000.00000" pt_clust_7="13000.00000" pt_clust_8="13000.00000" pt_clust_9="23.61426" pt_clust_10="13000.00000"></scales>
<clustering>
<clus scale="   23.614">  2  9  1 -1</clus>
<clus scale="   81.406">  5  6 -1 -1</clus>
<clus scale="   88.040">  7  8 -1 -1</clus>
<clus scale="  332.528">  1  5  2 -1</clus>
<clus scale="   84.852">  7 10 -1 -1</clus>
<clus scale="   23.614">  2  5  1 -1</clus>
</clustering>
</event>
<event>
10    4  0.2565852E-005  0.4155876E+03  0.7546771E-02  0.1041244E+00
          2   -1    0    0  503    0 -0.00000000000E+00  0.00000000000E+00  0.15698601112E+04  0.15698601112E+04  0.00000000000E+00 0. -1.
         21   -1    0    0  501  502  0.00000000000E+00 -0.00000000000E+00 -0.12412844279E+03  0.12412844279E+03  0.00000000000E+00 0. -1.
         24    2    1    2    0    0 -0.31109581959E+03  0.20661724436E+03  0.95365239198E+03  0.10270476610E+04  0.76829151734E+02 0.  0.
         23    2    1    2    0    0  0.12357174114E+03 -0.46630407879E+02  0.20405261154E+03  0.25930578572E+03  0.90319721445E+02 0.  0.
        -13    1    3    3    0    0 -0.63368981140E+02  0.13197067262E+02  0.20876131115E+03  0.21856595203E+03  0.00000000000E+00 0.  1.
         14    1    3    3    0    0 -0.24772683845E+03  0.19342017710E+03  0.74489108082E+03  0.80848170894E+03  0.00000000000E+00 0. -1.
        -13    1    4    4    0    0  0.81757850409E+01 -0.24358685520E+02  0.22722859577E+01  0.25794423908E+02  0.00000000000E+00 0.  1.
         13    1    4    4    0    0  0.11539595610E+03 -0.22271722359E+02  0.20178032558E+03  0.23351136181E+03  0.00000000000E+00 0. -1.
         21    1    1    2  503  502  0.72054462496E+01  0.25788279994E+02  0.46016024061E+02  0.53239349274E+02  0.00000000000E+00 0.  1.
          1    1    1    2  501    0  0.18031863220E+03 -0.18577511647E+03  0.24201064081E+03  0.35439575800E+03  0.00000000000E+00 0. -1.
<scales pt_clust_5="13000.00000" pt_clust_6="13000.00000" pt_clust_7="13000.00000" pt_clust_8="13000.00000" pt_clust_9="26.77601" pt_clust_10="13000.00000"></scales>
<clustering>
<clus scale="   26.776">  2  9  1 -1</clus>
<clus scale="   76.829">  5  6 -1 -1</clus>
<clus scale="   90.320">  7  8 -1 -1</clus>
<clus scale="  252.838">  7 10 -1 -1</clus>
<clus scale="  383.823">  1  5  2 -1</clus>
<clus scale="   26.776">  2  5  1 -1</clus>
</clustering>
</event>
<event>
10    4  0.2565852E-005  0.1351665E+03  0.7546771E-02  0.1236049E+00
         21   -1    0    0  501  502  0.00000000000E+00  0.00000000000E+00  0.10160134615E+03  0.10160134615E+03  0.00000000000E+00 0. -1.
          2   -1    0    0  503    0 -0.00000000000E+00 -0.00000000000E+00 -0.37388920569E+03  0.37388920569E+03  0.00000000000E+00 0. -1.
         24    2    1    2    0    0 -0.36788931539E+02 -0.10945236479E+02 -0.22748457707E+03  0.24648121160E+03  0.86778633196E+02 0.  0.
         23    2    1    2    0    0  0.62360650445E+02 -0.16853587294E+02  0.25941743839E+02  0.11542725999E+03  0.92073797288E+02 0.  0.
        -13    1    3    3    0    0 -0.27275944464E+01  0.33365147113E+02 -0.12869842417E+03  0.13298104075E+03  0.00000000000E+00 0.  1.
         14    1    3    3    0    0 -0.34061337093E+02 -0.44310383592E+02 -0.98786152898E+02  0.11350017085E+03  0.00000000000E+00 0. -1.
        -13    1    4    4    0    0  0.40852279667E+02 -0.51630670487E+02  0.33457584124E+02  0.73851505227E+02  0.00000000000E+00 0. -1.
         13    1    4    4    0    0  0.21508370778E+02  0.34777083193E+02 -0.75158402849E+01  0.41575754763E+02  0.00000000000E+00 0.  1.
         21    1    1    2  503  502 -0.51071285281E+02  0.33208537393E+02 -0.38281543864E+02  0.71948312952E+02  0.00000000000E+00 0. -1.
          1    1    1    2  501    0  0.25499566375E+02 -0.54097136200E+01 -0.32463482443E+02  0.41633767294E+02  0.00000000000E+00 0. -1.
<scales pt_clust_5="13000.00000" pt_clust_6="13000.00000" pt_clust_7="13000.00000" pt_clust_8="13000.00000" pt_clust_9="60.91866" pt_clust_10="13000.00000"></scales>
<clustering>
<clus scale="   60.919">  1  9  2 -1</clus>
<clus scale="   86.779">  5  6 -1 -1</clus>
<clus scale="   92.074">  7  8 -1 -1</clus>
<clus scale="   23.022">  7 10 -1 -1</clus>
<clus scale="   96.902">  2  5  1 -1</clus>
<clus scale="   60.919">  1  5  2 -1</clus>
</clustering>
</event>
<event>
10    4  0.2565852E-005  0.3935002E+03  0.7546771E-02  0.1098999E+00
         21   -1    0    0  503  502  0.00000000000E+00  0.00000000000E+00  0.16512387629E+03  0.16512387629E+03  0.00000000000E+00 0.  1.
         -3   -1    0    0    0  501 -0.00000000000E+00 -0.00000000000E+00 -0.41703227952E+03  0.41703227952E+03  0.00000000000E+00 0.  1.
         24    2    1    2    0    0  0.31365976036E+02  0.14158524702E+02 -0.10632759062E+03  0.14087697363E+03  0.85769906709E+02 0.  0.
         23    2    1    2    0    0 -0.19605226272E+03  0.67813182299E+02 -0.79457053108E+02  0.24017702529E+03  0.91304231986E+02 0.  0.
        -13    1    3    3    0    0  0.49905532993E+02 -0.18861991740E+02 -0.50818498763E+02  0.73680776138E+02  0.00000000000E+00 0.  1.
         14    1    3    3    0    0 -0.18539556957E+02  0.33020516442E+02 -0.55509091855E+02  0.67196197488E+02  0.00000000000E+00 0. -1.
        -13    1    4    4    0    0 -0.34536586210E+02  0.51256981136E+02 -0.38187250807E+02  0.72652047641E+02  0.00000000000E+00 0. -1.
         13    1    4    4    0    0 -0.16151567651E+03  0.16556201163E+02 -0.41269802301E+02  0.16752497765E+03  0.00000000000E+00 0.  1.
         21    1    1    2  503  501  0.10273404720E+02 -0.17352848845E+02  0.22429315886E+01  0.20290267363E+02  0.00000000000E+00 0.  1.
         -4    1    1    2    0  502  0.15441288196E+03 -0.64618858156E+02 -0.68366691094E+02  0.18081188953E+03  0.00000000000E+00 0.  1.
<scales pt_clust_5="13000.00000" pt_clust_6="13000.00000" pt_clust_7="13000.00000" pt_clust_8="13000.00000" pt_clust_9="20.16592" pt_clust_10="13000.00000"></scales>
<clustering>
<clus scale="   20.166">  1  9  2 -1</clus>
<clus scale="   85.770">  5  6 -1 -1</clus>
<clus scale="   91.304">  7  8 -1 -1</clus>
<clus scale="   92.537">  2  5  1 -1</clus>
<clus scale="  185.348">  7 10 -1 -1</clus>
<clus scale="   20.166">  1  5  2 -1</clus>
</clustering>
</event>
<event>
10    4  0.2565852E-005  0.2709019E+03  0.7546771E-02  0.1145871E+00
          2   -1    0    0  503    0 -0.00000000000E+00  0.00000000000E+00  0.34562016878E+03  0.34562016878E+03  0.00000000000E+00 0. -1.
         21   -1    0    0  501  502  0.00000000000E+00 -0.00000000000E+00 -0.14138376349E+03  0.14138376349E+03  0.00000000000E+00 0.  1.
         24    2    1    2    0    0 -0.30892460380E+02 -0.30558898577E+02  0.32023001886E+02  0.96524105697E+02  0.80020247065E+02 0.  0.
         23    2    1    2    0    0 -0.24305215764E+02 -0.51740902024E+02 -0.12435329090E+02  0.10658636937E+03  0.89096308960E+02 0.  0.
        -11    1    3    3    0    0 -0.56785937822E+02 -0.17648454386E+02  0.10316782980E+02  0.60353514294E+02  0.00000000000E+00 0.  1.
         12    1    3    3    0    0  0.25893477442E+02 -0.12910444191E+02  0.21706218906E+02  0.36170591403E+02  0.00000000000E+00 0. -1.
        -11    1    4    4    0    0 -0.19020140575E+02 -0.32168224880E+02 -0.50876490508E+02  0.63126679984E+02  0.00000000000E+00 0.  1.
         11    1    4    4    0    0 -0.52850751887E+01 -0.19572677144E+02  0.38441161418E+02  0.43459689385E+02  0.00000000000E+00 0. -1.
         21    1    1    2  503  502  0.46956704514E+02 -0.94970984823E+01 -0.25608791949E+02  0.54322529428E+02  0.00000000000E+00 0.  1.
          1    1    1    2  501    0  0.82409716306E+01  0.91796899084E+02  0.21025752444E+03  0.22957092777E+03  0.00000000000E+00 0. -1.
<scales pt_clust_5="13000.00000" pt_clust_6="13000.00000" pt_clust_7="13000.00000" pt_clust_8="13000.00000" pt_clust_9="47.90748" pt_clust_10="13000.00000"></scales>
<clustering>
<clus scale="   47.907">  2  9  1 -1</clus>
<clus scale="   80.020">  5  6 -1 -1</clus>
<clus scale="   88.236">  1  5  2 -1</clus>
<clus scale="   89.096">  7  8 -1 -1</clus>
<clus scale="   64.502">  7 10 -1 -1</clus>
<clus scale="   47.907">  2  5  1 -1</clus>
</clustering>
</event>
<event>
10    4  0.2565852E-005  0.2271038E+03  0.7546771E-02  0.1148205E+00
         -1   -1    0    0    0  501 -0.00000000000E+00  0.00000000000E+00  0.31284640451E+03  0.31284640451E+03  0.00000000000E+00 0.  1.
         21   -1    0    0  501  502  0.00000000000E+00 -0.00000000000E+00 -0.17616056576E+03  0.17616056576E+03  0.00000000000E+00 0.  1.
         24    2    1    2    0    0 -0.37635556420E+02 -0.98261365502E+02 -0.12039393412E+02  0.13854456591E+03  0.89319195546E+02 0.  0.
         23    2    1    2    0    0 -0.56778201381E+02  0.69287416194E+02  0.16133513808E+03  0.20596816377E+03  0.91484138034E+02 0.  0.
        -13    1    3    3    0    0 -0.57150198731E+02 -0.62261052773E+02 -0.35140740060E+02  0.91528441041E+02  0.00000000000E+00 0.  1.
         14    1    3    3    0    0  0.19514642311E+02 -0.36000312729E+02  0.23101346648E+02  0.47016124872E+02  0.00000000000E+00 0. -1.
        -13    1    4    4    0    0 -0.14690202967E+02 -0.18744381899E+02  0.98375984951E+01  0.25766883012E+02  0.00000000000E+00 0. -1.
         13    1    4    4    0    0 -0.42087998415E+02  0.88031798093E+02  0.15149753958E+03  0.18020128076E+03  0.00000000000E+00 0.  1.
         21    1    1    2  503  502  0.17159853173E+02 -0.13959909310E+02 -0.45177265908E+02  0.50302335769E+02  0.00000000000E+00 0.  1.
         -2    1    1    2    0  503  0.77253904629E+02  0.42933858618E+02  0.32567359993E+02  0.94191904817E+02  0.00000000000E+00 0.  1.
<scales pt_clust_5="13000.00000" pt_clust_6="13000.00000" pt_clust_7="13000.00000" pt_clust_8="13000.00000" pt_clust_9="22.12102" pt_clust_10="13000.00000"></scales>
<clustering>
<clus scale="   22.121">  2  9  1 -1</clus>
<clus scale="   89.319">  5  6 -1 -1</clus>
<clus scale="   91.484">  7  8 -1 -1</clus>
<clus scale="   90.489">  7 10 -1 -1</clus>
<clus scale="  141.665">  1  5  2 -1</clus>
<clus scale="   22.121">  2  5  1 -1</clus>
</clustering>
</event>
<event>
10    4  0.2565852E-005  0.3962481E+03  0.7546771E-02  0.1090997E+00
         21   -1    0    0  503  502  0.00000000000E+00  0.00000000000E+00  0.25175015718E+03  0.25175015718E+03  0.00000000000E+00 0.  1.
          2   -1    0    0  502    0 -0.00000000000E+00 -0.00000000000E+00 -0.38673776647E+03  0.38673776647E+03  0.00000000000E+00 0. -1.
         24    2    1    2    0    0 -0.10001223139E+03 -0.30533167248E+02  0.41358799932E+01  0.13112169199E+03  0.79000454913E+02 0.  0.
         23    2    1    2    0    0 -0.27616282422E+02  0.26453211270E+02  0.10463515998E+03  0.14310895208E+03  0.89828859627E+02 0.  0.
        -13    1    3    3    0    0 -0.29867286728E+02 -0.47081932570E+02 -0.12535300642E+02  0.57148026679E+02  0.00000000000E+00 0.  1.
         14    1    3    3    0    0 -0.70144944664E+02  0.16548765322E+02  0.16671180636E+02  0.73973665310E+02  0.00000000000E+00 0. -1.
        -11    1    4    4    0    0 -0.58496823667E+02  0.57200171940E+01  0.76496880833E+02  0.96469527588E+02  0.00000000000E+00 0.  1.
         11    1    4    4    0    0  0.30880541245E+02  0.20733194076E+02  0.28138279144E+02  0.46639424496E+02  0.00000000000E+00 0. -1.
         21    1    1    2  503  501  0.65333143678E+02  0.43816416302E+02  0.27330818771E+02  0.83278278411E+02  0.00000000000E+00 0.  1.
          1    1    1    2  501    0  0.62295370137E+02 -0.39736460324E+02 -0.27108946803E+03  0.28097900117E+03  0.00000000000E+00 0. -1.
<scales pt_clust_5="13000.00000" pt_clust_6="13000.00000" pt_clust_7="13000.00000" pt_clust_8="13000.00000" pt_clust_9="78.66574" pt_clust_10="13000.00000"></scales>
<clustering>
<clus scale="   78.666">  1  9  2 -1</clus>
<clus scale="   79.000">  5  6 -1 -1</clus>
<clus scale="   89.829">  7  8 -1 -1</clus>
<clus scale="   74.705">  7 10 -1 -1</clus>
<clus scale="  111.755">  2  5  1 -1</clus>
<clus scale="   78.666">  1  5  2 -1</clus>
</clustering>
</event>
<event>
10    4  0.2565852E-005  0.2330142E+03  0.7546771E-02  0.1155498E+00
          2   -1    0    0  502    0 -0.00000000000E+00  0.00000000000E+00  0.24230521366E+04  0.24230521366E+04  0.00000000000E+00 0. -1.
         21   -1    0    0  503  502  0.00000000000E+00 -0.00000000000E+00 -0.24945549776E+02  0.24945549776E+02  0.00000000000E+00 0. -1.
         24    2    1    2    0    0 -0.49210600826E+02 -0.72495559889E+02  0.13861805242E+04  0.13911440062E+04  0.78153124712E+02 0.  0.
         23    2    1    2    0    0 -0.11373408722E+02 -0.81761793137E+02  0.47237100252E+03  0.48763693820E+03  0.88549840382E+02 0.  0.
        -11    1    3    3    0    0 -0.19976678574E+02 -0.20262679962E+02  0.11198894237E+03  0.11554725050E+03  0.00000000000E+00 0.  1.
         12    1    3    3    0    0 -0.29233922252E+02 -0.52232879927E+02  0.12741915818E+04  0.12755967557E+04  0.00000000000E+00 0. -1.
        -13    1    4    4    0    0 -0.31753584216E+02 -0.13775792587E+02  0.60553204909E+02  0.69747782737E+02  0.00000000000E+00 0.  1.
         13    1    4    4    0    0  0.20380175494E+02 -0.67986000549E+02  0.41181779761E+03  0.41788915546E+03  0.00000000000E+00 0. -1.
         21    1    1    2  503  501  0.18278286791E+02  0.62888437249E+02  0.11000792162E+03  0.12802653680E+03  0.00000000000E+00 0.  1.
          1    1    1    2  501    0  0.42305722757E+02  0.91368915776E+02  0.42954713844E+03  0.44119020511E+03  0.00000000000E+00 0. -1.
<scales pt_clust_5="13000.00000" pt_clust_6="13000.00000" pt_clust_7="13000.00000" pt_clust_8="13000.00000" pt_clust_9="65.49085" pt_clust_10="13000.00000"></scales>
<clustering>
<clus scale="   65.491">  2  9  1 -1</clus>
<clus scale="   78.153">  5  6 -1 -1</clus>
<clus scale="   88.550">  7  8 -1 -1</clus>
<clus scale="  110.404">  1  5  2 -1</clus>
<clus scale="   79.367">  7 10 -1 -1</clus>
<clus scale="   65.491">  2  5  1 -1</clus>
</clustering>
</event>
<event>
10    4  0.2565852E-005  0.1809008E+03  0.7546771E-02  0.1201787E+00
          2   -1    0    0  503    0 -0.00000000000E+00  0.00000000000E+00  0.25170407928E+03  0.25170407928E+03  0.00000000000E+00 0. -1.
         21   -1    0    0  501  502  0.00000000000E+00 -0.00000000000E+00 -0.11650070787E+03  0.11650070787E+03  0.00000000000E+00 0. -1.
         24    2    1    2    0    0  0.18464511073E+02 -0.19934351073E+02  0.10261056227E+03  0.13298142819E+03  0.80105032507E+02 0.  0.
         23    2    1    2    0    0  0.18737011936E+02 -0.36657512170E+02 -0.39269906747E+02  0.10694097915E+03  0.90550530815E+02 0.  0.
        -13    1    3    3    0    0  0.36552701957E+02  0.81025532475E+01  0.17038534512E+02  0.41134693967E+02  0.00000000000E+00 0.  1.
         14    1    3    3    0    0 -0.18088190884E+02 -0.28036904320E+02  0.85572027759E+02  0.91846734227E+02  0.00000000000E+00 0. -1.
        -11    1    4    4    0    0 -0.29555330790E+02  0.50096030431E+01  0.34476983429E+01  0.30174497918E+02  0.00000000000E+00 0.  1.
         11    1    4    4    0    0  0.48292342725E+02 -0.41667115213E+02 -0.42717605090E+02  0.76766481232E+02  0.00000000000E+00 0. -1.
         21    1    1    2  503  502  0.15768723049E+01  0.49733556579E+02  0.41248663786E+01  0.49929226901E+02  0.00000000000E+00 0. -1.
          1    1    1    2  501    0 -0.38778395313E+02  0.68583066630E+01  0.67737849507E+02  0.78353152899E+02  0.00000000000E+00 0. -1.
<scales pt_clust_5="13000.00000" pt_clust_6="13000.00000" pt_clust_7="13000.00000" pt_clust_8="13000.00000" pt_clust_9="49.75855" pt_clust_10="13000.00000"></scales>
<clustering>
<clus scale="   49.759">  2  9  1 -1</clus>
<clus scale="   80.105">  5  6 -1 -1</clus>
<clus scale="   83.115">  1  5  2 -1</clus>
<clus scale="   90.551">  7  8 -1 -1</clus>
<clus scale="   28.090">  7 10 -1 -1</clus>
<clus scale="   49.759">  2  5  1 -1</clus>
</clustering>
</event>
<event>
10    4  0.2565852E-005  0.1409028E+03  0.7546771E-02  0.1231124E+00
         -3   -1    0    0    0  501 -0.00000000000E+00  0.00000000000E+00  0.21342429693E+03  0.21342429693E+03  0.00000000000E+00 0.  1.
         21   -1    0    0  501  502  0.00000000000E+00 -0.00000000000E+00 -0.11950002089E+03  0.11950002089E+03  0.00000000000E+00 0.  1.
         24    2    1    2    0    0 -0.13443034985E+02  0.45727211349E+02  0.11028426777E+03  0.14493248697E+03  0.81062401984E+02 0.  0.
         23    2    1    2    0    0  0.21475281432E+02 -0.28358577621E+02  0.29095324840E+02  0.10200713993E+03  0.91068776385E+02 0.  0.
        -11    1    3    3    0    0  0.15204827644E+02  0.43430891338E+02  0.10640940614E+03  0.11593269954E+03  0.00000000000E+00 0.  1.
         12    1    3    3    0    0 -0.28647862629E+02  0.22963200111E+01  0.38748616275E+01  0.28999787438E+02  0.00000000000E+00 0. -1.
        -11    1    4    4    0    0 -0.33783469112E+02 -0.88007694896E+01 -0.32422667282E+01  0.35061212505E+02  0.00000000000E+00 0.  1.
         11    1    4    4    0    0  0.55258750543E+02 -0.19557808131E+02  0.32337591568E+02  0.66945927426E+02  0.00000000000E+00 0. -1.
         21    1    1    2  503  502  0.22714919071E+02  0.11004610669E+02 -0.34479873842E+02  0.42730910411E+02  0.00000000000E+00 0.  1.
         -4    1    1    2    0  503 -0.30747165517E+02 -0.28373244397E+02 -0.10975442730E+02  0.43253780507E+02  0.00000000000E+00 0.  1.
<scales pt_clust_5="13000.00000" pt_clust_6="13000.00000" pt_clust_7="13000.00000" pt_clust_8="13000.00000" pt_clust_9="25.24023" pt_clust_10="13000.00000"></scales>
<clustering>
<clus scale="   25.240">  2  9  1 -1</clus>
<clus scale="   81.062">  5  6 -1 -1</clus>
<clus scale="   91.069">  7  8 -1 -1</clus>
<clus scale="   33.830">  7 10 -1 -1</clus>
<clus scale="   94.640">  1  5  2 -1</clus>
<clus scale="   25.240">  2  5  1 -1</clus>
</clustering>
</event>
<event>
10    4  0.2565852E-005  0.2232922E+03  0.7546771E-02  0.1148799E+00
          2   -1    0    0  502    0 -0.00000000000E+00  0.00000000000E+00  0.84976965392E+03  0.84976965392E+03  0.00000000000E+00 0. -1.
         21   -1    0    0  503  502  0.00000000000E+00 -0.00000000000E+00 -0.69069851627E+02  0.69069851627E+02  0.00000000000E+00 0.  1.
         24    2    1    2    0    0 -0.11240242113E+03  0.38883441523E+02  0.17357305363E+03  0.23232631794E+03  0.98497140865E+02 0.  0.
         23    2    1    2    0    0  0.90343823627E+01 -0.48077366983E+02  0.15945099157E+03  0.19017419258E+03  0.91370408386E+02 0.  0.
        -11    1    3    3    0    0 -0.93188089924E+02 -0.17481496693E+02  0.10985479834E+03  0.14511271326E+03  0.00000000000E+00 0.  1.
         12    1    3    3    0    0 -0.19214331201E+02  0.56364938216E+02  0.63718255291E+02  0.87213604678E+02  0.00000000000E+00 0. -1.
        -11    1    4    4    0    0  0.76061819931E+01 -0.73532385797E+02  0.13921196286E+03  0.15762244881E+03  0.00000000000E+00 0. -1.
         11    1    4    4    0    0  0.14282003696E+01  0.25455018814E+02  0.20239028711E+02  0.32551743767E+02  0.00000000000E+00 0.  1.
         21    1    1    2  503  501  0.21254145677E+02  0.95375194704E+01 -0.14158787968E+02  0.27261222695E+02  0.00000000000E+00 0. -1.
          1    1    1    2  501    0  0.82113893086E+02 -0.34359401035E+00  0.46183454505E+03  0.46907777234E+03  0.00000000000E+00 0. -1.
<scales pt_clust_5="13000.00000" pt_clust_6="13000.00000" pt_clust_7="13000.00000" pt_clust_8="13000.00000" pt_clust_9="23.29599" pt_clust_10="13000.00000"></scales>
<clustering>
<clus scale="   23.296">  2  9  1 -1</clus>
<clus scale="   91.370">  7  8 -1 -1</clus>
<clus scale="   83.706">  7 10 -1 -1</clus>
<clus scale="   98.497">  5  6 -1 -1</clus>
<clus scale="  146.957">  1  5  2 -1</clus>
<clus scale="   23.296">  2  5  1 -1</clus>
</clustering>
</event>
<event>
10    4  0.2565852E-005  0.1024750E+04  0.7546771E-02  0.9680045E-01
          2   -1    0    0  502    0 -0.00000000000E+00  0.00000000000E+00  0.15480462660E+04  0.15480462660E+04  0.00000000000E+00 0. -1.
         21   -1    0    0  503  502  0.00000000000E+00 -0.00000000000E+00 -0.34183345144E+03  0.34183345144E+03  0.00000000000E+00 0. -1.
         24    2    1    2    0    0  0.13552319845E+03 -0.19202754448E+03  0.50336230735E+03  0.56188373072E+03  0.84253185292E+02 0.  0.
         23    2    1    2    0    0 -0.27327625265E+03 -0.17504873323E+03  0.77737539619E+03  0.84717718552E+03  0.89859377868E+02 0.  0.
        -11    1    3    3    0    0 -0.11324109981E+02 -0.23888341469E+02  0.52174098337E+02  0.58489527800E+02  0.00000000000E+00 0.  1.
         12    1    3    3    0    0  0.14684730843E+03 -0.16813920301E+03  0.45118820902E+03  0.50339420292E+03  0.00000000000E+00 0. -1.
        -11    1    4    4    0    0 -0.61509455906E+02 -0.39381086866E+02  0.94313024860E+02  0.11928633546E+03  0.00000000000E+00 0.  1.
         11    1    4    4    0    0 -0.21176679674E+03 -0.13566764637E+03  0.68306237133E+03  0.72789085006E+03  0.00000000000E+00 0. -1.
         21    1    1    2  503  501  0.57585813812E+01 -0.36037347666E+02 -0.41644990510E+02  0.55372889765E+02  0.00000000000E+00 0.  1.
          1    1    1    2  501    0  0.13199447282E+03  0.40311362538E+03 -0.32879898495E+02  0.42544591142E+03  0.00000000000E+00 0. -1.
<scales pt_clust_5="13000.00000" pt_clust_6="13000.00000" pt_clust_7="13000.00000" pt_clust_8="13000.00000" pt_clust_9="36.49454" pt_clust_10="13000.00000"></scales>
<clustering>
<clus scale="   36.495">  2  9  1 -1</clus>
<clus scale="   84.253">  5  6 -1 -1</clus>
<clus scale="   89.859">  7  8 -1 -1</clus>
<clus scale="  252.763">  1  5  2 -1</clus>
<clus scale="  376.068">  7 10 -1 -1</clus>
<clus scale="   36.495">  2  5  1 -1</clus>
</clustering>
</event>
<event>
10    4  0.2565852E-005  0.1212852E+03  0.7546771E-02  0.1261942E+00
         21   -1    0    0  503  502  0.00000000000E+00  0.00000000000E+00  0.62244661229E+02  0.62244661229E+02  0.00000000000E+00 0.  1.
          2   -1    0    0  502    0 -0.00000000000E+00 -0.00000000000E+00 -0.50771348958E+03  0.50771348958E+03  0.00000000000E+00 0. -1.
         24    2    1    2    0    0 -0.48787342016E+01  0.88449335418E+01 -0.24100406548E+03  0.25397785992E+03  0.79496910978E+02 0.  0.
         23    2    1    2    0    0  0.44365073387E+01  0.11655322959E+02 -0.12522365378E+03  0.15403954556E+03  0.88835178725E+02 0.  0.
        -11    1    3    3    0    0  0.97469364591E+01  0.42176298364E+02 -0.11742641646E+03  0.12515113342E+03  0.00000000000E+00 0.  1.
         12    1    3    3    0    0 -0.14625670661E+02 -0.33331364822E+02 -0.12357764902E+03  0.12882672650E+03  0.00000000000E+00 0. -1.
        -13    1    4    4    0    0  0.27824390096E+02 -0.27856462244E+02 -0.34458102044E+02  0.52321505802E+02  0.00000000000E+00 0.  1.
         13    1    4    4    0    0 -0.23387882757E+02  0.39511785203E+02 -0.90765551740E+02  0.10171803976E+03  0.00000000000E+00 0. -1.
         21    1    1    2  503  501  0.13486650086E+01 -0.57135170361E+02  0.16450955167E+02  0.59471678263E+02  0.00000000000E+00 0.  1.
          1    1    1    2  501    0 -0.90643814569E+00  0.36634913860E+02 -0.95692064251E+02  0.10246906706E+03  0.00000000000E+00 0. -1.
<scales pt_clust_5="13000.00000" pt_clust_6="13000.00000" pt_clust_7="13000.00000" pt_clust_8="13000.00000" pt_clust_9="57.15109" pt_clust_10="13000.00000"></scales>
<clustering>
<clus scale="   57.151">  1  9  2 -1</clus>
<clus scale="   79.497">  5  6 -1 -1</clus>
<clus scale="   79.883">  2  5  1 -1</clus>
<clus scale="   88.835">  7  8 -1 -1</clus>
<clus scale="   26.977">  7 10 -1 -1</clus>
<clus scale="   57.151">  1  5  2 -1</clus>
</clustering>
</event>
<event>
10    4  0.2565852E-005  0.2459065E+03  0.7546771E-02  0.1156895E+00
         21   -1    0    0  501  502  0.00000000000E+00  0.00000000000E+00  0.11346699968E+03  0.11346699968E+03  0.00000000000E+00 0.  1.
          4   -1    0    0  503    0 -0.00000000000E+00 -0.00000000000E+00 -0.31558876614E+03  0.31558876614E+03  0.00000000000E+00 0. -1.
         24    2    1    2    0    0 -0.73235339234E+00  0.47824782897E+02 -0.91213258860E+02  0.13029789732E+03  0.79811886672E+02 0.  0.
         23    2    1    2    0    0  0.44133650020E+02  0.88572521678E+01  0.33116213640E+02  0.10700379575E+03  0.91251842278E+02 0.  0.
        -13    1    3    3    0    0  0.12224137545E+02  0.66234239020E+02 -0.81634844319E+02  0.10583313169E+03  0.00000000000E+00 0.  1.
         14    1    3    3    0    0 -0.12956490937E+02 -0.18409456123E+02 -0.95784145415E+01  0.24464765629E+02  0.00000000000E+00 0. -1.
        -13    1    4    4    0    0  0.65337470009E+02  0.27544840895E+02  0.34192113221E+02  0.78719780574E+02  0.00000000000E+00 0.  1.
         13    1    4    4    0    0 -0.21203819989E+02 -0.18687588727E+02 -0.10758995812E+01  0.28284015176E+02  0.00000000000E+00 0. -1.
         21    1    1    2  503  502  0.21198744822E+02 -0.22346620571E+02 -0.66789718678E+00  0.30809159670E+02  0.00000000000E+00 0.  1.
          3    1    1    2  501    0 -0.64600041449E+02 -0.34335414494E+02 -0.14335682405E+03  0.16094491307E+03  0.00000000000E+00 0. -1.
<scales pt_clust_5="13000.00000" pt_clust_6="13000.00000" pt_clust_7="13000.00000" pt_clust_8="13000.00000" pt_clust_9="30.80192" pt_clust_10="13000.00000"></scales>
<clustering>
<clus scale="   30.802">  1  9  2 -1</clus>
<clus scale="   79.812">  5  6 -1 -1</clus>
<clus scale="   90.909">  2  5  1 -1</clus>
<clus scale="   91.252">  7  8 -1 -1</clus>
<clus scale="   60.341">  7 10 -1 -1</clus>
<clus scale="   30.802">  1  5  2 -1</clus>
</clustering>
</event>
<event>
10    4  0.2565852E-005  0.1623444E+03  0.7546771E-02  0.1199533E+00
         21   -1    0    0  501  502  0.00000000000E+00  0.00000000000E+00  0.32574042085E+03  0.32574042085E+03  0.00000000000E+00 0.  1.
          2   -1    0    0  503    0 -0.00000000000E+00 -0.00000000000E+00 -0.96439132453E+02  0.96439132453E+02  0.00000000000E+00 0. -1.
         24    2    1    2    0    0  0.77367117703E+01 -0.94142938238E+02  0.14019123395E+03  0.18701076027E+03  0.79979327653E+02 0.  0.
         23    2    1    2    0    0 -0.65650456281E+01  0.61587915482E+02  0.41111185735E+02  0.11797355581E+03  0.91604907733E+02 0.  0.
        -11    1    3    3    0    0 -0.24749447423E+02 -0.93911322623E+00  0.23095678939E+02  0.33864841164E+02  0.00000000000E+00 0.  1.
         12    1    3    3    0    0  0.32486159194E+02 -0.93203825012E+02  0.11709555501E+03  0.15314591911E+03  0.00000000000E+00 0. -1.
        -11    1    4    4    0    0 -0.10440487996E+02  0.81238595459E+02  0.50106039913E+02  0.96017333943E+02  0.00000000000E+00 0. -1.
         11    1    4    4    0    0  0.38754423682E+01 -0.19650679977E+02 -0.89948541778E+01  0.21956221869E+02  0.00000000000E+00 0.  1.
         21    1    1    2  503  502 -0.48652410261E+02  0.10408759858E+02  0.40736124882E+02  0.64302652950E+02  0.00000000000E+00 0.  1.
          1    1    1    2  501    0  0.47480744119E+02  0.22146262898E+02  0.72627438242E+01  0.52892584265E+02  0.00000000000E+00 0. -1.
<scales pt_clust_5="13000.00000" pt_clust_6="13000.00000" pt_clust_7="13000.00000" pt_clust_8="13000.00000" pt_clust_9="49.75338" pt_clust_10="13000.00000"></scales>
<clustering>
<clus scale="   49.753">  1  9  2 -1</clus>
<clus scale="   79.979">  5  6 -1 -1</clus>
<clus scale="   91.605">  7  8 -1 -1</clus>
<clus scale="   48.135">  7 10 -1 -1</clus>
<clus scale="  120.759">  2  5  1 -1</clus>
<clus scale="   49.753">  1  5  2 -1</clus>
</clustering>
</event>
<event>
10    4  0.2565852E-005  0.9132041E+03  0.7546771E-02  0.9991961E-01
          2   -1    0    0  502    0 -0.00000000000E+00  0.00000000000E+00  0.76852616111E+03  0.76852616111E+03  0.00000000000E+00 0. -1.
         21   -1    0    0  503  502  0.00000000000E+00 -0.00000000000E+00 -0.46388765750E+03  0.46388765750E+03  0.00000000000E+00 0. -1.
         24    2    1    2    0    0 -0.30422083662E+02 -0.11868862273E+03  0.20654736826E+02  0.14798721112E+03  0.80380993789E+02 0.  0.
         23    2    1    2    0    0  0.30303756731E+03  0.19704371829E+03 -0.14796884429E+03  0.40111855592E+03  0.91341791641E+02 0.  0.
        -13    1    3    3    0    0 -0.35044636907E+02 -0.12289097453E+03  0.34867935248E+02  0.13246165900E+03  0.00000000000E+00 0.  1.
         14    1    3    3    0    0  0.46225532442E+01  0.42023518038E+01 -0.14213198422E+02  0.15525552118E+02  0.00000000000E+00 0. -1.
        -11    1    4    4    0    0  0.24790228839E+03  0.18901343318E+03 -0.14871828515E+03  0.34539651250E+03  0.00000000000E+00 0. -1.
         11    1    4    4    0    0  0.55135278923E+02  0.80302851071E+01  0.74944085261E+00  0.55722043416E+02  0.00000000000E+00 0.  1.
         21    1    1    2  503  501  0.16506203989E+02  0.13724259659E+03  0.26656855618E+02  0.14077845375E+03  0.00000000000E+00 0. -1.
          1    1    1    2  501    0 -0.28912168764E+03 -0.21559769215E+03  0.40529575546E+03  0.54252959783E+03  0.00000000000E+00 0. -1.
<scales pt_clust_5="13000.00000" pt_clust_6="13000.00000" pt_clust_7="13000.00000" pt_clust_8="13000.00000" pt_clust_9="138.23164" pt_clust_10="13000.00000"></scales>
<clustering>
<clus scale="   80.381">  5  6 -1 -1</clus>
<clus scale="   91.342">  7  8 -1 -1</clus>
<clus scale="  138.232">  2  9  1 -1</clus>
<clus scale="  129.175">  1  5  2 -1</clus>
<clus scale="  398.533">  7 10 -1 -1</clus>
<clus scale="  138.232">  2  5  1 -1</clus>
</clustering>
</event>
<event>
10    4  0.2565852E-005  0.3348694E+03  0.7546771E-02  0.1104033E+00
          2   -1    0    0  502    0 -0.00000000000E+00  0.00000000000E+00  0.49641704296E+03  0.49641704296E+03  0.00000000000E+00 0. -1.
         21   -1    0    0  503  502  0.00000000000E+00 -0.00000000000E+00 -0.10159662471E+04  0.10159662471E+04  0.00000000000E+00 0.  1.
         24    2    1    2    0    0 -0.69572491428E+02  0.78060286258E+02  0.36536895295E+03  0.38841806888E+03  0.80252006819E+02 0.  0.
         23    2    1    2    0    0 -0.35269894354E+02 -0.15370742692E+02  0.65148407628E+02  0.12008496860E+03  0.93251592422E+02 0.  0.
        -13    1    3    3    0    0 -0.63648804319E+02  0.19485749181E+02  0.13327350159E+03  0.14897211463E+03  0.00000000000E+00 0.  1.
         14    1    3    3    0    0 -0.59236871088E+01  0.58574537076E+02  0.23209545137E+03  0.23944595425E+03  0.00000000000E+00 0. -1.
        -11    1    4    4    0    0 -0.44630146560E+02  0.29845317353E+02  0.26516346784E+02  0.59880794890E+02  0.00000000000E+00 0. -1.
         11    1    4    4    0    0  0.93602522065E+01 -0.45216060045E+02  0.38632060845E+02  0.60204173713E+02  0.00000000000E+00 0.  1.
         21    1    1    2  503  501  0.19084947607E+03  0.78492664818E+01 -0.76019874508E+03  0.78382859448E+03  0.00000000000E+00 0.  1.
          1    1    1    2  501    0 -0.86007090286E+02 -0.70538810047E+02 -0.18986781967E+03  0.22005165814E+03  0.00000000000E+00 0. -1.
<scales pt_clust_5="13000.00000" pt_clust_6="13000.00000" pt_clust_7="13000.00000" pt_clust_8="13000.00000" pt_clust_9="184.62953" pt_clust_10="13000.00000"></scales>
<clustering>
<clus scale="   80.252">  5  6 -1 -1</clus>
<clus scale="   93.252">  7  8 -1 -1</clus>
<clus scale="  111.234">  7 10 -1 -1</clus>
<clus scale="  131.811">  1  5  2 -1</clus>
<clus scale="  184.630">  2  9  1 -1</clus>
<clus scale="  184.630">  2  5  1 -1</clus>
</clustering>
</event>
<event>
10    4  0.2565852E-005  0.8308320E+03  0.7546771E-02  0.9820539E-01
         21   -1    0    0  501  502  0.00000000000E+00  0.00000000000E+00  0.29542641372E+03  0.29542641372E+03  0.00000000000E+00 0. -1.
          2   -1    0    0  503    0 -0.00000000000E+00 -0.00000000000E+00 -0.25056635452E+04  0.25056635452E+04  0.00000000000E+00 0. -1.
         24    2    1    2    0    0 -0.16946668871E+03  0.22842934007E+03 -0.58156343121E+03  0.65325744950E+03  0.87351867870E+02 0.  0.
         23    2    1    2    0    0  0.18132058952E+03  0.27847799564E+03 -0.36020573079E+03  0.49928301489E+03  0.95436943682E+02 0.  0.
        -11    1    3    3    0    0 -0.36006105215E+02  0.52366376541E+02 -0.62507429078E+02  0.89139529361E+02  0.00000000000E+00 0.  1.
         12    1    3    3    0    0 -0.13346058349E+03  0.17606296353E+03 -0.51905600213E+03  0.56411792013E+03  0.00000000000E+00 0. -1.
        -13    1    4    4    0    0  0.86680049328E+02  0.73264964773E+02 -0.16727719514E+03  0.20214560601E+03  0.00000000000E+00 0.  1.
         13    1    4    4    0    0  0.94640540189E+02  0.20521303087E+03 -0.19292853565E+03  0.29713740888E+03  0.00000000000E+00 0. -1.
         21    1    1    2  503  502  0.32870749245E+03 -0.53325676537E+03 -0.47971622404E+03  0.78901143782E+03  0.00000000000E+00 0. -1.
          1    1    1    2  501    0 -0.34056139326E+03  0.26349429660E+02 -0.78875174541E+03  0.85953805669E+03  0.00000000000E+00 0. -1.
<scales pt_clust_5="13000.00000" pt_clust_6="13000.00000" pt_clust_7="13000.00000" pt_clust_8="13000.00000" pt_clust_9="531.28872" pt_clust_10="13000.00000"></scales>
<clustering>
<clus scale="   87.352">  5  6 -1 -1</clus>
<clus scale="   95.437">  7  8 -1 -1</clus>
<clus scale="  297.539">  2  5  1 -1</clus>
<clus scale="  433.268">  7 10 -1 -1</clus>
<clus scale="  531.289">  1  9  2 -1</clus>
<clus scale="  531.289">  1  5  2 -1</clus>
</clustering>
</event>
<event>
10    4  0.2565852E-005  0.2599084E+03  0.7546771E-02  0.1114147E+00
         21   -1    0    0  503  502  0.00000000000E+00  0.00000000000E+00  0.24159330187E+03  0.24159330187E+03  0.00000000000E+00 0.  1.
          2   -1    0    0  502    0 -0.00000000000E+00 -0.00000000000E+00 -0.75645370124E+03  0.75645370124E+03  0.00000000000E+00 0. -1.
         24    2    1    2    0    0  0.11184412650E+03 -0.22955557665E+03 -0.27024045575E+03  0.38042076532E+03  0.80530636154E+02 0.  0.
         23    2    1    2    0    0 -0.34771922160E+02  0.73274690618E+02 -0.21033371474E+03  0.25147087081E+03  0.11144083836E+03 0.  0.
        -11    1    3    3    0    0  0.11877716746E+03 -0.17688528824E+03 -0.23181149778E+03  0.31485392042E+03  0.00000000000E+00 0.  1.
         12    1    3    3    0    0 -0.69330409639E+01 -0.52670288417E+02 -0.38428957972E+02  0.65566844897E+02  0.00000000000E+00 0. -1.
        -13    1    4    4    0    0 -0.37489394866E+02 -0.18612408945E+02 -0.96265841728E+02  0.10497137123E+03  0.00000000000E+00 0.  1.
         13    1    4    4    0    0  0.27174727066E+01  0.91887099563E+02 -0.11406787301E+03  0.14649949958E+03  0.00000000000E+00 0. -1.
         21    1    1    2  503  501  0.88507968280E+01  0.10495742149E+03  0.13394830886E+03  0.17040113373E+03  0.00000000000E+00 0.  1.
          1    1    1    2  501    0 -0.85923001168E+02  0.51323464547E+02 -0.16823453774E+03  0.19575423324E+03  0.00000000000E+00 0. -1.
<scales pt_clust_5="13000.00000" pt_clust_6="13000.00000" pt_clust_7="13000.00000" pt_clust_8="13000.00000" pt_clust_9="105.32994" pt_clust_10="13000.00000"></scales>
<clustering>
<clus scale="   80.531">  5  6 -1 -1</clus>
<clus scale="  105.330">  1  9  2 -1</clus>
<clus scale="  111.441">  7  8 -1 -1</clus>
<clus scale="  108.182">  7 10 -1 -1</clus>
<clus scale="  217.792">  2  5  1 -1</clus>
<clus scale="  105.330">  1  5  2 -1</clus>
</clustering>
</event>
<event>
10    4  0.2565852E-005  0.1396148E+03  0.7546771E-02  0.1236331E+00
         21   -1    0    0  503  502  0.00000000000E+00  0.00000000000E+00  0.86696347417E+02  0.86696347417E+02  0.00000000000E+00 0. -1.
          4   -1    0    0  502    0 -0.00000000000E+00 -0.00000000000E+00 -0.38840741026E+03  0.38840741026E+03  0.00000000000E+00 0. -1.
         24    2    1    2    0    0 -0.91551819381E+01  0.75434651645E+01 -0.25375964708E+03  0.26831634913E+03  0.86365406873E+02 0.  0.
         23    2    1    2    0    0  0.35978544131E+02 -0.34741514074E+02 -0.54402103353E+02  0.11674721960E+03  0.90381945086E+02 0.  0.
        -13    1    3    3    0    0 -0.19802223404E+02 -0.35299092360E+02 -0.89470256515E+02  0.98199189274E+02  0.00000000000E+00 0.  1.
         14    1    3    3    0    0  0.10647041466E+02  0.42842557525E+02 -0.16428939056E+03  0.17011715986E+03  0.00000000000E+00 0. -1.
        -13    1    4    4    0    0 -0.21494134082E+02 -0.10190436429E+02 -0.48441310576E+02  0.53966687547E+02  0.00000000000E+00 0.  1.
         13    1    4    4    0    0  0.57472678213E+02 -0.24551077645E+02 -0.59607927776E+01  0.62780532054E+02  0.00000000000E+00 0. -1.
         21    1    1    2  503  501 -0.19914431737E+02 -0.10309807009E+02  0.35574779607E+02  0.42052843614E+02  0.00000000000E+00 0. -1.
          3    1    1    2  501    0 -0.69089304564E+01  0.37507855918E+02 -0.29124092016E+02  0.47987345326E+02  0.00000000000E+00 0. -1.
<scales pt_clust_5="13000.00000" pt_clust_6="13000.00000" pt_clust_7="13000.00000" pt_clust_8="13000.00000" pt_clust_9="22.42491" pt_clust_10="13000.00000"></scales>
<clustering>
<clus scale="   22.425">  1  9  2 -1</clus>
<clus scale="   86.365">  5  6 -1 -1</clus>
<clus scale="   87.425">  2  5  1 -1</clus>
<clus scale="   90.382">  7  8 -1 -1</clus>
<clus scale="   40.012">  7 10 -1 -1</clus>
<clus scale="   22.425">  1  5  2 -1</clus>
</clustering>
</event>
<event>
10    4  0.2565852E-005  0.5154164E+03  0.7546771E-02  0.1059845E+00
          2   -1    0    0  503    0 -0.00000000000E+00  0.00000000000E+00  0.86836128876E+03  0.86836128876E+03  0.00000000000E+00 0. -1.
         21   -1    0    0  501  502  0.00000000000E+00 -0.00000000000E+00 -0.40917973036E+03  0.40917973036E+03  0.00000000000E+00 0. -1.
         24    2    1    2    0    0  0.70934994751E+02  0.29252269952E+02  0.18487975714E+03  0.21954747596E+03  0.90183705964E+02 0.  0.
         23    2    1    2    0    0  0.33349489833E+02  0.16028828458E+03 -0.11910315768E+02  0.18722080112E+03  0.90029162532E+02 0.  0.
        -13    1    3    3    0    0  0.63147440238E+01  0.49903745464E+02  0.71494610251E+02  0.87417041235E+02  0.00000000000E+00 0.  1.
         14    1    3    3    0    0  0.64620250727E+02 -0.20651475511E+02  0.11338514689E+03  0.13213043472E+03  0.00000000000E+00 0. -1.
        -11    1    4    4    0    0 -0.30010778920E+02  0.55528521352E+02  0.63434564124E+01  0.63437394131E+02  0.00000000000E+00 0. -1.
         11    1    4    4    0    0  0.63360268752E+02  0.10475976323E+03 -0.18253772180E+02  0.12378340699E+03  0.00000000000E+00 0.  1.
         21    1    1    2  503  502 -0.95743809482E+02 -0.28406592158E+03 -0.20971684333E+03  0.36584351741E+03  0.00000000000E+00 0. -1.
          1    1    1    2  501    0 -0.85406751017E+01  0.94525367045E+02  0.49592896037E+03  0.50492922462E+03  0.00000000000E+00 0. -1.
<scales pt_clust_5="13000.00000" pt_clust_6="13000.00000" pt_clust_7="13000.00000" pt_clust_8="13000.00000" pt_clust_9="293.94197" pt_clust_10="13000.00000"></scales>
<clustering>
<clus scale="   90.029">  7  8 -1 -1</clus>
<clus scale="   90.184">  5  6 -1 -1</clus>
<clus scale="   94.910">  7 10 -1 -1</clus>
<clus scale="  118.408">  1  5  2 -1</clus>
<clus scale="  293.942">  2  9  1 -1</clus>
<clus scale="  293.942">  2  5  1 -1</clus>
</clustering>
</event>
<event>
10    4  0.2565852E-005  0.2143432E+03  0.7546771E-02  0.1151151E+00
         21   -1    0    0  501  502  0.00000000000E+00  0.00000000000E+00  0.33050366835E+03  0.33050366835E+03  0.00000000000E+00 0.  1.
          4   -1    0    0  503    0 -0.00000000000E+00 -0.00000000000E+00 -0.20694911011E+03  0.20694911011E+03  0.00000000000E+00 0. -1.
         24    2    1    2    0    0  0.12112357173E+03  0.88439941927E+02  0.42287578509E+02  0.17570635977E+03  0.81190779103E+02 0.  0.
         23    2    1    2    0    0 -0.47030297426E+02 -0.85996983336E+02  0.73107978087E+02  0.15296424103E+03  0.91901863725E+02 0.  0.
        -13    1    3    3    0    0  0.13047150456E+03  0.91072206483E+02  0.33483090635E+02  0.16259790175E+03  0.00000000000E+00 0.  1.
         14    1    3    3    0    0 -0.93479328303E+01 -0.26322645569E+01  0.88044878742E+01  0.13108458019E+02  0.00000000000E+00 0. -1.
        -11    1    4    4    0    0 -0.39899846026E+02 -0.58860037514E+02  0.94083029268E+02  0.11793268472E+03  0.00000000000E+00 0.  1.
         11    1    4    4    0    0 -0.71304514002E+01 -0.27136945822E+02 -0.20975051181E+02  0.35031556313E+02  0.00000000000E+00 0. -1.
         21    1    1    2  503  502 -0.11512130164E+03  0.59304854892E+02  0.27013649314E+02  0.13228649649E+03  0.00000000000E+00 0. -1.
          3    1    1    2  501    0  0.41028027337E+02 -0.61747813483E+02 -0.18854647671E+02  0.76495681159E+02  0.00000000000E+00 0. -1.
<scales pt_clust_5="13000.00000" pt_clust_6="13000.00000" pt_clust_7="13000.00000" pt_clust_8="13000.00000" pt_clust_9="129.49902" pt_clust_10="13000.00000"></scales>
<clustering>
<clus scale="   81.191">  5  6 -1 -1</clus>
<clus scale="   91.902">  7  8 -1 -1</clus>
<clus scale="   74.136">  7 10 -1 -1</clus>
<clus scale="  129.499">  1  9  2 -1</clus>
<clus scale="  157.134">  2  5  1 -1</clus>
<clus scale="  129.499">  1  5  2 -1</clus>
</clustering>
</event>
<event>
10    4  0.2565852E-005  0.2988304E+03  0.7546771E-02  0.1133938E+00
         21   -1    0    0  501  502  0.00000000000E+00  0.00000000000E+00  0.17513670998E+03  0.17513670998E+03  0.00000000000E+00 0.  1.
          2   -1    0    0  503    0 -0.00000000000E+00 -0.00000000000E+00 -0.60149990618E+03  0.60149990618E+03  0.00000000000E+00 0. -1.
         24    2    1    2    0    0 -0.35395246209E+02  0.72652923053E+01 -0.16631888086E+03  0.18800897661E+03  0.79873632864E+02 0.  0.
         23    2    1    2    0    0  0.97315725715E+02  0.10895061664E+03 -0.18146229259E+03  0.24815579446E+03  0.85511094901E+02 0.  0.
        -11    1    3    3    0    0 -0.58855771205E+02 -0.74630235657E+01 -0.12350665686E+03  0.13701676107E+03  0.00000000000E+00 0.  1.
         12    1    3    3    0    0  0.23460524996E+02  0.14728315871E+02 -0.42812224007E+02  0.50992215543E+02  0.00000000000E+00 0. -1.
        -13    1    4    4    0    0  0.82173002118E+02  0.32092396885E+02 -0.11805075052E+03  0.14737131306E+03  0.00000000000E+00 0.  1.
         13    1    4    4    0    0  0.15142723597E+02  0.76858219755E+02 -0.63411542069E+02  0.10078448139E+03  0.00000000000E+00 0. -1.
         21    1    1    2  503  502 -0.14193093118E+03 -0.16792426027E+03 -0.10198944939E+03  0.24237325389E+03  0.00000000000E+00 0.  1.
          1    1    1    2  501    0  0.80010451670E+02  0.51708351328E+02  0.23407426658E+02  0.98098591205E+02  0.00000000000E+00 0. -1.
<scales pt_clust_5="13000.00000" pt_clust_6="13000.00000" pt_clust_7="13000.00000" pt_clust_8="13000.00000" pt_clust_9="227.25472" pt_clust_10="13000.00000"></scales>
<clustering>
<clus scale="   79.874">  5  6 -1 -1</clus>
<clus scale="   85.511">  7  8 -1 -1</clus>
<clus scale="   87.666">  2  5  1 -1</clus>
<clus scale="   93.023">  7 10 -1 -1</clus>
<clus scale="  227.255">  1  9  2 -1</clus>
<clus scale="  227.255">  1  5  2 -1</clus>
</clustering>
</event>
<event>
10    4  0.2565852E-005  0.8721605E+03  0.7546771E-02  0.9860957E-01
          2   -1    0    0  502    0 -0.00000000000E+00  0.00000000000E+00  0.85407706569E+03  0.85407706569E+03  0.00000000000E+00 0. -1.
         21   -1    0    0  503  502  0.00000000000E+00 -0.00000000000E+00 -0.52252223112E+03  0.52252223112E+03  0.00000000000E+00 0. -1.
         24    2    1    2    0    0 -0.66667528672E+01  0.17353768554E+03 -0.19053935509E+03  0.26775720393E+03  0.72311136925E+02 0.  0.
         23    2    1    2    0    0  0.12225409705E+03  0.28353583103E+03  0.17454466209E+03  0.36593149113E+03  0.90007696445E+02 0.  0.
        -13    1    3    3    0    0 -0.21036140987E+02  0.59723473306E+02 -0.29041996060E+02  0.69662400378E+02  0.00000000000E+00 0.  1.
         14    1    3    3    0    0  0.14369388119E+02  0.11381421223E+03 -0.16149735903E+03  0.19809480355E+03  0.00000000000E+00 0. -1.
        -11    1    4    4    0    0  0.10977657006E+03  0.15510709926E+03  0.12632688121E+03  0.22818323447E+03  0.00000000000E+00 0.  1.
         11    1    4    4    0    0  0.12477526991E+02  0.12842873176E+03  0.48217780877E+02  0.13774825667E+03  0.00000000000E+00 0. -1.
         21    1    1    2  503  501  0.36133513046E+02  0.85301642063E+02  0.36872463456E+02  0.99707469454E+02  0.00000000000E+00 0. -1.
          1    1    1    2  501    0 -0.15172085723E+03 -0.54237515863E+03  0.31067706413E+03  0.64320313229E+03  0.00000000000E+00 0. -1.
<scales pt_clust_5="13000.00000" pt_clust_6="13000.00000" pt_clust_7="13000.00000" pt_clust_8="13000.00000" pt_clust_9="92.63914" pt_clust_10="13000.00000"></scales>
<clustering>
<clus scale="   72.311">  5  6 -1 -1</clus>
<clus scale="   90.008">  7  8 -1 -1</clus>
<clus scale="   92.639">  2  9  1 -1</clus>
<clus scale="  225.492">  1  5  2 -1</clus>
<clus scale="  412.390">  7 10 -1 -1</clus>
<clus scale="   92.639">  2  5  1 -1</clus>
</clustering>
</event>
<event>
10    4  0.2565852E-005  0.2216343E+03  0.7546771E-02  0.1161378E+00
          2   -1    0    0  503    0 -0.00000000000E+00  0.00000000000E+00  0.33168653121E+03  0.33168653121E+03  0.00000000000E+00 0. -1.
         21   -1    0    0  501  502  0.00000000000E+00 -0.00000000000E+00 -0.15921844747E+03  0.15921844747E+03  0.00000000000E+00 0.  1.
         24    2    1    2    0    0  0.20712030499E+02  0.84615362644E+02  0.14689156263E+03  0.18893760033E+03  0.80817930219E+02 0.  0.
         23    2    1    2    0    0 -0.28016786662E+02 -0.64862157147E+02 -0.28611695720E+02  0.11873444961E+03  0.91034063003E+02 0.  0.
        -13    1    3    3    0    0 -0.13783511406E+02  0.82901906645E+02  0.98400530400E+02  0.12940392457E+03  0.00000000000E+00 0.  1.
         14    1    3    3    0    0  0.34495541904E+02  0.17134559998E+01  0.48491032226E+02  0.59533675757E+02  0.00000000000E+00 0. -1.
        -13    1    4    4    0    0 -0.54788816415E+02 -0.48196448023E+02 -0.42313065243E+02  0.84351096593E+02  0.00000000000E+00 0.  1.
         13    1    4    4    0    0  0.26772029753E+02 -0.16665709124E+02  0.13701369523E+02  0.34383353014E+02  0.00000000000E+00 0. -1.
         21    1    1    2  503  502  0.24641410827E+02 -0.55233453333E+02 -0.45711114776E+02  0.75811869181E+02  0.00000000000E+00 0.  1.
          1    1    1    2  501    0 -0.17336654664E+02  0.35480247836E+02  0.99899331604E+02  0.10742105956E+03  0.00000000000E+00 0. -1.
<scales pt_clust_5="13000.00000" pt_clust_6="13000.00000" pt_clust_7="13000.00000" pt_clust_8="13000.00000" pt_clust_9="60.48085" pt_clust_10="13000.00000"></scales>
<clustering>
<clus scale="   60.481">  2  9  1 -1</clus>
<clus scale="   80.818">  5  6 -1 -1</clus>
<clus scale="   91.034">  7  8 -1 -1</clus>
<clus scale="   37.181">  7 10 -1 -1</clus>
<clus scale="  111.844">  1  5  2 -1</clus>
<clus scale="   60.481">  2  5  1 -1</clus>
</clustering>
</event>
<event>
10    4  0.4374348E-005  0.2571965E+03  0.7546771E-02  0.1143529E+00
          2   -1    0    0  503    0 -0.00000000000E+00  0.00000000000E+00  0.65155549432E+03  0.65155549432E+03  0.00000000000E+00 0. -1.
         21   -1    0    0  501  502  0.00000000000E+00 -0.00000000000E+00 -0.75752729409E+03  0.75752729409E+03  0.00000000000E+00 0.  1.
         24    2    1    2    0    0 -0.74015938751E+02 -0.10401605725E+03 -0.16616540769E+03  0.22505218467E+03  0.82096551431E+02 0.  0.
         23    2    1    2    0    0  0.35177428629E+02  0.46802425426E+02  0.58547448851E+03  0.59535397867E+03  0.90763785212E+02 0.  0.
        -11    1    3    3    0    0 -0.66474604283E+02 -0.11662893063E+03 -0.16065145977E+03  0.20935632782E+03  0.00000000000E+00 0.  1.
         12    1    3    3    0    0 -0.75413344685E+01  0.12612873379E+02 -0.55139479205E+01  0.15695856845E+02  0.00000000000E+00 0. -1.
        -11    1    4    4    0    0  0.15347452270E+02  0.73195717982E+02  0.38866576251E+03  0.39579569524E+03  0.00000000000E+00 0. -1.
         11    1    4    4    0    0  0.19829976359E+02 -0.26393292557E+02  0.19680872600E+03  0.19955828343E+03  0.00000000000E+00 0.  1.
         21    1    1    2  503  502  0.83336772204E+02  0.36619795502E+02 -0.53151127070E+03  0.53924971758E+03  0.00000000000E+00 0.  1.
          1    1    1    2  501    0 -0.44498262082E+02  0.20593836325E+02  0.62303901058E+01  0.49426907488E+02  0.00000000000E+00 0. -1.
<scales pt_clust_5="13000.00000" pt_clust_6="13000.00000" pt_clust_7="13000.00000" pt_clust_8="13000.00000" pt_clust_9="91.02762" pt_clust_10="13000.00000"></scales>
<clustering>
<clus scale="   82.097">  5  6 -1 -1</clus>
<clus scale="   90.764">  7  8 -1 -1</clus>
<clus scale="   49.033">  7 10 -1 -1</clus>
<clus scale="   91.028">  2  9  1 -1</clus>
<clus scale="  109.047">  1  5  2 -1</clus>
<clus scale="   91.028">  2  5  1 -1</clus>
</clustering>
</event>
<event>
10    4  0.2565852E-005  0.4201149E+03  0.7546771E-02  0.1091019E+00
         21   -1    0    0  501  502  0.00000000000E+00  0.00000000000E+00  0.24686790690E+03  0.24686790690E+03  0.00000000000E+00 0. -1.
          2   -1    0    0  503    0 -0.00000000000E+00 -0.00000000000E+00 -0.65478315606E+03  0.65478315606E+03  0.00000000000E+00 0. -1.
         24    2    1    2    0    0  0.32601297893E+02 -0.31280535560E+02 -0.39564092637E+03  0.40640699176E+03  0.81200885492E+02 0.  0.
         23    2    1    2    0    0  0.44972392457E+02 -0.12824585294E+03 -0.88030833449E+02  0.18649736478E+03  0.92532829589E+02 0.  0.
        -11    1    3    3    0    0 -0.68825593931E+00  0.24461757906E+02 -0.65048045022E+02  0.69498916950E+02  0.00000000000E+00 0.  1.
         12    1    3    3    0    0  0.33289553832E+02 -0.55742293466E+02 -0.33059288135E+03  0.33690807481E+03  0.00000000000E+00 0. -1.
        -13    1    4    4    0    0 -0.97019923723E+01 -0.98185448595E+02 -0.35242498224E+02  0.10476900617E+03  0.00000000000E+00 0. -1.
         13    1    4    4    0    0  0.54674384829E+02 -0.30060404348E+02 -0.52788335225E+02  0.81728358614E+02  0.00000000000E+00 0.  1.
         21    1    1    2  503  502  0.47972720258E+02 -0.40476608768E+02  0.94719716820E+01  0.63477996139E+02  0.00000000000E+00 0.  1.
          1    1    1    2  501    0 -0.12554641061E+03  0.20000299727E+03  0.66284538973E+02  0.24526871028E+03  0.00000000000E+00 0. -1.
<scales pt_clust_5="13000.00000" pt_clust_6="13000.00000" pt_clust_7="13000.00000" pt_clust_8="13000.00000" pt_clust_9="62.76733" pt_clust_10="13000.00000"></scales>
<clustering>
<clus scale="   62.767">  1  9  2 -1</clus>
<clus scale="   81.201">  5  6 -1 -1</clus>
<clus scale="   92.533">  7  8 -1 -1</clus>
<clus scale="   93.714">  2  5  1 -1</clus>
<clus scale="  177.948">  7 10 -1 -1</clus>
<clus scale="   62.767">  1  5  2 -1</clus>
</clustering>
</event>
<event>
10    4  0.2565852E-005  0.4810004E+03  0.7546771E-02  0.1044071E+00
          2   -1    0    0  503    0 -0.00000000000E+00  0.00000000000E+00  0.19286258431E+04  0.19286258431E+04  0.00000000000E+00 0. -1.
         21   -1    0    0  501  502  0.00000000000E+00 -0.00000000000E+00 -0.98086252040E+02  0.98086252040E+02  0.00000000000E+00 0. -1.
         24    2    1    2    0    0  0.18398410996E+02 -0.21090514143E+03  0.11768697405E+04  0.11984930698E+04  0.80893585349E+02 0.  0.
         23    2    1    2    0    0 -0.18201771599E+03  0.10852372922E+02  0.16217805012E+03  0.26086189999E+03  0.92189956035E+02 0.  0.
        -11    1    3    3    0    0 -0.28016683958E+02 -0.37422330392E+02  0.21893706363E+03  0.22387229222E+03  0.00000000000E+00 0.  1.
         12    1    3    3    0    0  0.46415094954E+02 -0.17348281103E+03  0.95793267682E+03  0.97462077758E+03  0.00000000000E+00 0. -1.
        -13    1    4    4    0    0 -0.76981521539E+02  0.16404811306E+02  0.15263715015E+02  0.80176389845E+02  0.00000000000E+00 0. -1.
         13    1    4    4    0    0 -0.10503619445E+03 -0.55524383838E+01  0.14691433511E+03  0.18068551014E+03  0.00000000000E+00 0.  1.
         21    1    1    2  503  502  0.16176746163E+02 -0.12152490170E+02  0.14572700693E+02  0.24934589213E+02  0.00000000000E+00 0.  1.
          1    1    1    2  501    0  0.14744255883E+03  0.21220525867E+03  0.47691909976E+03  0.54242253610E+03  0.00000000000E+00 0. -1.
<scales pt_clust_5="13000.00000" pt_clust_6="13000.00000" pt_clust_7="13000.00000" pt_clust_8="13000.00000" pt_clust_9="20.23290" pt_clust_10="13000.00000"></scales>
<clustering>
<clus scale="   20.233">  2  9  1 -1</clus>
<clus scale="   80.894">  5  6 -1 -1</clus>
<clus scale="   92.190">  7  8 -1 -1</clus>
<clus scale="  228.111">  1  5  2 -1</clus>
<clus scale="  176.916">  7 10 -1 -1</clus>
<clus scale="   20.233">  2  5  1 -1</clus>
</clustering>
</event>
<event>
10    4  0.2565852E-005  0.1613635E+03  0.7546771E-02  0.1209987E+00
          2   -1    0    0  502    0 -0.00000000000E+00  0.00000000000E+00  0.95610042564E+03  0.95610042564E+03  0.00000000000E+00 0. -1.
         21   -1    0    0  503  502  0.00000000000E+00 -0.00000000000E+00 -0.42092499155E+02  0.42092499155E+02  0.00000000000E+00 0.  1.
         24    2    1    2    0    0 -0.63017436465E+02 -0.67943092101E+02  0.11773551890E+03  0.17227185027E+03  0.85020450016E+02 0.  0.
         23    2    1    2    0    0  0.11907329712E-01 -0.21911139119E+02  0.16323740361E+03  0.18119253251E+03  0.75526059993E+02 0.  0.
        -13    1    3    3    0    0 -0.54975244455E+02  0.11788472682E+01  0.40379334802E+02  0.68221388602E+02  0.00000000000E+00 0.  1.
         14    1    3    3    0    0 -0.80421920106E+01 -0.69121939369E+02  0.77356184100E+02  0.10405046167E+03  0.00000000000E+00 0. -1.
        -13    1    4    4    0    0 -0.33410923744E+02  0.60082286070E-02  0.10773557119E+03  0.11279735440E+03  0.00000000000E+00 0.  1.
         13    1    4    4    0    0  0.33422831074E+02 -0.21917147347E+02  0.55501832427E+02  0.68395178102E+02  0.00000000000E+00 0. -1.
         21    1    1    2  503  501  0.48708019648E+02  0.38563650651E+02  0.23199841345E+03  0.24017262578E+03  0.00000000000E+00 0.  1.
          1    1    1    2  501    0  0.14297509488E+02  0.51290580568E+02  0.40103659052E+03  0.40455591624E+03  0.00000000000E+00 0. -1.
<scales pt_clust_5="13000.00000" pt_clust_6="13000.00000" pt_clust_7="13000.00000" pt_clust_8="13000.00000" pt_clust_9="62.12592" pt_clust_10="13000.00000"></scales>
<clustering>
<clus scale="   62.126">  2  9  1 -1</clus>
<clus scale="   75.526">  7  8 -1 -1</clus>
<clus scale="   55.597">  7 10 -1 -1</clus>
<clus scale="   85.020">  5  6 -1 -1</clus>
<clus scale="   98.176">  1  5  2 -1</clus>
<clus scale="   62.126">  2  5  1 -1</clus>
</clustering>
</event>
<event>
10    4  0.2565852E-005  0.7033928E+03  0.7546771E-02  0.9882159E-01
          2   -1    0    0  502    0 -0.00000000000E+00  0.00000000000E+00  0.17818631615E+04  0.17818631615E+04  0.00000000000E+00 0. -1.
         21   -1    0    0  503  502  0.00000000000E+00 -0.00000000000E+00 -0.18675690072E+03  0.18675690072E+03  0.00000000000E+00 0.  1.
         24    2    1    2    0    0  0.11092385116E+03 -0.37005030510E+03  0.50413730301E+03  0.64010127257E+03  0.79585738609E+02 0.  0.
         23    2    1    2    0    0  0.23686009997E+03  0.14456277445E+03  0.49535683032E+03  0.57541312166E+03  0.93385055104E+02 0.  0.
        -13    1    3    3    0    0  0.67065248811E+02 -0.32147085814E+03  0.43289514141E+03  0.54335942403E+03  0.00000000000E+00 0.  1.
         14    1    3    3    0    0  0.43858602353E+02 -0.48579446958E+02  0.71242161603E+02  0.96741848530E+02  0.00000000000E+00 0. -1.
        -11    1    4    4    0    0  0.13081895076E+03  0.11817791314E+03  0.24118678738E+03  0.29874852877E+03  0.00000000000E+00 0.  1.
         11    1    4    4    0    0  0.10604114920E+03  0.26384861307E+02  0.25417004294E+03  0.27666459289E+03  0.00000000000E+00 0. -1.
         21    1    1    2  503  501 -0.15116644955E+02 -0.23117480247E+02  0.76739424584E+00  0.27631860987E+02  0.00000000000E+00 0. -1.
          1    1    1    2  501    0 -0.33266730617E+03  0.24860501089E+03  0.59484473317E+03  0.72547380698E+03  0.00000000000E+00 0. -1.
<scales pt_clust_5="13000.00000" pt_clust_6="13000.00000" pt_clust_7="13000.00000" pt_clust_8="13000.00000" pt_clust_9="27.62120" pt_clust_10="13000.00000"></scales>
<clustering>
<clus scale="   27.621">  2  9  1 -1</clus>
<clus scale="   79.586">  5  6 -1 -1</clus>
<clus scale="   93.385">  7  8 -1 -1</clus>
<clus scale="  401.358">  1  5  2 -1</clus>
<clus scale="  280.920">  7 10 -1 -1</clus>
<clus scale="   27.621">  2  5  1 -1</clus>
</clustering>
</event>
<event>
10    4  0.2601588E-005  0.6536171E+03  0.7546771E-02  0.9950154E-01
         21   -1    0    0  503  502  0.00000000000E+00  0.00000000000E+00  0.42543894842E+03  0.42543894842E+03  0.00000000000E+00 0. -1.
          2   -1    0    0  502    0 -0.00000000000E+00 -0.00000000000E+00 -0.13869253354E+04  0.13869253354E+04  0.00000000000E+00 0. -1.
         24    2    1    2    0    0  0.35521855215E+03 -0.19698264865E+03 -0.80519227047E+03  0.90519331831E+03  0.77832945681E+02 0.  0.
         23    2    1    2    0    0  0.74723750416E+02 -0.79148054663E+02 -0.18567567328E+03  0.23370010778E+03  0.91061689482E+02 0.  0.
        -13    1    3    3    0    0  0.10681818144E+03 -0.20312787722E+02 -0.20797554574E+03  0.23468395953E+03  0.00000000000E+00 0.  1.
         14    1    3    3    0    0  0.24840037071E+03 -0.17666986093E+03 -0.59721672473E+03  0.67050935879E+03  0.00000000000E+00 0. -1.
        -11    1    4    4    0    0  0.18614459494E+02 -0.44474854538E+02 -0.15235818206E+03  0.15980465084E+03  0.00000000000E+00 0.  1.
         11    1    4    4    0    0  0.56109290922E+02 -0.34673200125E+02 -0.33317491226E+02  0.73895456939E+02  0.00000000000E+00 0. -1.
         21    1    1    2  503  501 -0.41994065209E+02  0.37384108198E+02  0.18401647421E+03  0.19241396997E+03  0.00000000000E+00 0. -1.
          1    1    1    2  501    0 -0.38794823736E+03  0.23874659512E+03 -0.15463491740E+03  0.48105688773E+03  0.00000000000E+00 0. -1.
<scales pt_clust_5="13000.00000" pt_clust_6="13000.00000" pt_clust_7="13000.00000" pt_clust_8="13000.00000" pt_clust_9="56.22342" pt_clust_10="13000.00000"></scales>
<clustering>
<clus scale="   56.223">  1  9  2 -1</clus>
<clus scale="   77.833">  5  6 -1 -1</clus>
<clus scale="   91.062">  7  8 -1 -1</clus>
<clus scale="  402.229">  2  5  1 -1</clus>
<clus scale="  237.458">  7 10 -1 -1</clus>
<clus scale="   56.223">  1  5  2 -1</clus>
</clustering>
</event>
<event>
10    4  0.2565852E-005  0.3486959E+03  0.7546771E-02  0.1105563E+00
          2   -1    0    0  502    0 -0.00000000000E+00  0.00000000000E+00  0.67453689911E+03  0.67453689911E+03  0.00000000000E+00 0. -1.
         21   -1    0    0  503  502  0.00000000000E+00 -0.00000000000E+00 -0.26326599520E+03  0.26326599520E+03  0.00000000000E+00 0. -1.
         24    2    1    2    0    0 -0.75352553288E+02 -0.16460844289E+02  0.72972918584E+02  0.13387828431E+03  0.81543739685E+02 0.  0.
         23    2    1    2    0    0  0.28300997020E+02  0.29487762126E+02  0.85859415210E+02  0.13112748814E+03  0.90289004964E+02 0.  0.
        -13    1    3    3    0    0 -0.26361342684E+02 -0.46320434849E+02  0.24021809296E+02  0.58459818632E+02  0.00000000000E+00 0.  1.
         14    1    3    3    0    0 -0.48991210605E+02  0.29859590559E+02  0.48951109288E+02  0.75418465679E+02  0.00000000000E+00 0. -1.
        -11    1    4    4    0    0  0.50946321571E+02  0.10649384157E+02  0.87297677611E+02  0.10163572984E+03  0.00000000000E+00 0. -1.
         11    1    4    4    0    0 -0.22645324551E+02  0.18838377969E+02 -0.14382624012E+01  0.29491758294E+02  0.00000000000E+00 0.  1.
         21    1    1    2  503  501  0.14225253377E+03  0.17835210035E+03 -0.10903686154E+03  0.25285231309E+03  0.00000000000E+00 0. -1.
          1    1    1    2  501    0 -0.95200977498E+02 -0.19137901818E+03  0.36147543166E+03  0.41994480877E+03  0.00000000000E+00 0. -1.
<scales pt_clust_5="13000.00000" pt_clust_6="13000.00000" pt_clust_7="13000.00000" pt_clust_8="13000.00000" pt_clust_9="220.68309" pt_clust_10="13000.00000"></scales>
<clustering>
<clus scale="   81.544">  5  6 -1 -1</clus>
<clus scale="   90.289">  7  8 -1 -1</clus>
<clus scale="  112.242">  1  5  2 -1</clus>
<clus scale="  220.683">  2  9  1 -1</clus>
<clus scale="  119.284">  7 10 -1 -1</clus>
<clus scale="  220.683">  2  5  1 -1</clus>
</clustering>
</event>
<event>
10    4  0.2565852E-005  0.3035711E+03  0.7546771E-02  0.1126272E+00
          2   -1    0    0  502    0 -0.00000000000E+00  0.00000000000E+00  0.32092066865E+03  0.32092066865E+03  0.00000000000E+00 0. -1.
         21   -1    0    0  503  502  0.00000000000E+00 -0.00000000000E+00 -0.24825068497E+03  0.24825068497E+03  0.00000000000E+00 0.  1.
         24    2    1    2    0    0  0.26758288967E+02 -0.73518585577E+02 -0.90083144811E+02  0.14430652924E+03  0.81169039355E+02 0.  0.
         23    2    1    2    0    0 -0.52581698505E+02  0.87547348988E+02 -0.14275793743E+02  0.13759882433E+03  0.91105789267E+02 0.  0.
        -13    1    3    3    0    0  0.45183672906E+02 -0.43859873844E+02 -0.89441167187E+02  0.10938452916E+03  0.00000000000E+00 0.  1.
         14    1    3    3    0    0 -0.18425383938E+02 -0.29658711734E+02 -0.64197762464E+00  0.34922000089E+02  0.00000000000E+00 0. -1.
        -11    1    4    4    0    0 -0.52311317060E+00  0.80928452527E+02 -0.23596242345E+02  0.84299885698E+02  0.00000000000E+00 0.  1.
         11    1    4    4    0    0 -0.52058585334E+02  0.66188964611E+01  0.93204486019E+01  0.53298938634E+02  0.00000000000E+00 0. -1.
         21    1    1    2  503  501 -0.73515563220E+02  0.27205485234E+02 -0.19986937933E+01  0.78413463380E+02  0.00000000000E+00 0. -1.
          1    1    1    2  501    0  0.99338972757E+02 -0.41234248645E+02  0.17902761603E+03  0.20885253666E+03  0.00000000000E+00 0. -1.
<scales pt_clust_5="13000.00000" pt_clust_6="13000.00000" pt_clust_7="13000.00000" pt_clust_8="13000.00000" pt_clust_9="78.38799" pt_clust_10="13000.00000"></scales>
<clustering>
<clus scale="   78.388">  2  9  1 -1</clus>
<clus scale="   81.169">  5  6 -1 -1</clus>
<clus scale="   91.106">  7  8 -1 -1</clus>
<clus scale="  100.944">  1  5  2 -1</clus>
<clus scale="  114.534">  7 10 -1 -1</clus>
<clus scale="   78.388">  2  5  1 -1</clus>
</clustering>
</event>
<event>
10    4  0.2565852E-005  0.2193860E+03  0.7546771E-02  0.1159420E+00
          2   -1    0    0  503    0 -0.00000000000E+00  0.00000000000E+00  0.83513266376E+03  0.83513266376E+03  0.00000000000E+00 0. -1.
         21   -1    0    0  501  502  0.00000000000E+00 -0.00000000000E+00 -0.76386399771E+02  0.76386399771E+02  0.00000000000E+00 0.  1.
         24    2    1    2    0    0  0.92587405472E+02  0.81793144313E+02  0.27740167712E+03  0.31390410936E+03  0.79508196402E+02 0.  0.
         23    2    1    2    0    0 -0.97326339691E+01  0.85035129884E+02  0.20047709608E+03  0.23659029482E+03  0.91968494982E+02 0.  0.
        -13    1    3    3    0    0  0.81630105147E+02  0.65507970609E+02  0.27485800334E+03  0.29411169695E+03  0.00000000000E+00 0.  1.
         14    1    3    3    0    0  0.10957300325E+02  0.16285173704E+02  0.25436737834E+01  0.19792412418E+02  0.00000000000E+00 0. -1.
        -13    1    4    4    0    0  0.25524429363E+02  0.27659777549E+00  0.86799751267E+02  0.90475244242E+02  0.00000000000E+00 0. -1.
         13    1    4    4    0    0 -0.35257063333E+02  0.84758532108E+02  0.11367734482E+03  0.14611505057E+03  0.00000000000E+00 0.  1.
         21    1    1    2  503  502 -0.22506933362E+02 -0.10980045609E+03  0.64602308396E+02  0.12936831318E+03  0.00000000000E+00 0. -1.
          1    1    1    2  501    0 -0.60347838140E+02 -0.57027818110E+02  0.21626518239E+03  0.23165634617E+03  0.00000000000E+00 0. -1.
<scales pt_clust_5="13000.00000" pt_clust_6="13000.00000" pt_clust_7="13000.00000" pt_clust_8="13000.00000" pt_clust_9="112.08346" pt_clust_10="13000.00000"></scales>
<clustering>
<clus scale="   79.508">  5  6 -1 -1</clus>
<clus scale="   91.968">  7  8 -1 -1</clus>
<clus scale="   83.030">  7 10 -1 -1</clus>
<clus scale="  112.083">  2  9  1 -1</clus>
<clus scale="  120.692">  1  5  2 -1</clus>
<clus scale="  112.083">  2  5  1 -1</clus>
</clustering>
</event>
<event>
10    4  0.2565852E-005  0.1230352E+04  0.7546771E-02  0.9643471E-01
          2   -1    0    0  503    0 -0.00000000000E+00  0.00000000000E+00  0.69731650130E+03  0.69731650130E+03  0.00000000000E+00 0. -1.
         21   -1    0    0  501  502  0.00000000000E+00 -0.00000000000E+00 -0.21027798535E+04  0.21027798535E+04  0.00000000000E+00 0. -1.
         24    2    1    2    0    0 -0.13549951488E+03 -0.53483883685E+02  0.14301373169E+03  0.21855199236E+03  0.78047431501E+02 0.  0.
         23    2    1    2    0    0 -0.40631207196E+03 -0.16977244183E+02  0.25057802025E+03  0.48593534428E+03  0.89252943673E+02 0.  0.
        -13    1    3    3    0    0 -0.72698470219E+02 -0.57535318350E+02  0.11978063256E+03  0.15146874386E+03  0.00000000000E+00 0.  1.
         14    1    3    3    0    0 -0.62801044665E+02  0.40514346647E+01  0.23233099127E+02  0.67083248497E+02  0.00000000000E+00 0. -1.
        -11    1    4    4    0    0 -0.89192535448E+02  0.69047479820E+01  0.16281334252E+02  0.90928905026E+02  0.00000000000E+00 0.  1.
         11    1    4    4    0    0 -0.31711953651E+03 -0.23881992165E+02  0.23429668599E+03  0.39500643926E+03  0.00000000000E+00 0. -1.
         21    1    1    2  503  502 -0.38845622518E+02  0.20163541351E+03 -0.13077133164E+04  0.13237371115E+04  0.00000000000E+00 0. -1.
          1    1    1    2  501    0  0.58065720936E+03 -0.13117428564E+03 -0.49134178773E+03  0.77187190671E+03  0.00000000000E+00 0. -1.
<scales pt_clust_5="13000.00000" pt_clust_6="13000.00000" pt_clust_7="13000.00000" pt_clust_8="13000.00000" pt_clust_9="204.93820" pt_clust_10="13000.00000"></scales>
<clustering>
<clus scale="   78.047">  5  6 -1 -1</clus>
<clus scale="   89.253">  7  8 -1 -1</clus>
<clus scale="  165.264">  1  5  2 -1</clus>
<clus scale="  204.938">  2  9  1 -1</clus>
<clus scale="  514.020">  7 10 -1 -1</clus>
<clus scale="  204.938">  2  5  1 -1</clus>
</clustering>
</event>
<event>
10    4  0.2565852E-005  0.2460942E+03  0.7546771E-02  0.1135757E+00
          2   -1    0    0  503    0 -0.00000000000E+00  0.00000000000E+00  0.13182749378E+04  0.13182749378E+04  0.00000000000E+00 0. -1.
         21   -1    0    0  501  502  0.00000000000E+00 -0.00000000000E+00 -0.76736607551E+02  0.76736607551E+02  0.00000000000E+00 0. -1.
         24    2    1    2    0    0 -0.71239930915E+02  0.10855235695E+03  0.98194686030E+03  0.99378285294E+03  0.80783540326E+02 0.  0.
         23    2    1    2    0    0  0.31342536573E+02  0.18494673390E+02  0.21470914286E+03  0.23909296254E+03  0.98696611709E+02 0.  0.
        -11    1    3    3    0    0 -0.19085341888E+02  0.12229662712E+02  0.44327482410E+02  0.49786952325E+02  0.00000000000E+00 0.  1.
         12    1    3    3    0    0 -0.52154589027E+02  0.96322694238E+02  0.93761937789E+03  0.94399590061E+03  0.00000000000E+00 0. -1.
        -13    1    4    4    0    0 -0.24175908223E+02 -0.13209191349E+02  0.19691730656E+02  0.33863277023E+02  0.00000000000E+00 0. -1.
         13    1    4    4    0    0  0.55518444796E+02  0.31703864740E+02  0.19501741221E+03  0.20522968551E+03  0.00000000000E+00 0.  1.
         21    1    1    2  503  502  0.16824647876E+02 -0.20860878045E+02 -0.21883287093E+02  0.34599469114E+02  0.00000000000E+00 0. -1.
          1    1    1    2  501    0  0.23072746466E+02 -0.10618615229E+03  0.66765614150E+02  0.12753626073E+03  0.00000000000E+00 0. -1.
<scales pt_clust_5="13000.00000" pt_clust_6="13000.00000" pt_clust_7="13000.00000" pt_clust_8="13000.00000" pt_clust_9="26.80009" pt_clust_10="13000.00000"></scales>
<clustering>
<clus scale="   26.800">  2  9  1 -1</clus>
<clus scale="   80.784">  5  6 -1 -1</clus>
<clus scale="   98.697">  7  8 -1 -1</clus>
<clus scale="  123.904">  7 10 -1 -1</clus>
<clus scale="  150.167">  1  5  2 -1</clus>
<clus scale="   26.800">  2  5  1 -1</clus>
</clustering>
</event>
<event>
10    4  0.2565852E-005  0.2626222E+03  0.7546771E-02  0.1145768E+00
          4   -1    0    0  503    0 -0.00000000000E+00  0.00000000000E+00  0.26212222994E+03  0.26212222994E+03  0.00000000000E+00 0. -1.
         21   -1    0    0  501  502  0.00000000000E+00 -0.00000000000E+00 -0.15903266249E+03  0.15903266249E+03  0.00000000000E+00 0.  1.
         24    2    1    2    0    0  0.43169926676E+02  0.22773813734E+02  0.54345964693E+02  0.10936954269E+03  0.81399777817E+02 0.  0.
         23    2    1    2    0    0  0.45510563792E+02  0.60329138954E+02  0.74764961002E+02  0.13974558252E+03  0.90709492436E+02 0.  0.
        -13    1    3    3    0    0  0.52633436417E+02  0.45890148398E+02  0.37749980960E+02  0.79380384300E+02  0.00000000000E+00 0.  1.
         14    1    3    3    0    0 -0.94635097409E+01 -0.23116334664E+02  0.16595983733E+02  0.29989158391E+02  0.00000000000E+00 0. -1.
        -11    1    4    4    0    0  0.15141745230E+02  0.79288694643E+02  0.41014356778E+02  0.90543619370E+02  0.00000000000E+00 0.  1.
         11    1    4    4    0    0  0.30368818562E+02 -0.18959555689E+02  0.33750604224E+02  0.49201963154E+02  0.00000000000E+00 0. -1.
         21    1    1    2  503  502  0.24673075173E+02 -0.68307502316E+01 -0.24456662600E+02  0.35405481676E+02  0.00000000000E+00 0.  1.
          3    1    1    2  501    0 -0.11335356564E+03 -0.76272202457E+02 -0.15646956518E+01  0.13663428554E+03  0.00000000000E+00 0. -1.
<scales pt_clust_5="13000.00000" pt_clust_6="13000.00000" pt_clust_7="13000.00000" pt_clust_8="13000.00000" pt_clust_9="25.60117" pt_clust_10="13000.00000"></scales>
<clustering>
<clus scale="   25.601">  2  9  1 -1</clus>
<clus scale="   81.400">  5  6 -1 -1</clus>
<clus scale="   90.709">  7  8 -1 -1</clus>
<clus scale="   97.086">  1  5  2 -1</clus>
<clus scale="  110.068">  7 10 -1 -1</clus>
<clus scale="   25.601">  2  5  1 -1</clus>
</clustering>
</event>
<event>
10    4  0.2565852E-005  0.3503903E+03  0.7546771E-02  0.1072039E+00
         21   -1    0    0  501  502  0.00000000000E+00  0.00000000000E+00  0.55596087275E+03  0.55596087275E+03  0.00000000000E+00 0.  1.
         -1   -1    0    0    0  501 -0.00000000000E+00 -0.00000000000E+00 -0.27002042488E+03  0.27002042488E+03  0.00000000000E+00 0.  1.
         24    2    1    2    0    0 -0.23197579758E+03  0.39676984795E+02  0.15093732549E+03  0.29204624740E+03  0.84391353892E+02 0.  0.
         23    2    1    2    0    0  0.12428267028E+02 -0.12837292376E+02 -0.49034759863E+02  0.10611507827E+03  0.92394503436E+02 0.  0.
        -13    1    3    3    0    0 -0.13345354808E+03  0.53541725934E-02  0.12469296630E+03  0.18264223325E+03  0.00000000000E+00 0.  1.
         14    1    3    3    0    0 -0.98522249498E+02  0.39671630622E+02  0.26244359189E+02  0.10940401415E+03  0.00000000000E+00 0. -1.
        -11    1    4    4    0    0  0.29517397209E+02  0.30218545866E+02 -0.41436498878E+02  0.59172803648E+02  0.00000000000E+00 0. -1.
         11    1    4    4    0    0 -0.17089130181E+02 -0.43055838242E+02 -0.75982609851E+01  0.46942274626E+02  0.00000000000E+00 0.  1.
         21    1    1    2  503  502 -0.23608052286E+02  0.55180510548E+02  0.15904100467E+03  0.16998902919E+03  0.00000000000E+00 0.  1.
         -2    1    1    2    0  503  0.24315558284E+03 -0.82020202967E+02  0.24996877574E+02  0.25783094277E+03  0.00000000000E+00 0.  1.
<scales pt_clust_5="13000.00000" pt_clust_6="13000.00000" pt_clust_7="13000.00000" pt_clust_8="13000.00000" pt_clust_9="60.01857" pt_clust_10="13000.00000"></scales>
<clustering>
<clus scale="   60.019">  1  9  2 -1</clus>
<clus scale="   84.391">  5  6 -1 -1</clus>
<clus scale="   92.395">  7  8 -1 -1</clus>
<clus scale="  242.702">  7 10 -1 -1</clus>
<clus scale="  268.956">  2  5  1 -1</clus>
<clus scale="   60.019">  1  5  2 -1</clus>
</clustering>
</event>
<event>
10    4  0.2565852E-005  0.5870854E+03  0.7546771E-02  0.1012388E+00
         21   -1    0    0  503  502  0.00000000000E+00  0.00000000000E+00  0.14958736664E+03  0.14958736664E+03  0.00000000000E+00 0. -1.
          2   -1    0    0  502    0 -0.00000000000E+00 -0.00000000000E+00 -0.17969166376E+04  0.17969166376E+04  0.00000000000E+00 0. -1.
         24    2    1    2    0    0 -0.29114108703E+03 -0.10123940060E+03 -0.52070062881E+03  0.61027812692E+03  0.79358040263E+02 0.  0.
         23    2    1    2    0    0 -0.95887478748E+02 -0.79242999239E+02 -0.29760675301E+03  0.33535999232E+03  0.91775179110E+02 0.  0.
        -13    1    3    3    0    0 -0.11282451999E+03 -0.68181171687E+01 -0.14528410611E+03  0.18407425273E+03  0.00000000000E+00 0.  1.
         14    1    3    3    0    0 -0.17831656704E+03 -0.94421283428E+02 -0.37541652271E+03  0.42620387418E+03  0.00000000000E+00 0. -1.
        -13    1    4    4    0    0 -0.72373648825E+02 -0.40363194684E+02 -0.26945202570E+03  0.28190694685E+03  0.00000000000E+00 0. -1.
         13    1    4    4    0    0 -0.23513829922E+02 -0.38879804555E+02 -0.28154727316E+02  0.53453045471E+02  0.00000000000E+00 0.  1.
         21    1    1    2  503  501 -0.15922908476E+02  0.13449433897E+02  0.30530924553E+02  0.36967061562E+02  0.00000000000E+00 0. -1.
          1    1    1    2  501    0  0.40295147426E+03  0.16703296594E+03 -0.85955281365E+03  0.96389882341E+03  0.00000000000E+00 0. -1.
<scales pt_clust_5="13000.00000" pt_clust_6="13000.00000" pt_clust_7="13000.00000" pt_clust_8="13000.00000" pt_clust_9="20.84290" pt_clust_10="13000.00000"></scales>
<clustering>
<clus scale="   20.843">  1  9  2 -1</clus>
<clus scale="   79.358">  5  6 -1 -1</clus>
<clus scale="   91.775">  7  8 -1 -1</clus>
<clus scale="  322.346">  2  5  1 -1</clus>
<clus scale="  204.306">  7 10 -1 -1</clus>
<clus scale="   20.843">  1  5  2 -1</clus>
</clustering>
</event>
<event>
10    4  0.2565852E-005  0.2538410E+03  0.7546771E-02  0.1136079E+00
         21   -1    0    0  501  502  0.00000000000E+00  0.00000000000E+00  0.16181149852E+03  0.16181149852E+03  0.00000000000E+00 0.  1.
         -1   -1    0    0    0  501 -0.00000000000E+00 -0.00000000000E+00 -0.74308594511E+03  0.74308594511E+03  0.00000000000E+00 0.  1.
         24    2    1    2    0    0 -0.21012116097E+03  0.62603258449E+02 -0.23900504820E+03  0.33415817085E+03  0.80425119400E+02 0.  0.
         23    2    1    2    0    0  0.47783452177E+02 -0.74390718643E+01 -0.18178085650E+02  0.10473957260E+03  0.91111674221E+02 0.  0.
        -13    1    3    3    0    0 -0.20228034671E+03  0.76443517118E+02 -0.23074515696E+03  0.31623452916E+03  0.00000000000E+00 0.  1.
         14    1    3    3    0    0 -0.78408142567E+01 -0.13840258669E+02 -0.82598912376E+01  0.17923641692E+02  0.00000000000E+00 0. -1.
        -13    1    4    4    0    0 -0.24623966146E+02 -0.69737947625E+01  0.93893184668E+01  0.27260462641E+02  0.00000000000E+00 0. -1.
         13    1    4    4    0    0  0.72407418323E+02 -0.46527710177E+00 -0.27567404117E+02  0.77479109964E+02  0.00000000000E+00 0.  1.
         21    1    1    2  503  502  0.20534730987E+03 -0.62478244771E+02 -0.98385152461E+02  0.23611583378E+03  0.00000000000E+00 0.  1.
         -2    1    1    2    0  503 -0.43009601077E+02  0.73140581857E+01 -0.22570616028E+03  0.22988386638E+03  0.00000000000E+00 0.  1.
<scales pt_clust_5="13000.00000" pt_clust_6="13000.00000" pt_clust_7="13000.00000" pt_clust_8="13000.00000" pt_clust_9="214.64168" pt_clust_10="13000.00000"></scales>
<clustering>
<clus scale="   80.425">  5  6 -1 -1</clus>
<clus scale="   91.112">  7  8 -1 -1</clus>
<clus scale="   43.627">  7 10 -1 -1</clus>
<clus scale="  214.642">  1  9  2 -1</clus>
<clus scale="  135.768">  2  5  1 -1</clus>
<clus scale="  214.642">  1  5  2 -1</clus>
</clustering>
</event>
<event>
10    4  0.2565852E-005  0.2723929E+03  0.7546771E-02  0.1111896E+00
         21   -1    0    0  503  502  0.00000000000E+00  0.00000000000E+00  0.77636255971E+02  0.77636255971E+02  0.00000000000E+00 0. -1.
          2   -1    0    0  502    0 -0.00000000000E+00 -0.00000000000E+00 -0.94311150477E+03  0.94311150477E+03  0.00000000000E+00 0. -1.
         24    2    1    2    0    0 -0.80006989006E+02  0.16861293133E+03 -0.35262759273E+03  0.40646293613E+03  0.77681789316E+02 0.  0.
         23    2    1    2    0    0  0.14370202295E+03 -0.11870871247E+03 -0.46026186602E+03  0.50479982037E+03  0.90773583831E+02 0.  0.
        -13    1    3    3    0    0 -0.27190945093E+02  0.99932664453E+01 -0.23474868054E+02  0.37286489503E+02  0.00000000000E+00 0.  1.
         14    1    3    3    0    0 -0.52816043914E+02  0.15861966489E+03 -0.32915272468E+03  0.36917644663E+03  0.00000000000E+00 0. -1.
        -13    1    4    4    0    0  0.91294495136E+02 -0.12457968532E+03 -0.33501496231E+03  0.36890352100E+03  0.00000000000E+00 0. -1.
         13    1    4    4    0    0  0.52407527814E+02  0.58709728529E+01 -0.12524690371E+03  0.13589629937E+03  0.00000000000E+00 0.  1.
         21    1    1    2  503  501 -0.19652714881E+02 -0.15074544000E+02  0.88065106159E+01  0.26287367845E+02  0.00000000000E+00 0. -1.
          1    1    1    2  501    0 -0.44042319063E+02 -0.34829674868E+02 -0.61392300659E+02  0.83197636385E+02  0.00000000000E+00 0. -1.
<scales pt_clust_5="13000.00000" pt_clust_6="13000.00000" pt_clust_7="13000.00000" pt_clust_8="13000.00000" pt_clust_9="24.76835" pt_clust_10="13000.00000"></scales>
<clustering>
<clus scale="   24.768">  1  9  2 -1</clus>
<clus scale="   77.682">  5  6 -1 -1</clus>
<clus scale="   90.774">  7  8 -1 -1</clus>
<clus scale="   60.644">  7 10 -1 -1</clus>
<clus scale="  200.301">  2  5  1 -1</clus>
<clus scale="   24.768">  1  5  2 -1</clus>
</clustering>
</event>
<event>
10    4  0.2565852E-005  0.2072684E+03  0.7546771E-02  0.1180602E+00
          2   -1    0    0  503    0 -0.00000000000E+00  0.00000000000E+00  0.67071248129E+03  0.67071248129E+03  0.00000000000E+00 0. -1.
         21   -1    0    0  501  502  0.00000000000E+00 -0.00000000000E+00 -0.38992702009E+02  0.38992702009E+02  0.00000000000E+00 0. -1.
         24    2    1    2    0    0  0.20937206592E+02  0.98067040185E+01  0.19661948594E+03  0.21478812569E+03  0.83307734477E+02 0.  0.
         23    2    1    2    0    0 -0.99558523369E+02 -0.32909078231E+02  0.21146449490E+03  0.25231471228E+03  0.89165993672E+02 0.  0.
        -11    1    3    3    0    0 -0.10938358344E+02 -0.27008512954E+02  0.12382194319E+03  0.12720448526E+03  0.00000000000E+00 0.  1.
         12    1    3    3    0    0  0.31875564936E+02  0.36815216973E+02  0.72797542747E+02  0.87583640429E+02  0.00000000000E+00 0. -1.
        -11    1    4    4    0    0 -0.56894510098E+02 -0.23683882545E+01  0.18496885761E+03  0.19353571461E+03  0.00000000000E+00 0. -1.
         11    1    4    4    0    0 -0.42664013271E+02 -0.30540689977E+02  0.26495637282E+02  0.58778997674E+02  0.00000000000E+00 0.  1.
         21    1    1    2  503  502  0.15640761134E+02  0.16903040923E+02  0.24375116249E+02  0.33533453348E+02  0.00000000000E+00 0. -1.
          1    1    1    2  501    0  0.62980555643E+02  0.61993332894E+01  0.19926068219E+03  0.20906889197E+03  0.00000000000E+00 0. -1.
<scales pt_clust_5="13000.00000" pt_clust_6="13000.00000" pt_clust_7="13000.00000" pt_clust_8="13000.00000" pt_clust_9="23.02925" pt_clust_10="13000.00000"></scales>
<clustering>
<clus scale="   23.029">  2  9  1 -1</clus>
<clus scale="   83.308">  5  6 -1 -1</clus>
<clus scale="   88.159">  1  5  2 -1</clus>
<clus scale="   89.166">  7  8 -1 -1</clus>
<clus scale="   79.532">  7 10 -1 -1</clus>
<clus scale="   23.029">  2  5  1 -1</clus>
</clustering>
</event>
<event>
10    4  0.2565852E-005  0.3451158E+03  0.7546771E-02  0.1105878E+00
         21   -1    0    0  501  502  0.00000000000E+00  0.00000000000E+00  0.43926434947E+03  0.43926434947E+03  0.00000000000E+00 0.  1.
         -1   -1    0    0    0  501 -0.00000000000E+00 -0.00000000000E+00 -0.16104329030E+03  0.16104329030E+03  0.00000000000E+00 0.  1.
         24    2    1    2    0    0  0.83180883628E+02 -0.17079634614E+02  0.10849425254E+03  0.15900831861E+03  0.79384313522E+02 0.  0.
         23    2    1    2    0    0 -0.11227776204E+03  0.42093749193E+02 -0.88213021311E+02  0.17261912803E+03  0.87393630560E+02 0.  0.
        -11    1    3    3    0    0  0.90540449129E+01  0.26689911491E+02  0.40341504003E+02  0.49211421945E+02  0.00000000000E+00 0.  1.
         12    1    3    3    0    0  0.74126838715E+02 -0.43769546105E+02  0.68152748534E+02  0.10979689666E+03  0.00000000000E+00 0. -1.
        -13    1    4    4    0    0 -0.11231179161E+03  0.62120939764E+02 -0.76686257490E+02  0.14951164430E+03  0.00000000000E+00 0.  1.
         13    1    4    4    0    0  0.34029572297E-01 -0.20027190572E+02 -0.11526763821E+02  0.23107483731E+02  0.00000000000E+00 0. -1.
         21    1    1    2  503  502 -0.19918829658E+01  0.19949346408E+02  0.83642118756E+02  0.86011325126E+02  0.00000000000E+00 0.  1.
         -2    1    1    2    0  503  0.31088761379E+02 -0.44963460987E+02  0.17429770919E+03  0.18266886800E+03  0.00000000000E+00 0.  1.
<scales pt_clust_5="13000.00000" pt_clust_6="13000.00000" pt_clust_7="13000.00000" pt_clust_8="13000.00000" pt_clust_9="20.04854" pt_clust_10="13000.00000"></scales>
<clustering>
<clus scale="   20.049">  1  9  2 -1</clus>
<clus scale="   79.384">  5  6 -1 -1</clus>
<clus scale="   87.394">  7  8 -1 -1</clus>
<clus scale="   46.091">  7 10 -1 -1</clus>
<clus scale="  114.838">  2  5  1 -1</clus>
<clus scale="   20.049">  1  5  2 -1</clus>
</clustering>
</event>
<event>
10    4  0.2565852E-005  0.1500666E+03  0.7546771E-02  0.1216187E+00
          2   -1    0    0  502    0 -0.00000000000E+00  0.00000000000E+00  0.45286389730E+03  0.45286389730E+03  0.00000000000E+00 0. -1.
         21   -1    0    0  503  502  0.00000000000E+00 -0.00000000000E+00 -0.32251960166E+03  0.32251960166E+03  0.00000000000E+00 0.  1.
         24    2    1    2    0    0 -0.88111739210E+02  0.61126053410E+02  0.29726853135E+03  0.32597823596E+03  0.79957223526E+02 0.  0.
         23    2    1    2    0    0 -0.53250357859E+02  0.87341776693E+01  0.77827296961E+02  0.13182428573E+03  0.91698787806E+02 0.  0.
        -13    1    3    3    0    0  0.62594492709E+01  0.34143130066E+02  0.61994513529E+02  0.71051064338E+02  0.00000000000E+00 0.  1.
         14    1    3    3    0    0 -0.94371188481E+02  0.26982923343E+02  0.23527401783E+03  0.25492717162E+03  0.00000000000E+00 0. -1.
        -13    1    4    4    0    0  0.24964371343E+02 -0.81337346468E+01  0.22078448921E+02  0.34305034362E+02  0.00000000000E+00 0.  1.
         13    1    4    4    0    0 -0.78214729203E+02  0.16867912316E+02  0.55748848041E+02  0.97519251371E+02  0.00000000000E+00 0. -1.
         21    1    1    2  503  501  0.11631450698E+03 -0.57460230668E+02 -0.25635994741E+03  0.28731718584E+03  0.00000000000E+00 0.  1.
          1    1    1    2  501    0  0.25047590092E+02 -0.12400000411E+02  0.11608414733E+02  0.30263791439E+02  0.00000000000E+00 0. -1.
<scales pt_clust_5="13000.00000" pt_clust_6="13000.00000" pt_clust_7="13000.00000" pt_clust_8="13000.00000" pt_clust_9="129.73335" pt_clust_10="13000.00000"></scales>
<clustering>
<clus scale="   79.957">  5  6 -1 -1</clus>
<clus scale="   91.699">  7  8 -1 -1</clus>
<clus scale="   27.949">  7 10 -1 -1</clus>
<clus scale="  129.733">  2  9  1 -1</clus>
<clus scale="  106.996">  1  5  2 -1</clus>
<clus scale="  129.733">  2  5  1 -1</clus>
</clustering>
</event>
<event>
10    4  0.2565852E-005  0.1530359E+03  0.7546771E-02  0.1211479E+00
         21   -1    0    0  503  502  0.00000000000E+00  0.00000000000E+00  0.20254621278E+03  0.20254621278E+03  0.00000000000E+00 0. -1.
          4   -1    0    0  502    0 -0.00000000000E+00 -0.00000000000E+00 -0.15030866901E+03  0.15030866901E+03  0.00000000000E+00 0. -1.
         24    2    1    2    0    0  0.13289960691E+02  0.57731020592E+02 -0.11628707570E+02  0.10070967765E+03  0.80608427223E+02 0.  0.
         23    2    1    2    0    0 -0.12657217782E+02 -0.44241993525E+02  0.52379970534E+02  0.10603696658E+03  0.79891287479E+02 0.  0.
        -13    1    3    3    0    0 -0.20735514870E+02  0.43541708504E+02 -0.32680473508E+02  0.58256804796E+02  0.00000000000E+00 0.  1.
         14    1    3    3    0    0  0.34025475561E+02  0.14189312088E+02  0.21051765937E+02  0.42452872856E+02  0.00000000000E+00 0. -1.
        -13    1    4    4    0    0  0.27251864977E+02  0.56636723396E+01  0.20871583426E+02  0.34790290654E+02  0.00000000000E+00 0.  1.
         13    1    4    4    0    0 -0.39909082759E+02 -0.49905665865E+02  0.31508387108E+02  0.71246675924E+02  0.00000000000E+00 0. -1.
         21    1    1    2  503  501  0.29233516989E+02  0.56118236497E+02  0.26993248579E+02  0.68793098869E+02  0.00000000000E+00 0. -1.
          3    1    1    2  501    0 -0.29866259898E+02 -0.69607263564E+02 -0.15506967777E+02  0.77315138691E+02  0.00000000000E+00 0. -1.
<scales pt_clust_5="13000.00000" pt_clust_6="13000.00000" pt_clust_7="13000.00000" pt_clust_8="13000.00000" pt_clust_9="63.27602" pt_clust_10="13000.00000"></scales>
<clustering>
<clus scale="   63.276">  1  9  2 -1</clus>
<clus scale="   79.891">  7  8 -1 -1</clus>
<clus scale="   63.142">  7 10 -1 -1</clus>
<clus scale="   80.608">  5  6 -1 -1</clus>
<clus scale="  111.486">  2  5  1 -1</clus>
<clus scale="   63.276">  1  5  2 -1</clus>
</clustering>
</event>
<event>
10    4  0.2565852E-005  0.2057494E+03  0.7546771E-02  0.1172261E+00
          2   -1    0    0  503    0 -0.00000000000E+00  0.00000000000E+00  0.13363737008E+04  0.13363737008E+04  0.00000000000E+00 0. -1.
         21   -1    0    0  501  502  0.00000000000E+00 -0.00000000000E+00 -0.79084323809E+03  0.79084323809E+03  0.00000000000E+00 0. -1.
         24    2    1    2    0    0 -0.19436765703E+02 -0.71237394088E+02  0.13101162631E+04  0.13146426397E+04  0.80175389464E+02 0.  0.
         23    2    1    2    0    0  0.40207315238E+02  0.46794845101E+02 -0.14854077091E+03  0.18334461741E+03  0.88002854400E+02 0.  0.
        -11    1    3    3    0    0 -0.13909646747E+01 -0.34401475791E+02  0.15412047350E+03  0.15791933596E+03  0.00000000000E+00 0.  1.
         12    1    3    3    0    0 -0.18045801028E+02 -0.36835918297E+02  0.11559957896E+04  0.11567233037E+04  0.00000000000E+00 0. -1.
        -11    1    4    4    0    0 -0.17918150107E+02 -0.14449161332E+02 -0.33326071063E+02  0.40502658912E+02  0.00000000000E+00 0. -1.
         11    1    4    4    0    0  0.58125465345E+02  0.61244006433E+02 -0.11521469985E+03  0.14284195850E+03  0.00000000000E+00 0.  1.
         21    1    1    2  503  502  0.46359960458E+02  0.35851569436E+02 -0.33231684937E+03  0.33744491305E+03  0.00000000000E+00 0. -1.
          1    1    1    2  501    0 -0.67130509994E+02 -0.11409020449E+02 -0.28372818008E+03  0.29178476878E+03  0.00000000000E+00 0. -1.
<scales pt_clust_5="13000.00000" pt_clust_6="13000.00000" pt_clust_7="13000.00000" pt_clust_8="13000.00000" pt_clust_9="58.60530" pt_clust_10="13000.00000"></scales>
<clustering>
<clus scale="   58.605">  2  9  1 -1</clus>
<clus scale="   80.175">  5  6 -1 -1</clus>
<clus scale="   88.003">  7  8 -1 -1</clus>
<clus scale="   39.499">  7 10 -1 -1</clus>
<clus scale="  108.841">  1  5  2 -1</clus>
<clus scale="   58.605">  2  5  1 -1</clus>
</clustering>
</event>
<event>
10    4  0.2565852E-005  0.1338384E+03  0.7546771E-02  0.1237388E+00
          2   -1    0    0  503    0 -0.00000000000E+00  0.00000000000E+00  0.85539257299E+03  0.85539257299E+03  0.00000000000E+00 0. -1.
         21   -1    0    0  501  502  0.00000000000E+00 -0.00000000000E+00 -0.52924812617E+02  0.52924812617E+02  0.00000000000E+00 0.  1.
         24    2    1    2    0    0 -0.12755899801E+02  0.45275847985E+02  0.67638558439E+03  0.68321111434E+03  0.84067547817E+02 0.  0.
         23    2    1    2    0    0  0.31358782201E+02 -0.13910091596E+02  0.85498465379E+02  0.13001879532E+03  0.91749853874E+02 0.  0.
        -13    1    3    3    0    0  0.35507519595E+02  0.23245377119E+02  0.25653902027E+03  0.26002576877E+03  0.00000000000E+00 0.  1.
         14    1    3    3    0    0 -0.48263419396E+02  0.22030470866E+02  0.41984656413E+03  0.42318534557E+03  0.00000000000E+00 0. -1.
        -13    1    4    4    0    0 -0.92017351542E+01 -0.43032217937E+02  0.21878281644E+02  0.49143696627E+02  0.00000000000E+00 0.  1.
         13    1    4    4    0    0  0.40560517356E+02  0.29122126341E+02  0.63620183735E+02  0.80875098697E+02  0.00000000000E+00 0. -1.
         21    1    1    2  503  502 -0.20939517927E+02  0.95651779350E+01 -0.13907697059E+02  0.26895726007E+02  0.00000000000E+00 0.  1.
          1    1    1    2  501    0  0.23366355268E+01 -0.40930934324E+02  0.54491407656E+02  0.68191749930E+02  0.00000000000E+00 0. -1.
<scales pt_clust_5="13000.00000" pt_clust_6="13000.00000" pt_clust_7="13000.00000" pt_clust_8="13000.00000" pt_clust_9="23.02077" pt_clust_10="13000.00000"></scales>
<clustering>
<clus scale="   23.021">  2  9  1 -1</clus>
<clus scale="   84.068">  5  6 -1 -1</clus>
<clus scale="   91.750">  7  8 -1 -1</clus>
<clus scale="   38.972">  7 10 -1 -1</clus>
<clus scale="   97.122">  1  5  2 -1</clus>
<clus scale="   23.021">  2  5  1 -1</clus>
</clustering>
</event>
<event>
10    4  0.2565852E-005  0.2455707E+03  0.7546771E-02  0.1126161E+00
         -3   -1    0    0    0  501 -0.00000000000E+00  0.00000000000E+00  0.25790512078E+03  0.25790512078E+03  0.00000000000E+00 0.  1.
         21   -1    0    0  501  502  0.00000000000E+00 -0.00000000000E+00 -0.32591765592E+03  0.32591765592E+03  0.00000000000E+00 0.  1.
         24    2    1    2    0    0  0.14107288146E+03 -0.12576535456E+03 -0.27762535392E+02  0.20649218968E+03  0.78420556853E+02 0.  0.
         23    2    1    2    0    0 -0.32076324014E+02  0.32174232501E+02 -0.95848157529E+01  0.10173596937E+03  0.90522190494E+02 0.  0.
        -13    1    3    3    0    0  0.41564183599E+02 -0.29053885415E+02 -0.43535401001E+02  0.66835924145E+02  0.00000000000E+00 0.  1.
         14    1    3    3    0    0  0.99508697859E+02 -0.96711469144E+02  0.15772865609E+02  0.13965626554E+03  0.00000000000E+00 0. -1.
        -13    1    4    4    0    0  0.28687562063E+02  0.27683031391E+02  0.10751452075E+01  0.39880852315E+02  0.00000000000E+00 0. -1.
         13    1    4    4    0    0 -0.60763886077E+02  0.44912011096E+01 -0.10659960960E+02  0.61855117058E+02  0.00000000000E+00 0.  1.
         21    1    1    2  503  502 -0.90249285959E+01  0.28339476270E+02 -0.12181511651E+03  0.12539337248E+03  0.00000000000E+00 0.  1.
         -4    1    1    2    0  503 -0.99971628849E+02  0.65251645788E+02  0.91149932518E+02  0.15020124517E+03  0.00000000000E+00 0.  1.
<scales pt_clust_5="13000.00000" pt_clust_6="13000.00000" pt_clust_7="13000.00000" pt_clust_8="13000.00000" pt_clust_9="29.74181" pt_clust_10="13000.00000"></scales>
<clustering>
<clus scale="   29.742">  2  9  1 -1</clus>
<clus scale="   78.421">  5  6 -1 -1</clus>
<clus scale="   90.522">  7  8 -1 -1</clus>
<clus scale="  122.776">  7 10 -1 -1</clus>
<clus scale="  191.217">  1  5  2 -1</clus>
<clus scale="   29.742">  2  5  1 -1</clus>
</clustering>
</event>
<event>
10    4  0.2565852E-005  0.2524155E+03  0.7546771E-02  0.1132851E+00
         21   -1    0    0  503  502  0.00000000000E+00  0.00000000000E+00  0.25092323021E+03  0.25092323021E+03  0.00000000000E+00 0. -1.
          2   -1    0    0  502    0 -0.00000000000E+00 -0.00000000000E+00 -0.29300138921E+03  0.29300138921E+03  0.00000000000E+00 0. -1.
         24    2    1    2    0    0 -0.27198337225E+01  0.15402172614E+03 -0.73133460474E+00  0.17366293959E+03  0.80176007116E+02 0.  0.
         23    2    1    2    0    0 -0.64063834733E+02  0.35616932472E+02  0.21974571497E+02  0.11879397029E+03  0.90864650917E+02 0.  0.
        -11    1    3    3    0    0 -0.21593068308E+02  0.63090356849E+02  0.33576172741E+02  0.74659313567E+02  0.00000000000E+00 0.  1.
         12    1    3    3    0    0  0.18873234585E+02  0.90931369294E+02 -0.34307507346E+02  0.99003626023E+02  0.00000000000E+00 0. -1.
        -13    1    4    4    0    0 -0.54831896804E+02 -0.79020442629E+01  0.42477625952E+02  0.69809225158E+02  0.00000000000E+00 0. -1.
         13    1    4    4    0    0 -0.92319379290E+01  0.43518976735E+02 -0.20503054455E+02  0.48984745136E+02  0.00000000000E+00 0.  1.
         21    1    1    2  503  501  0.90978714362E+02 -0.75212986335E+02  0.88657836019E+00  0.11804620198E+03  0.00000000000E+00 0. -1.
          1    1    1    2  501    0 -0.24195045906E+02 -0.11442567228E+03 -0.64207974249E+02  0.13342150756E+03  0.00000000000E+00 0. -1.
<scales pt_clust_5="13000.00000" pt_clust_6="13000.00000" pt_clust_7="13000.00000" pt_clust_8="13000.00000" pt_clust_9="118.04287" pt_clust_10="13000.00000"></scales>
<clustering>
<clus scale="   80.176">  5  6 -1 -1</clus>
<clus scale="   90.865">  7  8 -1 -1</clus>
<clus scale="  116.956">  7 10 -1 -1</clus>
<clus scale="  118.043">  1  9  2 -1</clus>
<clus scale="  149.376">  2  5  1 -1</clus>
<clus scale="  118.043">  1  5  2 -1</clus>
</clustering>
</event>
<event>
10    4  0.2565852E-005  0.3300393E+03  0.7546771E-02  0.1092792E+00
          2   -1    0    0  502    0 -0.00000000000E+00  0.00000000000E+00  0.35930103968E+03  0.35930103968E+03  0.00000000000E+00 0. -1.
         21   -1    0    0  503  502  0.00000000000E+00 -0.00000000000E+00 -0.58552457973E+03  0.58552457973E+03  0.00000000000E+00 0. -1.
         24    2    1    2    0    0  0.18936270054E+02  0.20644879512E+03 -0.16036752383E+03  0.27392419945E+03  0.79605508711E+02 0.  0.
         23    2    1    2    0    0 -0.35555648873E+02 -0.90453699936E+02  0.26832452226E+03  0.30128988144E+03  0.96599520758E+02 0.  0.
        -11    1    3    3    0    0  0.45849170321E+02  0.83231388532E+02 -0.56623182361E+02  0.11061552891E+03  0.00000000000E+00 0.  1.
         12    1    3    3    0    0 -0.26912900267E+02  0.12321740659E+03 -0.10374434146E+03  0.16330867054E+03  0.00000000000E+00 0. -1.
        -13    1    4    4    0    0 -0.30402852753E+02 -0.57976205299E+02  0.25894893351E+03  0.26709572068E+03  0.00000000000E+00 0. -1.
         13    1    4    4    0    0 -0.51527961193E+01 -0.32477494637E+02  0.93755887491E+01  0.34194160761E+02  0.00000000000E+00 0.  1.
         21    1    1    2  503  501 -0.85402213339E+01 -0.56690621124E+02 -0.27887619100E+03  0.28470808175E+03  0.00000000000E+00 0. -1.
          1    1    1    2  501    0  0.25159600152E+02 -0.59304474059E+02 -0.55304347473E+02  0.84903456777E+02  0.00000000000E+00 0. -1.
<scales pt_clust_5="13000.00000" pt_clust_6="13000.00000" pt_clust_7="13000.00000" pt_clust_8="13000.00000" pt_clust_9="57.33029" pt_clust_10="13000.00000"></scales>
<clustering>
<clus scale="   57.330">  2  9  1 -1</clus>
<clus scale="   79.606">  5  6 -1 -1</clus>
<clus scale="   96.600">  7  8 -1 -1</clus>
<clus scale="   76.012">  7 10 -1 -1</clus>
<clus scale="  184.475">  1  5  2 -1</clus>
<clus scale="   57.330">  2  5  1 -1</clus>
</clustering>
</event>
<event>
10    4  0.2565852E-005  0.1751157E+03  0.7546771E-02  0.1203183E+00
         -3   -1    0    0    0  501 -0.00000000000E+00  0.00000000000E+00  0.55189940511E+02  0.55189940511E+02  0.00000000000E+00 0.  1.
         21   -1    0    0  501  502  0.00000000000E+00 -0.00000000000E+00 -0.78479890974E+03  0.78479890974E+03  0.00000000000E+00 0.  1.
         24    2    1    2    0    0  0.66311032321E+02 -0.51818088990E+01 -0.14944019708E+03  0.18193255649E+03  0.79643445791E+02 0.  0.
         23    2    1    2    0    0 -0.55451240135E+02  0.21692615650E+02 -0.91603041784E+02  0.14464463970E+03  0.94792114248E+02 0.  0.
        -13    1    3    3    0    0  0.22965841888E+02  0.34458432618E+02 -0.86148875994E+02  0.95584738882E+02  0.00000000000E+00 0.  1.
         14    1    3    3    0    0  0.43345190432E+02 -0.39640241517E+02 -0.63291321083E+02  0.86347817607E+02  0.00000000000E+00 0. -1.
        -11    1    4    4    0    0  0.23851712369E+02  0.19713007463E+02 -0.15075541455E+02  0.34420615862E+02  0.00000000000E+00 0. -1.
         11    1    4    4    0    0 -0.79302952504E+02  0.19796081874E+01 -0.76527500329E+02  0.11022402384E+03  0.00000000000E+00 0.  1.
         21    1    1    2  503  502 -0.59090604474E+02  0.14804426611E+02 -0.41784390048E+03  0.42226105166E+03  0.00000000000E+00 0.  1.
         -4    1    1    2    0  503  0.48230812288E+02 -0.31315233362E+02 -0.70721829884E+02  0.91150602393E+02  0.00000000000E+00 0.  1.
<scales pt_clust_5="13000.00000" pt_clust_6="13000.00000" pt_clust_7="13000.00000" pt_clust_8="13000.00000" pt_clust_9="60.91692" pt_clust_10="13000.00000"></scales>
<clustering>
<clus scale="   60.917">  2  9  1 -1</clus>
<clus scale="   79.643">  5  6 -1 -1</clus>
<clus scale="   88.900">  1  5  2 -1</clus>
<clus scale="   94.792">  7  8 -1 -1</clus>
<clus scale="   50.645">  7 10 -1 -1</clus>
<clus scale="   60.917">  2  5  1 -1</clus>
</clustering>
</event>
<event>
10    4  0.2565852E-005  0.1741775E+03  0.7546771E-02  0.1200001E+00
         21   -1    0    0  503  502  0.00000000000E+00  0.00000000000E+00  0.20093575152E+03  0.20093575152E+03  0.00000000000E+00 0.  1.
         -3   -1    0    0    0  501 -0.00000000000E+00 -0.00000000000E+00 -0.12070633136E+03  0.12070633136E+03  0.00000000000E+00 0.  1.
         24    2    1    2    0    0 -0.81189355661E+01 -0.45028414048E+02  0.65524920668E+02  0.11159365123E+03  0.77885509432E+02 0.  0.
         23    2    1    2    0    0 -0.18171528671E+02 -0.77512867610E+01  0.62479613778E+01  0.94194916098E+02  0.91887748349E+02 0.  0.
        -11    1    3    3    0    0  0.10579934800E+02 -0.60119805185E+02  0.28294611018E+02  0.67282323150E+02  0.00000000000E+00 0.  1.
         12    1    3    3    0    0 -0.18698870366E+02  0.15091391137E+02  0.37230309650E+02  0.44311328078E+02  0.00000000000E+00 0. -1.
        -11    1    4    4    0    0  0.17436394575E+02  0.26717045843E+02  0.25688727409E+02  0.40960213748E+02  0.00000000000E+00 0. -1.
         11    1    4    4    0    0 -0.35607923246E+02 -0.34468332604E+02 -0.19440766032E+02  0.53234702350E+02  0.00000000000E+00 0.  1.
         21    1    1    2  503  501 -0.13203643009E+02 -0.20787622863E+02  0.19785973872E+02  0.31590286720E+02  0.00000000000E+00 0.  1.
         -4    1    1    2    0  502  0.39494107246E+02  0.73567323671E+02 -0.11329435748E+02  0.84263228835E+02  0.00000000000E+00 0.  1.
<scales pt_clust_5="13000.00000" pt_clust_6="13000.00000" pt_clust_7="13000.00000" pt_clust_8="13000.00000" pt_clust_9="24.62644" pt_clust_10="13000.00000"></scales>
<clustering>
<clus scale="   24.626">  1  9  2 -1</clus>
<clus scale="   77.886">  5  6 -1 -1</clus>
<clus scale="   91.888">  7  8 -1 -1</clus>
<clus scale="   78.388">  7 10 -1 -1</clus>
<clus scale="   96.793">  2  5  1 -1</clus>
<clus scale="   24.626">  1  5  2 -1</clus>
</clustering>
</event>
<event>
10    4  0.2565852E-005  0.2056583E+03  0.7546771E-02  0.1166809E+00
         21   -1    0    0  501  502  0.00000000000E+00  0.00000000000E+00  0.22435250812E+03  0.22435250812E+03  0.00000000000E+00 0. -1.
          2   -1    0    0  503    0 -0.00000000000E+00 -0.00000000000E+00 -0.27985122077E+03  0.27985122077E+03  0.00000000000E+00 0. -1.
         24    2    1    2    0    0  0.10517790095E+03  0.44305167112E+02  0.86164135390E+02  0.16354710976E+03  0.79360318810E+02 0.  0.
         23    2    1    2    0    0 -0.38902234651E+02 -0.91241091473E+02 -0.88842477358E+02  0.16867078118E+03  0.10353031444E+03 0.  0.
        -11    1    3    3    0    0  0.18631025513E+02  0.33501423109E+02 -0.34593486592E+01  0.38489317416E+02  0.00000000000E+00 0.  1.
         12    1    3    3    0    0  0.86546875434E+02  0.10803744003E+02  0.89623484049E+02  0.12505779234E+03  0.00000000000E+00 0. -1.
        -11    1    4    4    0    0  0.17217609203E+02  0.10738464985E+02 -0.34916894718E+02  0.40385024868E+02  0.00000000000E+00 0.  1.
         11    1    4    4    0    0 -0.56119843854E+02 -0.10197955646E+03 -0.53925582640E+02  0.12828575631E+03  0.00000000000E+00 0. -1.
         21    1    1    2  503  502 -0.38468304384E+02  0.14841099573E+02  0.47588574998E+02  0.62966190523E+02  0.00000000000E+00 0. -1.
          1    1    1    2  501    0 -0.27807361912E+02  0.32094824788E+02 -0.10040894567E+03  0.10901964743E+03  0.00000000000E+00 0. -1.
<scales pt_clust_5="13000.00000" pt_clust_6="13000.00000" pt_clust_7="13000.00000" pt_clust_8="13000.00000" pt_clust_9="41.23189" pt_clust_10="13000.00000"></scales>
<clustering>
<clus scale="   41.232">  1  9  2 -1</clus>
<clus scale="   79.360">  5  6 -1 -1</clus>
<clus scale="  103.530">  7  8 -1 -1</clus>
<clus scale="   43.395">  7 10 -1 -1</clus>
<clus scale="  123.475">  2  5  1 -1</clus>
<clus scale="   41.232">  1  5  2 -1</clus>
</clustering>
</event>
<event>
10    4  0.2565852E-005  0.3539693E+03  0.7546771E-02  0.1105217E+00
          4   -1    0    0  503    0 -0.00000000000E+00  0.00000000000E+00  0.79870174131E+03  0.79870174131E+03  0.00000000000E+00 0. -1.
         21   -1    0    0  501  502  0.00000000000E+00 -0.00000000000E+00 -0.39366064370E+03  0.39366064370E+03  0.00000000000E+00 0. -1.
         24    2    1    2    0    0  0.59245488444E+02 -0.38496372291E+02  0.60800606569E+03  0.61740071879E+03  0.80748207799E+02 0.  0.
         23    2    1    2    0    0 -0.64603872969E+02 -0.84554256924E+02  0.88338367930E+02  0.17643302783E+03  0.10955301591E+03 0.  0.
        -13    1    3    3    0    0  0.20771831126E+02 -0.58749295091E+02  0.30592737574E+03  0.31220907717E+03  0.00000000000E+00 0.  1.
         14    1    3    3    0    0  0.38473657318E+02  0.20252922800E+02  0.30207868995E+03  0.30519164161E+03  0.00000000000E+00 0. -1.
        -13    1    4    4    0    0 -0.11350414282E+02 -0.82330467840E+02  0.12959179136E+02  0.84113483836E+02  0.00000000000E+00 0. -1.
         13    1    4    4    0    0 -0.53253458688E+02 -0.22237890842E+01  0.75379188795E+02  0.92319543995E+02  0.00000000000E+00 0.  1.
         21    1    1    2  503  502  0.44764724469E+02 -0.40922315200E+02 -0.19524482966E+03  0.20444818402E+03  0.00000000000E+00 0. -1.
          3    1    1    2  501    0 -0.39406339943E+02  0.16397294442E+03 -0.96058506347E+02  0.19408045437E+03  0.00000000000E+00 0. -1.
<scales pt_clust_5="13000.00000" pt_clust_6="13000.00000" pt_clust_7="13000.00000" pt_clust_8="13000.00000" pt_clust_9="60.65077" pt_clust_10="13000.00000"></scales>
<clustering>
<clus scale="   60.651">  2  9  1 -1</clus>
<clus scale="   80.748">  5  6 -1 -1</clus>
<clus scale="  108.256">  1  5  2 -1</clus>
<clus scale="  109.553">  7  8 -1 -1</clus>
<clus scale="  125.156">  7 10 -1 -1</clus>
<clus scale="   60.651">  2  5  1 -1</clus>
</clustering>
</event>
<event>
10    4  0.2565852E-005  0.2513094E+03  0.7546771E-02  0.1146275E+00
          2   -1    0    0  503    0 -0.00000000000E+00  0.00000000000E+00  0.16292054463E+04  0.16292054463E+04  0.00000000000E+00 0. -1.
         21   -1    0    0  501  502  0.00000000000E+00 -0.00000000000E+00 -0.13148597054E+03  0.13148597054E+03  0.00000000000E+00 0.  1.
         24    2    1    2    0    0 -0.15237929229E+01  0.29686298085E+02  0.17238218069E+03  0.19395959053E+03  0.83792053925E+02 0.  0.
         23    2    1    2    0    0 -0.64737524885E+02 -0.15527816376E+03  0.10642552058E+04  0.10814707752E+04  0.92938900419E+02 0.  0.
        -11    1    3    3    0    0 -0.32693005483E+02  0.24336888830E+02  0.37379670333E+02  0.55302409710E+02  0.00000000000E+00 0.  1.
         12    1    3    3    0    0  0.31169212560E+02  0.53494092553E+01  0.13500251035E+03  0.13865718082E+03  0.00000000000E+00 0. -1.
        -11    1    4    4    0    0  0.22734151695E+02 -0.34580535841E+02  0.17638264725E+03  0.18117255136E+03  0.00000000000E+00 0.  1.
         11    1    4    4    0    0 -0.87471676580E+02 -0.12069762791E+03  0.88787255858E+03  0.90029822385E+03  0.00000000000E+00 0. -1.
         21    1    1    2  503  502  0.43476962719E+00  0.88423445430E+02 -0.89977808447E+02  0.12615427357E+03  0.00000000000E+00 0.  1.
          1    1    1    2  501    0  0.65826548181E+02  0.37168420241E+02  0.35105989765E+03  0.35910677750E+03  0.00000000000E+00 0. -1.
<scales pt_clust_5="13000.00000" pt_clust_6="13000.00000" pt_clust_7="13000.00000" pt_clust_8="13000.00000" pt_clust_9="88.42451" pt_clust_10="13000.00000"></scales>
<clustering>
<clus scale="   83.792">  5  6 -1 -1</clus>
<clus scale="   88.425">  2  9  1 -1</clus>
<clus scale="   92.939">  7  8 -1 -1</clus>
<clus scale="   84.169">  7 10 -1 -1</clus>
<clus scale="  109.461">  1  5  2 -1</clus>
<clus scale="   88.425">  2  5  1 -1</clus>
</clustering>
</event>
<event>
10    4  0.2565852E-005  0.7970087E+03  0.7546771E-02  0.1008605E+00
          2   -1    0    0  503    0 -0.00000000000E+00  0.00000000000E+00  0.26760913899E+04  0.26760913899E+04  0.00000000000E+00 0. -1.
         21   -1    0    0  501  502  0.00000000000E+00 -0.00000000000E+00 -0.50616121840E+03  0.50616121840E+03  0.00000000000E+00 0.  1.
         24    2    1    2    0    0 -0.94318365139E+01 -0.12715310155E+03  0.24179338036E+03  0.28466770490E+03  0.79465669657E+02 0.  0.
         23    2    1    2    0    0 -0.21212466380E+03 -0.98364960136E+02  0.27874565483E+03  0.37586744979E+03  0.94364513202E+02 0.  0.
        -11    1    3    3    0    0  0.28732612821E+02 -0.87144282765E+02  0.12132678626E+03  0.15211797436E+03  0.00000000000E+00 0.  1.
         12    1    3    3    0    0 -0.38164449335E+02 -0.40008818787E+02  0.12046659410E+03  0.13254973055E+03  0.00000000000E+00 0. -1.
        -13    1    4    4    0    0 -0.28847694558E+02  0.18056188365E+02  0.27151870810E+02  0.43536645576E+02  0.00000000000E+00 0.  1.
         13    1    4    4    0    0 -0.18327696924E+03 -0.11642114850E+03  0.25159378402E+03  0.33233080422E+03  0.00000000000E+00 0. -1.
         21    1    1    2  503  502 -0.13491239997E+03  0.56521590879E+02 -0.40457680132E+03  0.43020743144E+03  0.00000000000E+00 0.  1.
          1    1    1    2  501    0  0.35646890029E+03  0.16899647081E+03  0.20539679376E+04  0.20915100222E+04  0.00000000000E+00 0. -1.
<scales pt_clust_5="13000.00000" pt_clust_6="13000.00000" pt_clust_7="13000.00000" pt_clust_8="13000.00000" pt_clust_9="146.27387" pt_clust_10="13000.00000"></scales>
<clustering>
<clus scale="   79.466">  5  6 -1 -1</clus>
<clus scale="   94.365">  7  8 -1 -1</clus>
<clus scale="  146.274">  2  9  1 -1</clus>
<clus scale="  144.786">  1  5  2 -1</clus>
<clus scale="  309.391">  7 10 -1 -1</clus>
<clus scale="  146.274">  2  5  1 -1</clus>
</clustering>
</event>
<event>
10    4  0.2565852E-005  0.1630992E+03  0.7546771E-02  0.1210306E+00
         21   -1    0    0  501  502  0.00000000000E+00  0.00000000000E+00  0.10676891080E+03  0.10676891080E+03  0.00000000000E+00 0. -1.
          2   -1    0    0  503    0 -0.00000000000E+00 -0.00000000000E+00 -0.48879227204E+03  0.48879227204E+03  0.00000000000E+00 0. -1.
         24    2    1    2    0    0  0.26546977240E+02 -0.15750417200E+02 -0.10841797349E+03  0.13843319414E+03  0.80352191148E+02 0.  0.
         23    2    1    2    0    0 -0.36196265165E+02 -0.20408489399E+02 -0.14098750633E+03  0.17351161458E+03  0.92206981305E+02 0.  0.
        -13    1    3    3    0    0  0.20363248805E+02 -0.33881014204E+02 -0.11215380148E+03  0.11891618987E+03  0.00000000000E+00 0.  1.
         14    1    3    3    0    0  0.61837284346E+01  0.18130597004E+02  0.37358279937E+01  0.19517004275E+02  0.00000000000E+00 0. -1.
        -13    1    4    4    0    0 -0.20083939216E+01  0.30696468657E+02 -0.17075928849E+02  0.35183720386E+02  0.00000000000E+00 0.  1.
         13    1    4    4    0    0 -0.34187871244E+02 -0.51104958056E+02 -0.12391157748E+03  0.13832789420E+03  0.00000000000E+00 0. -1.
         21    1    1    2  503  502  0.42871035659E+02 -0.14811440840E+02  0.63636966134E+02  0.78147091673E+02  0.00000000000E+00 0. -1.
          1    1    1    2  501    0 -0.33221747734E+02  0.50970347439E+02 -0.19625484756E+03  0.20546928245E+03  0.00000000000E+00 0. -1.
<scales pt_clust_5="13000.00000" pt_clust_6="13000.00000" pt_clust_7="13000.00000" pt_clust_8="13000.00000" pt_clust_9="45.35752" pt_clust_10="13000.00000"></scales>
<clustering>
<clus scale="   45.358">  1  9  2 -1</clus>
<clus scale="   80.352">  5  6 -1 -1</clus>
<clus scale="   92.207">  7  8 -1 -1</clus>
<clus scale="   56.355">  7 10 -1 -1</clus>
<clus scale="   94.428">  2  5  1 -1</clus>
<clus scale="   45.358">  1  5  2 -1</clus>
</clustering>
</event>
<event>
10    4  0.2565852E-005  0.2218789E+03  0.7546771E-02  0.1159798E+00
          2   -1    0    0  502    0 -0.00000000000E+00  0.00000000000E+00  0.47926815520E+03  0.47926815520E+03  0.00000000000E+00 0. -1.
         21   -1    0    0  503  502  0.00000000000E+00 -0.00000000000E+00 -0.13449320622E+03  0.13449320622E+03  0.00000000000E+00 0.  1.
         24    2    1    2    0    0 -0.85247301708E+01 -0.82346562622E+02 -0.94746862767E+01  0.11409868911E+03  0.77943016217E+02 0.  0.
         23    2    1    2    0    0  0.17905505477E+02  0.11574950789E+03  0.20344203968E+03  0.25201731252E+03  0.91681549922E+02 0.  0.
        -11    1    3    3    0    0 -0.85300581663E+01 -0.71507719061E+02  0.26339409919E+02  0.76680377493E+02  0.00000000000E+00 0.  1.
         12    1    3    3    0    0  0.53279955861E-02 -0.10838843561E+02 -0.35814096195E+02  0.37418311619E+02  0.00000000000E+00 0. -1.
        -11    1    4    4    0    0 -0.25954679967E+02  0.53953658438E+02  0.40406005077E+02  0.72230796184E+02  0.00000000000E+00 0.  1.
         11    1    4    4    0    0  0.43860185444E+02  0.61795849455E+02  0.16303603460E+03  0.17978651633E+03  0.00000000000E+00 0. -1.
         21    1    1    2  503  501  0.48787373387E+02  0.59809057849E+00 -0.28216290360E+02  0.56362439230E+02  0.00000000000E+00 0.  1.
          1    1    1    2  501    0 -0.58168148693E+02 -0.34001035850E+02  0.17902388594E+03  0.19128292056E+03  0.00000000000E+00 0. -1.
<scales pt_clust_5="13000.00000" pt_clust_6="13000.00000" pt_clust_7="13000.00000" pt_clust_8="13000.00000" pt_clust_9="48.79104" pt_clust_10="13000.00000"></scales>
<clustering>
<clus scale="   48.791">  2  9  1 -1</clus>
<clus scale="   77.943">  5  6 -1 -1</clus>
<clus scale="   91.682">  7  8 -1 -1</clus>
<clus scale="   64.576">  7 10 -1 -1</clus>
<clus scale="  115.647">  1  5  2 -1</clus>
<clus scale="   48.791">  2  5  1 -1</clus>
</clustering>
</event>
<event>
10    4  0.2565852E-005  0.1848790E+03  0.7546771E-02  0.1187662E+00
         21   -1    0    0  501  502  0.00000000000E+00  0.00000000000E+00  0.11528415115E+03  0.11528415115E+03  0.00000000000E+00 0.  1.
         -3   -1    0    0    0  501 -0.00000000000E+00 -0.00000000000E+00 -0.44289320285E+03  0.44289320285E+03  0.00000000000E+00 0.  1.
         24    2    1    2    0    0  0.29927245976E+02  0.57169867216E+02 -0.16320583622E+03  0.19343188255E+03  0.81337042259E+02 0.  0.
         23    2    1    2    0    0  0.40530320715E+01 -0.11105202197E+03 -0.10663199511E+03  0.17747752219E+03  0.88198128384E+02 0.  0.
        -11    1    3    3    0    0  0.72592436480E+01  0.72583085890E+02 -0.93915819228E+02  0.11891670226E+03  0.00000000000E+00 0.  1.
         12    1    3    3    0    0  0.22668002328E+02 -0.15413218674E+02 -0.69290016987E+02  0.74515180289E+02  0.00000000000E+00 0. -1.
        -11    1    4    4    0    0  0.64544845478E+01 -0.78933445307E+02 -0.11902659838E+03  0.14296671040E+03  0.00000000000E+00 0. -1.
         11    1    4    4    0    0 -0.24014524763E+01 -0.32118576661E+02  0.12394603271E+02  0.34510811798E+02  0.00000000000E+00 0.  1.
         21    1    1    2  503  502 -0.44112071790E+02  0.30290657909E+02  0.51951535631E+02  0.74581236841E+02  0.00000000000E+00 0.  1.
         -4    1    1    2    0  503  0.10131793743E+02  0.23591496843E+02 -0.10972275601E+03  0.11268671241E+03  0.00000000000E+00 0.  1.
<scales pt_clust_5="13000.00000" pt_clust_6="13000.00000" pt_clust_7="13000.00000" pt_clust_8="13000.00000" pt_clust_9="53.51074" pt_clust_10="13000.00000"></scales>
<clustering>
<clus scale="   53.511">  1  9  2 -1</clus>
<clus scale="   81.337">  5  6 -1 -1</clus>
<clus scale="   88.198">  7  8 -1 -1</clus>
<clus scale="   26.015">  7 10 -1 -1</clus>
<clus scale="  106.116">  2  5  1 -1</clus>
<clus scale="   53.511">  1  5  2 -1</clus>
</clustering>
</event>
<event>
10    4  0.2565852E-005  0.3608364E+03  0.7546771E-02  0.1113105E+00
         21   -1    0    0  501  502  0.00000000000E+00  0.00000000000E+00  0.11916168335E+03  0.11916168335E+03  0.00000000000E+00 0. -1.
          2   -1    0    0  503    0 -0.00000000000E+00 -0.00000000000E+00 -0.11274812637E+04  0.11274812637E+04  0.00000000000E+00 0. -1.
         24    2    1    2    0    0  0.15124606467E+02  0.15236027621E+01 -0.71020777146E+03  0.71507912095E+03  0.81926769086E+02 0.  0.
         23    2    1    2    0    0  0.29596227665E+01  0.66821498452E+02  0.30043290608E+02  0.12141022782E+03  0.96767618999E+02 0.  0.
        -11    1    3    3    0    0 -0.16803580384E+02  0.18985281102E+02 -0.82277631678E+02  0.86095353457E+02  0.00000000000E+00 0.  1.
         12    1    3    3    0    0  0.31928186851E+02 -0.17461678340E+02 -0.62793013978E+03  0.62898376749E+03  0.00000000000E+00 0. -1.
        -11    1    4    4    0    0 -0.37404797485E+02  0.25281367060E+02 -0.15493914716E+02  0.47731832026E+02  0.00000000000E+00 0.  1.
         11    1    4    4    0    0  0.40364420251E+02  0.41540131392E+02  0.45537205324E+02  0.73678395795E+02  0.00000000000E+00 0. -1.
         21    1    1    2  503  502  0.42365428499E+02  0.30499743251E+02  0.96004337813E+01  0.53077605438E+02  0.00000000000E+00 0. -1.
          1    1    1    2  501    0 -0.60449657733E+02 -0.98844844465E+02 -0.33775553328E+03  0.35707599283E+03  0.00000000000E+00 0. -1.
<scales pt_clust_5="13000.00000" pt_clust_6="13000.00000" pt_clust_7="13000.00000" pt_clust_8="13000.00000" pt_clust_9="52.20214" pt_clust_10="13000.00000"></scales>
<clustering>
<clus scale="   52.202">  1  9  2 -1</clus>
<clus scale="   81.927">  5  6 -1 -1</clus>
<clus scale="   83.566">  2  5  1 -1</clus>
<clus scale="   96.768">  7  8 -1 -1</clus>
<clus scale="  103.081">  7 10 -1 -1</clus>
<clus scale="   52.202">  1  5  2 -1</clus>
</clustering>
</event>
<event>
10    4  0.2565852E-005  0.2320760E+03  0.7546771E-02  0.1156652E+00
         -1   -1    0    0    0  501 -0.00000000000E+00  0.00000000000E+00  0.44862053950E+03  0.44862053950E+03  0.00000000000E+00 0.  1.
         21   -1    0    0  503  502  0.00000000000E+00 -0.00000000000E+00 -0.15786289346E+03  0.15786289346E+03  0.00000000000E+00 0. -1.
         24    2    1    2    0    0 -0.57545859480E+02  0.63074715718E+01  0.12269735503E+03  0.15837264318E+03  0.81706444274E+02 0.  0.
         23    2    1    2    0    0  0.34920786928E+02 -0.27535384338E+02  0.90772135077E+01  0.10392271241E+03  0.93487301811E+02 0.  0.
        -11    1    3    3    0    0 -0.72450157899E+02 -0.13949486984E+02  0.80072874646E+02  0.10888194901E+03  0.00000000000E+00 0.  1.
         12    1    3    3    0    0  0.14904298419E+02  0.20256958556E+02  0.42624480382E+02  0.49490694167E+02  0.00000000000E+00 0. -1.
        -11    1    4    4    0    0  0.37646880036E+02 -0.58591730559E+02 -0.47762222129E+01  0.69807526564E+02  0.00000000000E+00 0. -1.
         11    1    4    4    0    0 -0.27260931073E+01  0.31056346221E+02  0.13853435721E+02  0.34115185849E+02  0.00000000000E+00 0.  1.
         21    1    1    2  503  501 -0.46507398977E+02  0.51298974160E+02 -0.72789218567E+02  0.10046289489E+03  0.00000000000E+00 0. -1.
         -2    1    1    2    0  502  0.69132471529E+02 -0.30071061394E+02  0.23177229607E+03  0.24372518248E+03  0.00000000000E+00 0.  1.
<scales pt_clust_5="13000.00000" pt_clust_6="13000.00000" pt_clust_7="13000.00000" pt_clust_8="13000.00000" pt_clust_9="69.24249" pt_clust_10="13000.00000"></scales>
<clustering>
<clus scale="   69.242">  2  9  1 -1</clus>
<clus scale="   81.706">  5  6 -1 -1</clus>
<clus scale="   93.487">  7  8 -1 -1</clus>
<clus scale="   70.136">  7 10 -1 -1</clus>
<clus scale="  108.767">  1  5  2 -1</clus>
<clus scale="   69.242">  2  5  1 -1</clus>
</clustering>
</event>
<event>
10    4  0.2565852E-005  0.1507740E+03  0.7546771E-02  0.1226173E+00
         -1   -1    0    0    0  501 -0.00000000000E+00  0.00000000000E+00  0.44126165162E+03  0.44126165162E+03  0.00000000000E+00 0.  1.
         21   -1    0    0  501  502  0.00000000000E+00 -0.00000000000E+00 -0.54257735995E+02  0.54257735995E+02  0.00000000000E+00 0.  1.
         24    2    1    2    0    0 -0.49242313349E+01 -0.38994031409E+02  0.13208535168E+03  0.15966006120E+03  0.80622654834E+02 0.  0.
         23    2    1    2    0    0 -0.57600283146E+02  0.14338344023E+02  0.23068719386E+03  0.25579165016E+03  0.93216984248E+02 0.  0.
        -13    1    3    3    0    0  0.26731223620E+02 -0.27467836789E+02  0.21264286059E+02  0.43831612287E+02  0.00000000000E+00 0.  1.
         14    1    3    3    0    0 -0.31655454955E+02 -0.11526194620E+02  0.11082106563E+03  0.11582844891E+03  0.00000000000E+00 0. -1.
        -13    1    4    4    0    0 -0.83224894350E+02  0.15400481132E+02  0.16985844527E+03  0.18977736769E+03  0.00000000000E+00 0.  1.
         13    1    4    4    0    0  0.25624611204E+02 -0.10621371087E+01  0.60828748592E+02  0.66014282469E+02  0.00000000000E+00 0. -1.
         21    1    1    2  503  502  0.31722755205E+02  0.28532443867E+02  0.36545442136E+01  0.42822765491E+02  0.00000000000E+00 0.  1.
         -2    1    1    2    0  503  0.30801759276E+02 -0.38767564819E+01  0.20576825869E+02  0.37244910768E+02  0.00000000000E+00 0.  1.
<scales pt_clust_5="13000.00000" pt_clust_6="13000.00000" pt_clust_7="13000.00000" pt_clust_8="13000.00000" pt_clust_9="42.66654" pt_clust_10="13000.00000"></scales>
<clustering>
<clus scale="   42.667">  2  9  1 -1</clus>
<clus scale="   80.623">  5  6 -1 -1</clus>
<clus scale="   85.578">  1  5  2 -1</clus>
<clus scale="   93.217">  7  8 -1 -1</clus>
<clus scale="   39.893">  7 10 -1 -1</clus>
<clus scale="   42.667">  2  5  1 -1</clus>
</clustering>
</event>
<event>
10    4  0.2565852E-005  0.2739920E+03  0.7546771E-02  0.1136860E+00
          4   -1    0    0  503    0 -0.00000000000E+00  0.00000000000E+00  0.66699988672E+03  0.66699988672E+03  0.00000000000E+00 0. -1.
         21   -1    0    0  501  502  0.00000000000E+00 -0.00000000000E+00 -0.12135514985E+03  0.12135514985E+03  0.00000000000E+00 0. -1.
         24    2    1    2    0    0  0.58058791954E+02  0.23702332415E+02  0.26386242687E+03  0.28433320220E+03  0.85377782088E+02 0.  0.
         23    2    1    2    0    0  0.94270617290E+01 -0.15483438814E+03  0.14937893458E+03  0.23801665948E+03  0.10136718823E+03 0.  0.
        -11    1    3    3    0    0  0.25124236490E+02 -0.30550289830E+02  0.13522335430E+03  0.14088968385E+03  0.00000000000E+00 0.  1.
         12    1    3    3    0    0  0.32934555464E+02  0.54252622245E+02  0.12863907257E+03  0.14344351834E+03  0.00000000000E+00 0. -1.
        -13    1    4    4    0    0 -0.29367733769E+02 -0.13380405086E+03  0.89502267561E+02  0.16363570427E+03  0.00000000000E+00 0. -1.
         13    1    4    4    0    0  0.38794795498E+02 -0.21030337275E+02  0.59876667023E+02  0.74380955206E+02  0.00000000000E+00 0.  1.
         21    1    1    2  503  502 -0.12811966781E+03  0.79339932254E+02  0.92691438687E+02  0.17692138632E+03  0.00000000000E+00 0. -1.
          3    1    1    2  501    0  0.60633814128E+02  0.51792123468E+02  0.39711936736E+02  0.89083788583E+02  0.00000000000E+00 0. -1.
<scales pt_clust_5="13000.00000" pt_clust_6="13000.00000" pt_clust_7="13000.00000" pt_clust_8="13000.00000" pt_clust_9="139.13498" pt_clust_10="13000.00000"></scales>
<clustering>
<clus scale="   85.378">  5  6 -1 -1</clus>
<clus scale="  101.367">  7  8 -1 -1</clus>
<clus scale="   79.743">  7 10 -1 -1</clus>
<clus scale="  105.934">  1  5  2 -1</clus>
<clus scale="  139.135">  2  9  1 -1</clus>
<clus scale="  139.135">  2  5  1 -1</clus>
</clustering>
</event>
<event>
10    4  0.2565852E-005  0.2156582E+03  0.7546771E-02  0.1156086E+00
          2   -1    0    0  503    0 -0.00000000000E+00  0.00000000000E+00  0.39112624120E+03  0.39112624120E+03  0.00000000000E+00 0. -1.
         21   -1    0    0  501  502  0.00000000000E+00 -0.00000000000E+00 -0.13918684222E+03  0.13918684222E+03  0.00000000000E+00 0.  1.
         24    2    1    2    0    0 -0.47174882011E+02  0.11524352075E+03  0.40730224334E+02  0.15377607031E+03  0.80508322913E+02 0.  0.
         23    2    1    2    0    0  0.15792038689E+02 -0.29241729767E+02  0.22290075976E+03  0.24360934650E+03  0.92500258112E+02 0.  0.
        -13    1    3    3    0    0 -0.39646659821E+01  0.10189411950E+03  0.19514388476E+02  0.10382168137E+03  0.00000000000E+00 0.  1.
         14    1    3    3    0    0 -0.43210216029E+02  0.13349401248E+02  0.21215835858E+02  0.49954388937E+02  0.00000000000E+00 0. -1.
        -13    1    4    4    0    0  0.45902916149E+02  0.52905375249E+01  0.69070763294E+02  0.83101370869E+02  0.00000000000E+00 0.  1.
         13    1    4    4    0    0 -0.30110877460E+02 -0.34532267292E+02  0.15382999647E+03  0.16050797563E+03  0.00000000000E+00 0. -1.
         21    1    1    2  503  502  0.42778047038E+02 -0.10532280956E+02 -0.31398649136E+02  0.54099587966E+02  0.00000000000E+00 0.  1.
          1    1    1    2  501    0 -0.11395203715E+02 -0.75469510029E+02  0.19707064011E+02  0.78828078650E+02  0.00000000000E+00 0. -1.
<scales pt_clust_5="13000.00000" pt_clust_6="13000.00000" pt_clust_7="13000.00000" pt_clust_8="13000.00000" pt_clust_9="44.05554" pt_clust_10="13000.00000"></scales>
<clustering>
<clus scale="   44.056">  2  9  1 -1</clus>
<clus scale="   80.508">  5  6 -1 -1</clus>
<clus scale="   92.500">  7  8 -1 -1</clus>
<clus scale="   78.717">  7 10 -1 -1</clus>
<clus scale="  137.355">  1  5  2 -1</clus>
<clus scale="   44.056">  2  5  1 -1</clus>
</clustering>
</event>
<event>
10    4  0.2565852E-005  0.1545621E+03  0.7546771E-02  0.1214126E+00
          2   -1    0    0  503    0 -0.00000000000E+00  0.00000000000E+00  0.12003339924E+04  0.12003339924E+04  0.00000000000E+00 0. -1.
         21   -1    0    0  501  502  0.00000000000E+00 -0.00000000000E+00 -0.45933335915E+02  0.45933335915E+02  0.00000000000E+00 0.  1.
         24    2    1    2    0    0  0.63747694624E+02  0.45519648031E+01  0.95995863672E+03  0.96543335662E+03  0.80352304901E+02 0.  0.
         23    2    1    2    0    0 -0.58352416189E+02 -0.12804543747E+02  0.20007093709E+03  0.22874446914E+03  0.93416762308E+02 0.  0.
        -13    1    3    3    0    0  0.32693849210E+02  0.24388965751E+02  0.17827307100E+03  0.18287973444E+03  0.00000000000E+00 0.  1.
         14    1    3    3    0    0  0.31053845414E+02 -0.19837000948E+02  0.78168556573E+03  0.78255362218E+03  0.00000000000E+00 0. -1.
        -13    1    4    4    0    0 -0.72491195285E+02  0.18223587297E+02  0.11570760803E+03  0.13775094585E+03  0.00000000000E+00 0.  1.
         13    1    4    4    0    0  0.14138779096E+02 -0.31028131044E+02  0.84363329064E+02  0.90993523292E+02  0.00000000000E+00 0. -1.
         21    1    1    2  503  502 -0.50831093874E+01 -0.19555499434E+02 -0.12080234197E+02  0.23541189805E+02  0.00000000000E+00 0.  1.
          1    1    1    2  501    0 -0.31216904800E+00  0.27808078378E+02  0.64513168977E+01  0.28548312775E+02  0.00000000000E+00 0. -1.
<scales pt_clust_5="13000.00000" pt_clust_6="13000.00000" pt_clust_7="13000.00000" pt_clust_8="13000.00000" pt_clust_9="20.20533" pt_clust_10="13000.00000"></scales>
<clustering>
<clus scale="   20.205">  2  9  1 -1</clus>
<clus scale="   80.352">  5  6 -1 -1</clus>
<clus scale="   93.417">  7  8 -1 -1</clus>
<clus scale="   20.257">  7 10 -1 -1</clus>
<clus scale="  102.296">  1  5  2 -1</clus>
<clus scale="   20.205">  2  5  1 -1</clus>
</clustering>
</event>
<event>
10    4  0.2565852E-005  0.2225704E+03  0.7546771E-02  0.1166818E+00
          2   -1    0    0  502    0 -0.00000000000E+00  0.00000000000E+00  0.11339545928E+04  0.11339545928E+04  0.00000000000E+00 0. -1.
         21   -1    0    0  503  502  0.00000000000E+00 -0.00000000000E+00 -0.31595922031E+02  0.31595922031E+02  0.00000000000E+00 0. -1.
         24    2    1    2    0    0 -0.58762551278E+02  0.49427781127E+01  0.57904554283E+03  0.58746588800E+03  0.79655259754E+02 0.  0.
         23    2    1    2    0    0  0.82565187448E+00  0.76251988540E+02  0.25896174028E+03  0.28486286252E+03  0.90942949469E+02 0.  0.
        -13    1    3    3    0    0  0.15062086008E+02  0.15768734017E+02  0.81947051934E+02  0.84798813247E+02  0.00000000000E+00 0.  1.
         14    1    3    3    0    0 -0.73824637286E+02 -0.10825955904E+02  0.49709849089E+03  0.50266707475E+03  0.00000000000E+00 0. -1.
        -13    1    4    4    0    0  0.17594860024E+02  0.29376488852E+02  0.17755034720E+02  0.38571990543E+02  0.00000000000E+00 0.  1.
         13    1    4    4    0    0 -0.16769208150E+02  0.46875499688E+02  0.24120670556E+03  0.24629087198E+03  0.00000000000E+00 0. -1.
         21    1    1    2  503  501  0.20616648217E+02  0.12311608128E+02  0.32102495953E+02  0.40089800758E+02  0.00000000000E+00 0.  1.
          1    1    1    2  501    0  0.37320251186E+02 -0.93506374780E+02  0.23224889176E+03  0.25313196360E+03  0.00000000000E+00 0. -1.
<scales pt_clust_5="13000.00000" pt_clust_6="13000.00000" pt_clust_7="13000.00000" pt_clust_8="13000.00000" pt_clust_9="24.01295" pt_clust_10="13000.00000"></scales>
<clustering>
<clus scale="   24.013">  2  9  1 -1</clus>
<clus scale="   79.655">  5  6 -1 -1</clus>
<clus scale="   90.943">  7  8 -1 -1</clus>
<clus scale="   97.390">  1  5  2 -1</clus>
<clus scale="   88.201">  7 10 -1 -1</clus>
<clus scale="   24.013">  2  5  1 -1</clus>
</clustering>
</event>
<event>
10    4  0.2565852E-005  0.2728348E+03  0.7546771E-02  0.1118382E+00
         -1   -1    0    0    0  501 -0.00000000000E+00  0.00000000000E+00  0.42908050441E+03  0.42908050441E+03  0.00000000000E+00 0.  1.
         21   -1    0    0  501  502  0.00000000000E+00 -0.00000000000E+00 -0.13364189787E+04  0.13364189787E+04  0.00000000000E+00 0. -1.
         24    2    1    2    0    0  0.12984028641E+03 -0.70939316685E+02  0.29214863678E+03  0.33762756397E+03  0.82162396205E+02 0.  0.
         23    2    1    2    0    0 -0.12211455941E+03 -0.14445329455E+03 -0.63686546351E+02  0.21967109952E+03  0.91764349567E+02 0.  0.
        -13    1    3    3    0    0  0.21436252003E+02 -0.47953774070E+02  0.56045666708E+02  0.76812720980E+02  0.00000000000E+00 0.  1.
         14    1    3    3    0    0  0.10840403441E+03 -0.22985542615E+02  0.23610297008E+03  0.26081484299E+03  0.00000000000E+00 0. -1.
        -11    1    4    4    0    0 -0.50937267090E+02 -0.63139747977E+02 -0.75677201142E+02  0.11094265062E+03  0.00000000000E+00 0. -1.
         11    1    4    4    0    0 -0.71177292315E+02 -0.81313546577E+02  0.11990654792E+02  0.10872844890E+03  0.00000000000E+00 0.  1.
         21    1    1    2  503  502 -0.11626491414E+01  0.25497505381E+03 -0.11397138908E+04  0.11678875728E+04  0.00000000000E+00 0. -1.
         -2    1    1    2    0  503 -0.65630778613E+01 -0.39582442566E+02  0.39133260465E+01  0.40313246846E+02  0.00000000000E+00 0.  1.
<scales pt_clust_5="13000.00000" pt_clust_6="13000.00000" pt_clust_7="13000.00000" pt_clust_8="13000.00000" pt_clust_9="246.67161" pt_clust_10="13000.00000"></scales>
<clustering>
<clus scale="   82.162">  5  6 -1 -1</clus>
<clus scale="   91.764">  7  8 -1 -1</clus>
<clus scale="   40.123">  7 10 -1 -1</clus>
<clus scale="  169.238">  1  5  2 -1</clus>
<clus scale="  246.672">  2  9  1 -1</clus>
<clus scale="  246.672">  2  5  1 -1</clus>
</clustering>
</event>
<event>
10    4  0.2565852E-005  0.3181245E+03  0.7546771E-02  0.1118446E+00
          2   -1    0    0  503    0 -0.00000000000E+00  0.00000000000E+00  0.20008588828E+03  0.20008588828E+03  0.00000000000E+00 0. -1.
         21   -1    0    0  501  502  0.00000000000E+00 -0.00000000000E+00 -0.61087794903E+03  0.61087794903E+03  0.00000000000E+00 0. -1.
         24    2    1    2    0    0 -0.11310842740E+02 -0.71269213300E+02  0.13053673141E+03  0.16856966749E+03  0.78540808649E+02 0.  0.
         23    2    1    2    0    0 -0.72123906944E+02 -0.63593269425E+02 -0.25596699378E+03  0.29644093748E+03  0.11450836493E+03 0.  0.
        -11    1    3    3    0    0 -0.13392779098E+02 -0.30654928429E+02  0.17322348458E+01  0.33497638820E+02  0.00000000000E+00 0.  1.
         12    1    3    3    0    0  0.20819363576E+01 -0.40614284870E+02  0.12880449656E+03  0.13507202867E+03  0.00000000000E+00 0. -1.
        -11    1    4    4    0    0  0.27005294897E+02 -0.30887728463E+02 -0.43974691723E+02  0.60142424579E+02  0.00000000000E+00 0.  1.
         11    1    4    4    0    0 -0.99129201841E+02 -0.32705540962E+02 -0.21199230206E+03  0.23629851290E+03  0.00000000000E+00 0. -1.
         21    1    1    2  503  502 -0.26160534083E+02  0.74659962031E+01 -0.47032507334E+02  0.54333888035E+02  0.00000000000E+00 0.  1.
          1    1    1    2  501    0  0.10959528377E+03  0.12739648652E+03 -0.23832929105E+03  0.29161934431E+03  0.00000000000E+00 0. -1.
<scales pt_clust_5="13000.00000" pt_clust_6="13000.00000" pt_clust_7="13000.00000" pt_clust_8="13000.00000" pt_clust_9="27.20505" pt_clust_10="13000.00000"></scales>
<clustering>
<clus scale="   27.205">  2  9  1 -1</clus>
<clus scale="   78.541">  5  6 -1 -1</clus>
<clus scale="  106.587">  1  5  2 -1</clus>
<clus scale="  114.508">  7  8 -1 -1</clus>
<clus scale="  130.611">  7 10 -1 -1</clus>
<clus scale="   27.205">  2  5  1 -1</clus>
</clustering>
</event>
<event>
10    4  0.2565852E-005  0.2583575E+03  0.7546771E-02  0.1120779E+00
         21   -1    0    0  503  502  0.00000000000E+00  0.00000000000E+00  0.66148876545E+02  0.66148876545E+02  0.00000000000E+00 0.  1.
          2   -1    0    0  502    0 -0.00000000000E+00 -0.00000000000E+00 -0.11892343002E+04  0.11892343002E+04  0.00000000000E+00 0. -1.
         24    2    1    2    0    0 -0.17268107070E+03 -0.21441792431E+02 -0.64192331130E+03  0.66969417498E+03  0.78398008742E+02 0.  0.
         23    2    1    2    0    0  0.16866701923E+03  0.74371281946E+02 -0.47681771667E+03  0.51939621420E+03  0.91856635222E+02 0.  0.
        -11    1    3    3    0    0 -0.15321641298E+03 -0.35513586151E+02 -0.45894840050E+03  0.48514958346E+03  0.00000000000E+00 0.  1.
         12    1    3    3    0    0 -0.19464657717E+02  0.14071793720E+02 -0.18297491080E+03  0.18454459153E+03  0.00000000000E+00 0. -1.
        -11    1    4    4    0    0  0.14750359041E+03  0.94866905719E+02 -0.42546050469E+03  0.46018874392E+03  0.00000000000E+00 0.  1.
         11    1    4    4    0    0  0.21163428825E+02 -0.20495623773E+02 -0.51357211985E+02  0.59207470275E+02  0.00000000000E+00 0. -1.
         21    1    1    2  503  501  0.14602410137E+02 -0.22879221108E+02  0.12914048056E+02  0.30057640917E+02  0.00000000000E+00 0. -1.
          1    1    1    2  501    0 -0.10588358675E+02 -0.30050268407E+02 -0.17258443697E+02  0.36235146606E+02  0.00000000000E+00 0. -1.
<scales pt_clust_5="13000.00000" pt_clust_6="13000.00000" pt_clust_7="13000.00000" pt_clust_8="13000.00000" pt_clust_9="27.14202" pt_clust_10="13000.00000"></scales>
<clustering>
<clus scale="   27.142">  1  9  2 -1</clus>
<clus scale="   78.398">  5  6 -1 -1</clus>
<clus scale="   91.857">  7  8 -1 -1</clus>
<clus scale="   35.704">  7 10 -1 -1</clus>
<clus scale="  187.705">  2  5  1 -1</clus>
<clus scale="   27.142">  1  5  2 -1</clus>
</clustering>
</event>
<event>
10    4  0.2565852E-005  0.2179908E+03  0.7546771E-02  0.1160711E+00
          2   -1    0    0  502    0 -0.00000000000E+00  0.00000000000E+00  0.11622970881E+03  0.11622970881E+03  0.00000000000E+00 0. -1.
         21   -1    0    0  503  502  0.00000000000E+00 -0.00000000000E+00 -0.42098525851E+03  0.42098525851E+03  0.00000000000E+00 0.  1.
         24    2    1    2    0    0 -0.73560551795E+02  0.66437770170E+02 -0.19915191373E+03  0.23703999987E+03  0.81861741423E+02 0.  0.
         23    2    1    2    0    0 -0.10407431066E+02 -0.16548185411E+02 -0.15090727994E+03  0.17661299683E+03  0.89649241211E+02 0.  0.
        -13    1    3    3    0    0 -0.51715580187E+02  0.50215274670E+02 -0.19696672207E+03  0.20974261524E+03  0.00000000000E+00 0.  1.
         14    1    3    3    0    0 -0.21844971609E+02  0.16222495501E+02 -0.21851916583E+01  0.27297384626E+02  0.00000000000E+00 0. -1.
        -11    1    4    4    0    0  0.22782014322E+02 -0.33285748537E+02 -0.12488823609E+03  0.13124036249E+03  0.00000000000E+00 0.  1.
         11    1    4    4    0    0 -0.33189445388E+02  0.16737563125E+02 -0.26019043848E+02  0.45372634344E+02  0.00000000000E+00 0. -1.
         21    1    1    2  503  501  0.91373199762E+01 -0.25441705827E+02  0.34914244837E+02  0.44156262345E+02  0.00000000000E+00 0. -1.
          1    1    1    2  501    0  0.74830662885E+02 -0.24447878932E+02  0.10389399130E+02  0.79405708273E+02  0.00000000000E+00 0. -1.
<scales pt_clust_5="13000.00000" pt_clust_6="13000.00000" pt_clust_7="13000.00000" pt_clust_8="13000.00000" pt_clust_9="27.03279" pt_clust_10="13000.00000"></scales>
<clustering>
<clus scale="   27.033">  2  9  1 -1</clus>
<clus scale="   81.862">  5  6 -1 -1</clus>
<clus scale="   89.649">  7  8 -1 -1</clus>
<clus scale="   80.117">  7 10 -1 -1</clus>
<clus scale="  119.382">  1  5  2 -1</clus>
<clus scale="   27.033">  2  5  1 -1</clus>
</clustering>
</event>
<event>
10    4  0.2565852E-005  0.2153128E+03  0.7546771E-02  0.1174957E+00
         21   -1    0    0  503  502  0.00000000000E+00  0.00000000000E+00  0.81574492574E+02  0.81574492574E+02  0.00000000000E+00 0.  1.
          4   -1    0    0  502    0 -0.00000000000E+00 -0.00000000000E+00 -0.81266023382E+03  0.81266023382E+03  0.00000000000E+00 0. -1.
         24    2    1    2    0    0  0.25374956456E+02  0.35267398257E+02 -0.35019239095E+03  0.36193960228E+03  0.80485323058E+02 0.  0.
         23    2    1    2    0    0  0.39603831308E+02 -0.86220881609E+02 -0.22542039799E+03  0.26320919583E+03  0.97273948525E+02 0.  0.
        -13    1    3    3    0    0 -0.29030414518E+02  0.69999277943E+01 -0.12861458043E+03  0.13203588245E+03  0.00000000000E+00 0.  1.
         14    1    3    3    0    0  0.54405370974E+02  0.28267470463E+02 -0.22157781052E+03  0.22990371983E+03  0.00000000000E+00 0. -1.
        -11    1    4    4    0    0 -0.92712961198E+01  0.18292607814E+02 -0.33959122074E+02  0.39671128096E+02  0.00000000000E+00 0. -1.
         11    1    4    4    0    0  0.48875127428E+02 -0.10451348942E+03 -0.19146127592E+03  0.22353806774E+03  0.00000000000E+00 0.  1.
         21    1    1    2  503  501 -0.28281671378E+02 -0.11025884735E+02  0.46006603486E+02  0.55118333015E+02  0.00000000000E+00 0.  1.
          3    1    1    2  501    0 -0.36697116386E+02  0.61979368087E+02 -0.20147955580E+03  0.21396759527E+03  0.00000000000E+00 0. -1.
<scales pt_clust_5="13000.00000" pt_clust_6="13000.00000" pt_clust_7="13000.00000" pt_clust_8="13000.00000" pt_clust_9="30.35495" pt_clust_10="13000.00000"></scales>
<clustering>
<clus scale="   30.355">  1  9  2 -1</clus>
<clus scale="   80.485">  5  6 -1 -1</clus>
<clus scale="   89.328">  2  5  1 -1</clus>
<clus scale="   97.274">  7  8 -1 -1</clus>
<clus scale="   82.106">  7 10 -1 -1</clus>
<clus scale="   30.355">  1  5  2 -1</clus>
</clustering>
</event>
<event>
10    4  0.2565852E-005  0.1761839E+03  0.7546771E-02  0.1200133E+00
          2   -1    0    0  502    0 -0.00000000000E+00  0.00000000000E+00  0.61332408115E+03  0.61332408115E+03  0.00000000000E+00 0. -1.
         21   -1    0    0  503  502  0.00000000000E+00 -0.00000000000E+00 -0.74135776881E+02  0.74135776881E+02  0.00000000000E+00 0.  1.
         24    2    1    2    0    0  0.44610430764E+02 -0.15743312357E+02  0.32777858820E+03  0.34055752144E+03  0.79389420645E+02 0.  0.
         23    2    1    2    0    0 -0.67712089853E+01  0.38678380857E+02  0.63434400513E+02  0.11752822785E+03  0.90813516381E+02 0.  0.
        -13    1    3    3    0    0 -0.13399483844E+00  0.29041315821E+02  0.97135901900E+02  0.10138441407E+03  0.00000000000E+00 0.  1.
         14    1    3    3    0    0  0.44744425602E+02 -0.44784628178E+02  0.23064268630E+03  0.23917310737E+03  0.00000000000E+00 0. -1.
        -11    1    4    4    0    0  0.27487516842E+02 -0.15688534464E+02  0.35206074251E+02  0.47340905778E+02  0.00000000000E+00 0. -1.
         11    1    4    4    0    0 -0.34258725827E+02  0.54366915320E+02  0.28228326262E+02  0.70187322076E+02  0.00000000000E+00 0.  1.
         21    1    1    2  503  501  0.11330600975E+01 -0.21615996958E+02 -0.35621195331E+02  0.41682186921E+02  0.00000000000E+00 0.  1.
          1    1    1    2  501    0 -0.38972281876E+02 -0.13190715415E+01  0.18359651088E+03  0.18769192181E+03  0.00000000000E+00 0. -1.
<scales pt_clust_5="13000.00000" pt_clust_6="13000.00000" pt_clust_7="13000.00000" pt_clust_8="13000.00000" pt_clust_9="21.64567" pt_clust_10="13000.00000"></scales>
<clustering>
<clus scale="   21.646">  2  9  1 -1</clus>
<clus scale="   79.389">  5  6 -1 -1</clus>
<clus scale="   90.814">  7  8 -1 -1</clus>
<clus scale="   38.991">  7 10 -1 -1</clus>
<clus scale="   93.255">  1  5  2 -1</clus>
<clus scale="   21.646">  2  5  1 -1</clus>
</clustering>
</event>
<event>
10    4  0.2565852E-005  0.3188253E+03  0.7546771E-02  0.1109868E+00
          2   -1    0    0  502    0 -0.00000000000E+00  0.00000000000E+00  0.33140383994E+03  0.33140383994E+03  0.00000000000E+00 0. -1.
         21   -1    0    0  503  502  0.00000000000E+00 -0.00000000000E+00 -0.19587105798E+03  0.19587105798E+03  0.00000000000E+00 0. -1.
         24    2    1    2    0    0 -0.10752454406E+03 -0.33639029231E+02 -0.83981977084E+01  0.13890718377E+03  0.80818092739E+02 0.  0.
         23    2    1    2    0    0 -0.25772105259E+01 -0.90375153288E+01 -0.69221636980E+02  0.11712453090E+03  0.94011712112E+02 0.  0.
        -13    1    3    3    0    0 -0.35328951719E+02  0.24712714259E+02 -0.15479374328E+02  0.45808995898E+02  0.00000000000E+00 0.  1.
         14    1    3    3    0    0 -0.72195592344E+02 -0.58351743490E+02  0.70811766199E+01  0.93098187870E+02  0.00000000000E+00 0. -1.
        -11    1    4    4    0    0 -0.88987827384E+01  0.22489692340E+02  0.13972844926E+02  0.27932328781E+02  0.00000000000E+00 0.  1.
         11    1    4    4    0    0  0.63215722125E+01 -0.31527207669E+02 -0.83194481906E+02  0.89192202116E+02  0.00000000000E+00 0. -1.
         21    1    1    2  503  501  0.12224314631E+02  0.41709984032E+02  0.83602584197E+01  0.44261163078E+02  0.00000000000E+00 0. -1.
          1    1    1    2  501    0  0.97877439958E+02  0.96656052757E+00  0.20479235823E+03  0.22698202017E+03  0.00000000000E+00 0. -1.
<scales pt_clust_5="13000.00000" pt_clust_6="13000.00000" pt_clust_7="13000.00000" pt_clust_8="13000.00000" pt_clust_9="43.46443" pt_clust_10="13000.00000"></scales>
<clustering>
<clus scale="   43.464">  2  9  1 -1</clus>
<clus scale="   80.818">  5  6 -1 -1</clus>
<clus scale="   94.012">  7  8 -1 -1</clus>
<clus scale="   98.704">  7 10 -1 -1</clus>
<clus scale="  131.524">  1  5  2 -1</clus>
<clus scale="   43.464">  2  5  1 -1</clus>
</clustering>
</event>
<event>
10    4  0.2565852E-005  0.6577975E+03  0.7546771E-02  0.1024908E+00
         21   -1    0    0  501  502  0.00000000000E+00  0.00000000000E+00  0.52671803757E+03  0.52671803757E+03  0.00000000000E+00 0. -1.
          2   -1    0    0  503    0 -0.00000000000E+00 -0.00000000000E+00 -0.79586207537E+03  0.79586207537E+03  0.00000000000E+00 0. -1.
         24    2    1    2    0    0  0.12057975568E+03 -0.11697985621E+03 -0.89882666967E+02  0.20792226214E+03  0.83240669359E+02 0.  0.
         23    2    1    2    0    0  0.28045113264E+03  0.45145641129E+02 -0.40972901245E+03  0.51135699611E+03  0.11365362785E+03 0.  0.
        -11    1    3    3    0    0  0.11603508178E+03 -0.94765494658E+02 -0.10292525316E+03  0.18176426194E+03  0.00000000000E+00 0.  1.
         12    1    3    3    0    0  0.45446739040E+01 -0.22214361553E+02  0.13042586193E+02  0.26158000205E+02  0.00000000000E+00 0. -1.
        -13    1    4    4    0    0  0.69968346158E+02 -0.37886643945E+02 -0.11292253369E+03  0.13813929879E+03  0.00000000000E+00 0.  1.
         13    1    4    4    0    0  0.21048278648E+03  0.83032285074E+02 -0.29680647876E+03  0.37321769733E+03  0.00000000000E+00 0. -1.
         21    1    1    2  503  502 -0.12166427417E+03  0.68728342864E+02  0.28612856021E+03  0.31842633950E+03  0.00000000000E+00 0. -1.
          1    1    1    2  501    0 -0.27936661414E+03  0.31058722188E+01 -0.55660918590E+02  0.28487451518E+03  0.00000000000E+00 0. -1.
<scales pt_clust_5="13000.00000" pt_clust_6="13000.00000" pt_clust_7="13000.00000" pt_clust_8="13000.00000" pt_clust_9="139.73468" pt_clust_10="13000.00000"></scales>
<clustering>
<clus scale="   83.241">  5  6 -1 -1</clus>
<clus scale="  113.654">  7  8 -1 -1</clus>
<clus scale="  139.735">  1  9  2 -1</clus>
<clus scale="  156.714">  2  5  1 -1</clus>
<clus scale="  305.954">  7 10 -1 -1</clus>
<clus scale="  139.735">  1  5  2 -1</clus>
</clustering>
</event>
<event>
10    4  0.2565852E-005  0.1765529E+03  0.7546771E-02  0.1184534E+00
          2   -1    0    0  503    0 -0.00000000000E+00  0.00000000000E+00  0.66571453987E+03  0.66571453987E+03  0.00000000000E+00 0. -1.
         21   -1    0    0  501  502  0.00000000000E+00 -0.00000000000E+00 -0.39779991158E+03  0.39779991158E+03  0.00000000000E+00 0.  1.
         24    2    1    2    0    0  0.51466378971E+02  0.85966408821E+02  0.48072414813E+03  0.49815591148E+03  0.83812850658E+02 0.  0.
         23    2    1    2    0    0 -0.10616031475E+03 -0.15239660648E+03  0.55063592710E+02  0.21485452683E+03  0.92928630477E+02 0.  0.
        -11    1    3    3    0    0  0.49310184687E+02  0.18631764276E+02  0.11814490174E+03  0.12937099660E+03  0.00000000000E+00 0.  1.
         12    1    3    3    0    0  0.21561942842E+01  0.67334644545E+02  0.36257924639E+03  0.36878491488E+03  0.00000000000E+00 0. -1.
        -11    1    4    4    0    0  0.89433030624E+01 -0.42144279800E+02 -0.73072601010E+01  0.43698043889E+02  0.00000000000E+00 0.  1.
         11    1    4    4    0    0 -0.11510361782E+03 -0.11025232668E+03  0.62370852811E+02  0.17115648295E+03  0.00000000000E+00 0. -1.
         21    1    1    2  503  502  0.73138875103E+02  0.11005533873E+03 -0.27256515126E+03  0.30290796344E+03  0.00000000000E+00 0.  1.
          1    1    1    2  501    0 -0.18444939320E+02 -0.43625141067E+02  0.46920387100E+01  0.47596049698E+02  0.00000000000E+00 0. -1.
<scales pt_clust_5="13000.00000" pt_clust_6="13000.00000" pt_clust_7="13000.00000" pt_clust_8="13000.00000" pt_clust_9="140.75635" pt_clust_10="13000.00000"></scales>
<clustering>
<clus scale="   83.813">  5  6 -1 -1</clus>
<clus scale="   92.929">  7  8 -1 -1</clus>
<clus scale="   47.364">  7 10 -1 -1</clus>
<clus scale="  130.628">  1  5  2 -1</clus>
<clus scale="  140.756">  2  9  1 -1</clus>
<clus scale="  140.756">  2  5  1 -1</clus>
</clustering>
</event>
<event>
10    4  0.2565852E-005  0.7782509E+03  0.7546771E-02  0.1001212E+00
          2   -1    0    0  503    0 -0.00000000000E+00  0.00000000000E+00  0.13896584966E+04  0.13896584966E+04  0.00000000000E+00 0. -1.
         21   -1    0    0  501  502  0.00000000000E+00 -0.00000000000E+00 -0.63894705622E+03  0.63894705622E+03  0.00000000000E+00 0. -1.
         24    2    1    2    0    0  0.15905623900E+03 -0.85609258920E+02  0.70886353291E+03  0.73626277836E+03  0.83471780474E+02 0.  0.
         23    2    1    2    0    0  0.59187740058E+02  0.17757936617E+03 -0.14243212630E+03  0.25160205762E+03  0.89325611857E+02 0.  0.
        -13    1    3    3    0    0  0.11420021190E+03 -0.15293158142E+02  0.43287813664E+03  0.44794983008E+03  0.00000000000E+00 0.  1.
         14    1    3    3    0    0  0.44856027101E+02 -0.70316100778E+02  0.27598539627E+03  0.28831294828E+03  0.00000000000E+00 0. -1.
        -11    1    4    4    0    0  0.20564080172E+02  0.16349526890E+03 -0.12553510943E+03  0.20715368220E+03  0.00000000000E+00 0. -1.
         11    1    4    4    0    0  0.38623659886E+02  0.14084097267E+02 -0.16897016865E+02  0.44448375423E+02  0.00000000000E+00 0.  1.
         21    1    1    2  503  502 -0.28894458996E+02  0.72869691741E+02 -0.39852659347E+03  0.40616293213E+03  0.00000000000E+00 0. -1.
          1    1    1    2  501    0 -0.18934952006E+03 -0.16483979899E+03  0.58280662721E+03  0.63457778467E+03  0.00000000000E+00 0. -1.
<scales pt_clust_5="13000.00000" pt_clust_6="13000.00000" pt_clust_7="13000.00000" pt_clust_8="13000.00000" pt_clust_9="78.38930" pt_clust_10="13000.00000"></scales>
<clustering>
<clus scale="   78.389">  2  9  1 -1</clus>
<clus scale="   83.472">  5  6 -1 -1</clus>
<clus scale="   89.326">  7  8 -1 -1</clus>
<clus scale="  195.861">  1  5  2 -1</clus>
<clus scale="  234.218">  7 10 -1 -1</clus>
<clus scale="   78.389">  2  5  1 -1</clus>
</clustering>
</event>
<event>
10    4  0.2565852E-005  0.6928073E+03  0.7546771E-02  0.1036628E+00
         21   -1    0    0  501  502  0.00000000000E+00  0.00000000000E+00  0.51505208630E+03  0.51505208630E+03  0.00000000000E+00 0. -1.
          2   -1    0    0  503    0 -0.00000000000E+00 -0.00000000000E+00 -0.58123407726E+03  0.58123407726E+03  0.00000000000E+00 0. -1.
         24    2    1    2    0    0 -0.29903390026E+02 -0.46617588807E+02 -0.28572768490E+03  0.30122306577E+03  0.77637704189E+02 0.  0.
         23    2    1    2    0    0 -0.82410011039E+02 -0.53258758692E+02 -0.25346621255E+03  0.28709531609E+03  0.92469964422E+02 0.  0.
        -13    1    3    3    0    0 -0.24497850869E+02 -0.17205163038E+02 -0.25621343458E+02  0.39403243178E+02  0.00000000000E+00 0.  1.
         14    1    3    3    0    0 -0.54055391570E+01 -0.29412425769E+02 -0.26010634144E+03  0.26181982259E+03  0.00000000000E+00 0. -1.
        -11    1    4    4    0    0 -0.85037009829E+02 -0.74561269730E+02 -0.20605261379E+03  0.23504968759E+03  0.00000000000E+00 0. -1.
         11    1    4    4    0    0  0.26269987905E+01  0.21302511038E+02 -0.47413598757E+02  0.52045628503E+02  0.00000000000E+00 0.  1.
         21    1    1    2  503  502  0.47784441703E+02  0.37958998998E+02  0.60719454946E+02  0.86087691819E+02  0.00000000000E+00 0. -1.
          1    1    1    2  501    0  0.64528959362E+02  0.61917348501E+02  0.41229245154E+03  0.42188008988E+03  0.00000000000E+00 0. -1.
<scales pt_clust_5="13000.00000" pt_clust_6="13000.00000" pt_clust_7="13000.00000" pt_clust_8="13000.00000" pt_clust_9="61.02654" pt_clust_10="13000.00000"></scales>
<clustering>
<clus scale="   61.027">  1  9  2 -1</clus>
<clus scale="   77.638">  5  6 -1 -1</clus>
<clus scale="   92.470">  7  8 -1 -1</clus>
<clus scale="   94.784">  2  5  1 -1</clus>
<clus scale="  142.161">  7 10 -1 -1</clus>
<clus scale="   61.027">  1  5  2 -1</clus>
</clustering>
</event>
<event>
10    4  0.2565852E-005  0.2531442E+03  0.7546771E-02  0.1158022E+00
          2   -1    0    0  503    0 -0.00000000000E+00  0.00000000000E+00  0.15442745698E+04  0.15442745698E+04  0.00000000000E+00 0. -1.
         21   -1    0    0  501  502  0.00000000000E+00 -0.00000000000E+00 -0.40723363070E+02  0.40723363070E+02  0.00000000000E+00 0. -1.
         24    2    1    2    0    0  0.15048312591E+01  0.15327487200E+02  0.61542878261E+03  0.62075778051E+03  0.79689643178E+02 0.  0.
         23    2    1    2    0    0 -0.86894272819E+02  0.55470374567E+02  0.50217162733E+03  0.52030305106E+03  0.88945739355E+02 0.  0.
        -13    1    3    3    0    0  0.18844999518E+02  0.17996093354E+02  0.64707392630E+02  0.69757007131E+02  0.00000000000E+00 0.  1.
         14    1    3    3    0    0 -0.17340168259E+02 -0.26686061540E+01  0.55072138997E+03  0.55100077338E+03  0.00000000000E+00 0. -1.
        -11    1    4    4    0    0 -0.72802935014E+01  0.55213419142E+02  0.23585109071E+03  0.24233708200E+03  0.00000000000E+00 0.  1.
         11    1    4    4    0    0 -0.79613979317E+02  0.25695542502E+00  0.26632053662E+03  0.27796596906E+03  0.00000000000E+00 0. -1.
         21    1    1    2  503  502  0.97693270323E+02  0.39699933120E+02  0.15306778155E+03  0.18587577977E+03  0.00000000000E+00 0. -1.
          1    1    1    2  501    0 -0.12303828763E+02 -0.11049779489E+03  0.23288301527E+03  0.25806132155E+03  0.00000000000E+00 0. -1.
<scales pt_clust_5="13000.00000" pt_clust_6="13000.00000" pt_clust_7="13000.00000" pt_clust_8="13000.00000" pt_clust_9="106.79179" pt_clust_10="13000.00000"></scales>
<clustering>
<clus scale="   79.690">  5  6 -1 -1</clus>
<clus scale="   81.164">  1  5  2 -1</clus>
<clus scale="   88.946">  7  8 -1 -1</clus>
<clus scale="  106.792">  2  9  1 -1</clus>
<clus scale="   92.967">  7 10 -1 -1</clus>
<clus scale="  106.792">  2  5  1 -1</clus>
</clustering>
</event>
<event>
10    4  0.2565852E-005  0.3823798E+03  0.7546771E-02  0.1087772E+00
         21   -1    0    0  501  502  0.00000000000E+00  0.00000000000E+00  0.16432438616E+03  0.16432438616E+03  0.00000000000E+00 0.  1.
          2   -1    0    0  503    0 -0.00000000000E+00 -0.00000000000E+00 -0.95137216506E+03  0.95137216506E+03  0.00000000000E+00 0. -1.
         24    2    1    2    0    0  0.41552975297E+02  0.16030735411E+03 -0.94391362557E+02  0.20688883352E+03  0.80424887762E+02 0.  0.
         23    2    1    2    0    0  0.65053603924E+02  0.73142366140E+02 -0.90815831284E+02  0.16223908661E+03  0.92153290245E+02 0.  0.
        -13    1    3    3    0    0  0.45963910128E+02  0.97092902475E+02 -0.20177112979E+02  0.10930154909E+03  0.00000000000E+00 0.  1.
         14    1    3    3    0    0 -0.44109348309E+01  0.63214451632E+02 -0.74214249579E+02  0.97587284427E+02  0.00000000000E+00 0. -1.
        -11    1    4    4    0    0  0.44910047320E+02  0.93169455636E+02 -0.83445960130E+02  0.13289352157E+03  0.00000000000E+00 0.  1.
         11    1    4    4    0    0  0.20143556604E+02 -0.20027089496E+02 -0.73698711534E+01  0.29345565034E+02  0.00000000000E+00 0. -1.
         21    1    1    2  503  502 -0.21183322541E+02 -0.10048330533E+03  0.20290650001E+02  0.10467730547E+03  0.00000000000E+00 0. -1.
          1    1    1    2  501    0 -0.85423256680E+02 -0.13296641492E+03 -0.62213123506E+03  0.64189132563E+03  0.00000000000E+00 0. -1.
<scales pt_clust_5="13000.00000" pt_clust_6="13000.00000" pt_clust_7="13000.00000" pt_clust_8="13000.00000" pt_clust_9="102.69191" pt_clust_10="13000.00000"></scales>
<clustering>
<clus scale="   80.425">  5  6 -1 -1</clus>
<clus scale="   92.153">  7  8 -1 -1</clus>
<clus scale="  102.692">  1  9  2 -1</clus>
<clus scale="  135.441">  2  5  1 -1</clus>
<clus scale="   81.482">  7 10 -1 -1</clus>
<clus scale="  102.692">  1  5  2 -1</clus>
</clustering>
</event>
<event>
10    4  0.2565852E-005  0.2467731E+03  0.7546771E-02  0.1122536E+00
          2   -1    0    0  503    0 -0.00000000000E+00  0.00000000000E+00  0.16851571681E+03  0.16851571681E+03  0.00000000000E+00 0. -1.
         21   -1    0    0  501  502  0.00000000000E+00 -0.00000000000E+00 -0.63740416341E+03  0.63740416341E+03  0.00000000000E+00 0.  1.
         24    2    1    2    0    0 -0.15189352223E+03 -0.21957051761E+02 -0.80634001348E+02  0.19092892299E+03  0.79989107041E+02 0.  0.
         23    2    1    2    0    0  0.10340652927E+03  0.92719648540E+01 -0.80482329493E+02  0.16080402526E+03  0.92745078326E+02 0.  0.
        -11    1    3    3    0    0 -0.98791583885E+02 -0.26366733969E+02 -0.90725399824E+02  0.13669703684E+03  0.00000000000E+00 0.  1.
         12    1    3    3    0    0 -0.53101938343E+02  0.44096822071E+01  0.10091398476E+02  0.54231886157E+02  0.00000000000E+00 0. -1.
        -13    1    4    4    0    0  0.91882729287E+02 -0.30130538354E+02 -0.45496073647E+02  0.10686523289E+03  0.00000000000E+00 0. -1.
         13    1    4    4    0    0  0.11523799978E+02  0.39402503208E+02 -0.34986255846E+02  0.53938792377E+02  0.00000000000E+00 0.  1.
         21    1    1    2  503  502 -0.83154312780E+02 -0.49169649019E+02 -0.29237972126E+03  0.30792563311E+03  0.00000000000E+00 0.  1.
          1    1    1    2  501    0  0.13164130574E+03  0.61854735927E+02 -0.15392394502E+02  0.14626129885E+03  0.00000000000E+00 0. -1.
<scales pt_clust_5="13000.00000" pt_clust_6="13000.00000" pt_clust_7="13000.00000" pt_clust_8="13000.00000" pt_clust_9="96.60380" pt_clust_10="13000.00000"></scales>
<clustering>
<clus scale="   79.989">  5  6 -1 -1</clus>
<clus scale="   92.745">  7  8 -1 -1</clus>
<clus scale="   96.604">  2  9  1 -1</clus>
<clus scale="  122.420">  7 10 -1 -1</clus>
<clus scale="  206.166">  1  5  2 -1</clus>
<clus scale="   96.604">  2  5  1 -1</clus>
</clustering>
</event>
<event>
10    4  0.2565852E-005  0.2496911E+03  0.7546771E-02  0.1132816E+00
         21   -1    0    0  501  502  0.00000000000E+00  0.00000000000E+00  0.41387498305E+03  0.41387498305E+03  0.00000000000E+00 0. -1.
          2   -1    0    0  503    0 -0.00000000000E+00 -0.00000000000E+00 -0.22234130339E+03  0.22234130339E+03  0.00000000000E+00 0. -1.
         24    2    1    2    0    0  0.87314170706E+02  0.99618039297E+02 -0.11159105191E+01  0.15536975555E+03  0.81184958725E+02 0.  0.
         23    2    1    2    0    0  0.94533807472E+02 -0.77872904969E+02  0.59786292865E+02  0.16290506950E+03  0.89234694886E+02 0.  0.
        -11    1    3    3    0    0  0.24060513004E+02  0.23739879165E+00 -0.25510181740E+02  0.35067563596E+02  0.00000000000E+00 0.  1.
         12    1    3    3    0    0  0.63253657703E+02  0.99380640506E+02  0.24394271220E+02  0.12030219195E+03  0.00000000000E+00 0. -1.
        -11    1    4    4    0    0  0.19165825860E+02  0.18702227378E+02  0.43723616981E+00  0.26782333081E+02  0.00000000000E+00 0.  1.
         11    1    4    4    0    0  0.75367981612E+02 -0.96575132347E+02  0.59349056695E+02  0.13612273642E+03  0.00000000000E+00 0. -1.
         21    1    1    2  503  502 -0.11809754859E+03  0.68408632845E+02  0.15372879052E+03  0.20557070089E+03  0.00000000000E+00 0. -1.
          1    1    1    2  501    0 -0.63750429584E+02 -0.90153767174E+02 -0.20865493209E+02  0.11237076050E+03  0.00000000000E+00 0. -1.
<scales pt_clust_5="13000.00000" pt_clust_6="13000.00000" pt_clust_7="13000.00000" pt_clust_8="13000.00000" pt_clust_9="136.47993" pt_clust_10="13000.00000"></scales>
<clustering>
<clus scale="   81.185">  5  6 -1 -1</clus>
<clus scale="   89.235">  7  8 -1 -1</clus>
<clus scale="  110.417">  7 10 -1 -1</clus>
<clus scale="  136.480">  1  9  2 -1</clus>
<clus scale="  154.452">  2  5  1 -1</clus>
<clus scale="  136.480">  1  5  2 -1</clus>
</clustering>
</event>
<event>
10    4  0.2565852E-005  0.5750901E+03  0.7546771E-02  0.1038368E+00
          2   -1    0    0  502    0 -0.00000000000E+00  0.00000000000E+00  0.27914880816E+03  0.27914880816E+03  0.00000000000E+00 0. -1.
         21   -1    0    0  503  502  0.00000000000E+00 -0.00000000000E+00 -0.58874880794E+03  0.58874880794E+03  0.00000000000E+00 0.  1.
         24    2    1    2    0    0  0.86361821853E+02 -0.98448172453E+02 -0.12161796771E+03  0.19653957705E+03  0.81770828180E+02 0.  0.
         23    2    1    2    0    0  0.10959916931E+03 -0.17795617474E+03 -0.11745162418E+03  0.25585872539E+03  0.89377991117E+02 0.  0.
        -11    1    3    3    0    0  0.65532952092E+02 -0.83544532348E+02 -0.13156254155E+03  0.16906495507E+03  0.00000000000E+00 0.  1.
         12    1    3    3    0    0  0.20828869761E+02 -0.14903640105E+02  0.99445738328E+01  0.27474621974E+02  0.00000000000E+00 0. -1.
        -11    1    4    4    0    0  0.10772252226E+03 -0.11316882326E+03 -0.10897750958E+03  0.19049257716E+03  0.00000000000E+00 0. -1.
         11    1    4    4    0    0  0.18766470479E+01 -0.64787351484E+02 -0.84741146012E+01  0.65366148232E+02  0.00000000000E+00 0.  1.
         21    1    1    2  503  501  0.48868658300E+02  0.30109254103E+02  0.11787145473E+02  0.58597352714E+02  0.00000000000E+00 0. -1.
          1    1    1    2  501    0 -0.24482964946E+03  0.24629509309E+03 -0.82317553355E+02  0.35690196094E+03  0.00000000000E+00 0. -1.
<scales pt_clust_5="13000.00000" pt_clust_6="13000.00000" pt_clust_7="13000.00000" pt_clust_8="13000.00000" pt_clust_9="57.39962" pt_clust_10="13000.00000"></scales>
<clustering>
<clus scale="   57.400">  2  9  1 -1</clus>
<clus scale="   81.771">  5  6 -1 -1</clus>
<clus scale="   89.378">  7  8 -1 -1</clus>
<clus scale="  157.495">  1  5  2 -1</clus>
<clus scale="  259.828">  7 10 -1 -1</clus>
<clus scale="   57.400">  2  5  1 -1</clus>
</clustering>
</event>
<event>
10    4  0.2565852E-005  0.2124658E+03  0.7546771E-02  0.1156746E+00
          2   -1    0    0  503    0 -0.00000000000E+00  0.00000000000E+00  0.12162809574E+04  0.12162809574E+04  0.00000000000E+00 0. -1.
         21   -1    0    0  501  502  0.00000000000E+00 -0.00000000000E+00 -0.12261770932E+03  0.12261770932E+03  0.00000000000E+00 0. -1.
         24    2    1    2    0    0  0.11426582540E+03  0.50209519972E+02  0.81646241874E+03  0.83015615143E+03  0.83490597003E+02 0.  0.
         23    2    1    2    0    0 -0.14661308166E+02 -0.67596476691E+02  0.19432391583E+03  0.22480507344E+03  0.89394066722E+02 0.  0.
        -13    1    3    3    0    0  0.39352844288E+02  0.55301084564E+02  0.26271078183E+03  0.27133708040E+03  0.00000000000E+00 0.  1.
         14    1    3    3    0    0  0.74912981109E+02 -0.50915645928E+01  0.55375163691E+03  0.55881907103E+03  0.00000000000E+00 0. -1.
        -13    1    4    4    0    0  0.43239213270E+01 -0.40625142737E+02  0.18647888382E+03  0.19090173554E+03  0.00000000000E+00 0.  1.
         13    1    4    4    0    0 -0.18985229493E+02 -0.26971333954E+02  0.78450320034E+01  0.33903337908E+02  0.00000000000E+00 0. -1.
         21    1    1    2  503  502 -0.38023581565E+02 -0.36264738447E+02 -0.83464267993E+02  0.98626609195E+02  0.00000000000E+00 0. -1.
          1    1    1    2  501    0 -0.61580935666E+02  0.53651695167E+02  0.16634118149E+03  0.18531083263E+03  0.00000000000E+00 0. -1.
<scales pt_clust_5="13000.00000" pt_clust_6="13000.00000" pt_clust_7="13000.00000" pt_clust_8="13000.00000" pt_clust_9="52.54450" pt_clust_10="13000.00000"></scales>
<clustering>
<clus scale="   52.544">  2  9  1 -1</clus>
<clus scale="   83.491">  5  6 -1 -1</clus>
<clus scale="   89.394">  7  8 -1 -1</clus>
<clus scale="   84.603">  7 10 -1 -1</clus>
<clus scale="  141.436">  1  5  2 -1</clus>
<clus scale="   52.544">  2  5  1 -1</clus>
</clustering>
</event>
<event>
10    4  0.2565852E-005  0.2071661E+03  0.7546771E-02  0.1167554E+00
          2   -1    0    0  502    0 -0.00000000000E+00  0.00000000000E+00  0.96384214111E+02  0.96384214111E+02  0.00000000000E+00 0. -1.
         21   -1    0    0  503  502  0.00000000000E+00 -0.00000000000E+00 -0.89144897381E+03  0.89144897381E+03  0.00000000000E+00 0.  1.
         24    2    1    2    0    0  0.65403664440E+02  0.41909315688E+02 -0.34824485795E+03  0.36546999672E+03  0.79118944328E+02 0.  0.
         23    2    1    2    0    0 -0.47603603831E+02 -0.40196054170E+02  0.36510092711E+02  0.11578723194E+03  0.90508951722E+02 0.  0.
        -13    1    3    3    0    0  0.25261477443E+02  0.57990497866E+02 -0.25432532713E+03  0.26207329529E+03  0.00000000000E+00 0.  1.
         14    1    3    3    0    0  0.40142186997E+02 -0.16081182178E+02 -0.93919530821E+02  0.10339670143E+03  0.00000000000E+00 0. -1.
        -13    1    4    4    0    0 -0.62688783792E+02 -0.56135474305E+02  0.40651555301E+02  0.93453860472E+02  0.00000000000E+00 0. -1.
         13    1    4    4    0    0  0.15085179961E+02  0.15939420135E+02 -0.41414625900E+01  0.22333371467E+02  0.00000000000E+00 0.  1.
         21    1    1    2  503  501 -0.37835708592E+02  0.52233643468E+02 -0.40084210975E+03  0.40599789569E+03  0.00000000000E+00 0.  1.
          1    1    1    2  501    0  0.20035647983E+02 -0.53946904987E+02 -0.82487884706E+02  0.10057806357E+03  0.00000000000E+00 0. -1.
<scales pt_clust_5="13000.00000" pt_clust_6="13000.00000" pt_clust_7="13000.00000" pt_clust_8="13000.00000" pt_clust_9="64.49724" pt_clust_10="13000.00000"></scales>
<clustering>
<clus scale="   64.497">  2  9  1 -1</clus>
<clus scale="   79.119">  5  6 -1 -1</clus>
<clus scale="   90.509">  7  8 -1 -1</clus>
<clus scale="   46.007">  7 10 -1 -1</clus>
<clus scale="  118.746">  1  5  2 -1</clus>
<clus scale="   64.497">  2  5  1 -1</clus>
</clustering>
</event>
<event>
10    4  0.2565852E-005  0.2772214E+03  0.7546771E-02  0.1137604E+00
          2   -1    0    0  503    0 -0.00000000000E+00  0.00000000000E+00  0.53227570491E+03  0.53227570491E+03  0.00000000000E+00 0. -1.
         21   -1    0    0  501  502  0.00000000000E+00 -0.00000000000E+00 -0.12083366382E+03  0.12083366382E+03  0.00000000000E+00 0. -1.
         24    2    1    2    0    0 -0.55821447280E+02 -0.21393900209E+02  0.24098139921E+01  0.98426740727E+02  0.78155506165E+02 0.  0.
         23    2    1    2    0    0  0.12743127213E+03  0.67609695487E+02  0.22511871603E+03  0.28280949637E+03  0.92157337671E+02 0.  0.
        -11    1    3    3    0    0  0.62225651099E+01 -0.29436562030E+02  0.16474477268E+02  0.34302185089E+02  0.00000000000E+00 0.  1.
         12    1    3    3    0    0 -0.62044012390E+02  0.80426618206E+01 -0.14064663275E+02  0.64124555637E+02  0.00000000000E+00 0. -1.
        -13    1    4    4    0    0  0.22490485043E+02  0.10647288265E+02 -0.32639556524E+01  0.25096614739E+02  0.00000000000E+00 0.  1.
         13    1    4    4    0    0  0.10494078709E+03  0.56962407222E+02  0.22838267168E+03  0.25771288163E+03  0.00000000000E+00 0. -1.
         21    1    1    2  503  502  0.38331289047E+02 -0.59119615417E+02  0.18516259032E+02  0.72851002022E+02  0.00000000000E+00 0. -1.
          1    1    1    2  501    0 -0.10994111390E+03  0.12903820139E+02  0.16539725203E+03  0.19902212962E+03  0.00000000000E+00 0. -1.
<scales pt_clust_5="13000.00000" pt_clust_6="13000.00000" pt_clust_7="13000.00000" pt_clust_8="13000.00000" pt_clust_9="70.45862" pt_clust_10="13000.00000"></scales>
<clustering>
<clus scale="   70.459">  2  9  1 -1</clus>
<clus scale="   78.156">  5  6 -1 -1</clus>
<clus scale="   92.157">  7  8 -1 -1</clus>
<clus scale="  100.446">  1  5  2 -1</clus>
<clus scale="  118.223">  7 10 -1 -1</clus>
<clus scale="   70.459">  2  5  1 -1</clus>
</clustering>
</event>
<event>
10    4  0.2565852E-005  0.4849129E+03  0.7546771E-02  0.1053202E+00
          2   -1    0    0  502    0 -0.00000000000E+00  0.00000000000E+00  0.92433745782E+03  0.92433745782E+03  0.00000000000E+00 0. -1.
         21   -1    0    0  503  502  0.00000000000E+00 -0.00000000000E+00 -0.15518260153E+03  0.15518260153E+03  0.00000000000E+00 0.  1.
         24    2    1    2    0    0 -0.16232319527E+03 -0.26059266850E+02  0.10486284560E+03  0.21292515592E+03  0.85516083425E+02 0.  0.
         23    2    1    2    0    0 -0.15401867437E+03  0.56969100288E+02  0.31588405808E+03  0.36793489264E+03  0.92876889647E+02 0.  0.
        -11    1    3    3    0    0 -0.10700937622E+03 -0.70177545449E+01  0.18818428586E+02  0.10887786154E+03  0.00000000000E+00 0.  1.
         12    1    3    3    0    0 -0.55313819045E+02 -0.19041512305E+02  0.86044417019E+02  0.10404729438E+03  0.00000000000E+00 0. -1.
        -13    1    4    4    0    0 -0.63832244755E+02 -0.23259951720E+02  0.11143606850E+03  0.13051275105E+03  0.00000000000E+00 0. -1.
         13    1    4    4    0    0 -0.90186429616E+02  0.80229052008E+02  0.20444798958E+03  0.23742214159E+03  0.00000000000E+00 0.  1.
         21    1    1    2  503  501  0.35255604459E+02  0.24719646112E+02 -0.53774380365E+01  0.43392803430E+02  0.00000000000E+00 0.  1.
          1    1    1    2  501    0  0.28108626518E+03 -0.55629479551E+02  0.35378539065E+03  0.45526720737E+03  0.00000000000E+00 0. -1.
<scales pt_clust_5="13000.00000" pt_clust_6="13000.00000" pt_clust_7="13000.00000" pt_clust_8="13000.00000" pt_clust_9="43.05832" pt_clust_10="13000.00000"></scales>
<clustering>
<clus scale="   43.058">  2  9  1 -1</clus>
<clus scale="   85.516">  5  6 -1 -1</clus>
<clus scale="   92.877">  7  8 -1 -1</clus>
<clus scale="  171.456">  1  5  2 -1</clus>
<clus scale="  217.643">  7 10 -1 -1</clus>
<clus scale="   43.058">  2  5  1 -1</clus>
</clustering>
</event>
<event>
10    4  0.2565852E-005  0.3869150E+03  0.7546771E-02  0.1087198E+00
         21   -1    0    0  501  502  0.00000000000E+00  0.00000000000E+00  0.12195494009E+03  0.12195494009E+03  0.00000000000E+00 0.  1.
         -1   -1    0    0    0  501 -0.00000000000E+00 -0.00000000000E+00 -0.83191588154E+03  0.83191588154E+03  0.00000000000E+00 0.  1.
         24    2    1    2    0    0  0.66509005167E+02 -0.89602091281E+02 -0.28736308787E+03  0.31906172417E+03  0.82285217551E+02 0.  0.
         23    2    1    2    0    0  0.89433080128E+02 -0.42510159367E+02 -0.34099660659E+03  0.36675991968E+03  0.91808297593E+02 0.  0.
        -11    1    3    3    0    0  0.15882457493E+02 -0.78124638301E+02 -0.22012032318E+03  0.23411251193E+03  0.00000000000E+00 0.  1.
         12    1    3    3    0    0  0.50626547674E+02 -0.11477452980E+02 -0.67242764691E+02  0.84949212236E+02  0.00000000000E+00 0. -1.
        -13    1    4    4    0    0  0.18600912590E+02 -0.41389178558E+02 -0.23452555783E+03  0.23887506217E+03  0.00000000000E+00 0. -1.
         13    1    4    4    0    0  0.70832167539E+02 -0.11209808092E+01 -0.10647104875E+03  0.12788485750E+03  0.00000000000E+00 0.  1.
         21    1    1    2  503  502  0.15898759052E+02  0.67465661452E+02 -0.62688091882E+01  0.69596580255E+02  0.00000000000E+00 0.  1.
         -2    1    1    2    0  503 -0.17184084435E+03  0.64646589195E+02 -0.75332437807E+02  0.19845259753E+03  0.00000000000E+00 0.  1.
<scales pt_clust_5="13000.00000" pt_clust_6="13000.00000" pt_clust_7="13000.00000" pt_clust_8="13000.00000" pt_clust_9="69.31368" pt_clust_10="13000.00000"></scales>
<clustering>
<clus scale="   69.314">  1  9  2 -1</clus>
<clus scale="   82.285">  5  6 -1 -1</clus>
<clus scale="   91.808">  7  8 -1 -1</clus>
<clus scale="  132.740">  2  5  1 -1</clus>
<clus scale="  161.885">  7 10 -1 -1</clus>
<clus scale="   69.314">  1  5  2 -1</clus>
</clustering>
</event>
<event>
10    4  0.2565852E-005  0.1786800E+03  0.7546771E-02  0.1204741E+00
          2   -1    0    0  502    0 -0.00000000000E+00  0.00000000000E+00  0.53359080123E+03  0.53359080123E+03  0.00000000000E+00 0. -1.
         21   -1    0    0  503  502  0.00000000000E+00 -0.00000000000E+00 -0.14046829167E+03  0.14046829167E+03  0.00000000000E+00 0. -1.
         24    2    1    2    0    0  0.19905162212E+01 -0.18811927776E+02 -0.68213620239E+02  0.10664327872E+03  0.79761144225E+02 0.  0.
         23    2    1    2    0    0  0.42554937943E+02  0.14916795417E+02  0.17988539889E+03  0.20921432659E+03  0.96842367723E+02 0.  0.
        -11    1    3    3    0    0  0.26816853690E+02 -0.14567890253E+02  0.34214286517E+01  0.30709497591E+02  0.00000000000E+00 0.  1.
         12    1    3    3    0    0 -0.24826337469E+02 -0.42440375235E+01 -0.71635048891E+02  0.75933781127E+02  0.00000000000E+00 0. -1.
        -13    1    4    4    0    0  0.72536546194E+02  0.55356829263E+01  0.14528202221E+03  0.16247787633E+03  0.00000000000E+00 0. -1.
         13    1    4    4    0    0 -0.29981608252E+02  0.93811124904E+01  0.34603376681E+02  0.46736450257E+02  0.00000000000E+00 0.  1.
         21    1    1    2  503  501 -0.16574846694E+02  0.29802400570E+02 -0.29397738254E+02  0.45023723048E+02  0.00000000000E+00 0. -1.
          1    1    1    2  501    0 -0.27970607469E+02 -0.25907268210E+02  0.31084846916E+03  0.31317776455E+03  0.00000000000E+00 0. -1.
<scales pt_clust_5="13000.00000" pt_clust_6="13000.00000" pt_clust_7="13000.00000" pt_clust_8="13000.00000" pt_clust_9="34.10145" pt_clust_10="13000.00000"></scales>
<clustering>
<clus scale="   34.101">  2  9  1 -1</clus>
<clus scale="   79.761">  5  6 -1 -1</clus>
<clus scale="   80.921">  1  5  2 -1</clus>
<clus scale="   96.842">  7  8 -1 -1</clus>
<clus scale="   41.616">  7 10 -1 -1</clus>
<clus scale="   34.101">  2  5  1 -1</clus>
</clustering>
</event>
<event>
10    4  0.2565852E-005  0.2687983E+03  0.7546771E-02  0.1146292E+00
          2   -1    0    0  503    0 -0.00000000000E+00  0.00000000000E+00  0.14956372295E+03  0.14956372295E+03  0.00000000000E+00 0. -1.
         21   -1    0    0  501  502  0.00000000000E+00 -0.00000000000E+00 -0.27648607484E+03  0.27648607484E+03  0.00000000000E+00 0.  1.
         24    2    1    2    0    0 -0.36686023189E+02 -0.76062069855E+00  0.13026843175E+02  0.88251976604E+02  0.79197663414E+02 0.  0.
         23    2    1    2    0    0 -0.70918662994E+02  0.43606048539E+01 -0.11422225021E+03  0.16254591767E+03  0.91246815136E+02 0.  0.
        -11    1    3    3    0    0 -0.59273901696E+02 -0.64998560401E+01  0.21598091864E+02  0.63420194915E+02  0.00000000000E+00 0.  1.
         12    1    3    3    0    0  0.22587878508E+02  0.57392353415E+01 -0.85712486888E+01  0.24831781689E+02  0.00000000000E+00 0. -1.
        -11    1    4    4    0    0 -0.81779172554E+02 -0.19845945663E+02 -0.10476876301E+03  0.13438075877E+03  0.00000000000E+00 0.  1.
         11    1    4    4    0    0  0.10860509560E+02  0.24206550517E+02 -0.94534871912E+01  0.28165158901E+02  0.00000000000E+00 0. -1.
         21    1    1    2  503  502 -0.32533047861E+02 -0.29824772513E+01 -0.10360042171E+02  0.34272800404E+02  0.00000000000E+00 0.  1.
          1    1    1    2  501    0  0.14013773404E+03 -0.61750690406E+00 -0.15366902688E+02  0.14097910312E+03  0.00000000000E+00 0. -1.
<scales pt_clust_5="13000.00000" pt_clust_6="13000.00000" pt_clust_7="13000.00000" pt_clust_8="13000.00000" pt_clust_9="32.66947" pt_clust_10="13000.00000"></scales>
<clustering>
<clus scale="   32.669">  2  9  1 -1</clus>
<clus scale="   79.198">  5  6 -1 -1</clus>
<clus scale="   89.420">  1  5  2 -1</clus>
<clus scale="   91.247">  7  8 -1 -1</clus>
<clus scale="  105.130">  7 10 -1 -1</clus>
<clus scale="   32.669">  2  5  1 -1</clus>
</clustering>
</event>
<event>
10    4  0.2565852E-005  0.2099336E+03  0.7546771E-02  0.1146226E+00
         21   -1    0    0  503  502  0.00000000000E+00  0.00000000000E+00  0.61233382961E+03  0.61233382961E+03  0.00000000000E+00 0. -1.
          2   -1    0    0  502    0 -0.00000000000E+00 -0.00000000000E+00 -0.44674048775E+03  0.44674048775E+03  0.00000000000E+00 0. -1.
         24    2    1    2    0    0  0.96232308957E+02  0.13934186674E+03 -0.39140606390E+03  0.43373504660E+03  0.79060550718E+02 0.  0.
         23    2    1    2    0    0 -0.48692277511E+02 -0.11996538066E+03  0.22033701557E+03  0.27120097857E+03  0.90768606352E+02 0.  0.
        -13    1    3    3    0    0  0.27620038710E+02  0.44689169280E+02 -0.48691252803E+02  0.71629787720E+02  0.00000000000E+00 0.  1.
         14    1    3    3    0    0  0.68612270247E+02  0.94652697456E+02 -0.34271481110E+03  0.36210525888E+03  0.00000000000E+00 0. -1.
        -11    1    4    4    0    0  0.84962116749E+00 -0.88642773765E+02  0.81172025346E+02  0.12019634310E+03  0.00000000000E+00 0.  1.
         11    1    4    4    0    0 -0.49541898679E+02 -0.31322606899E+02  0.13916499022E+03  0.15100463546E+03  0.00000000000E+00 0. -1.
         21    1    1    2  503  501  0.89570257748E+00  0.28771648357E+02  0.19222526919E+03  0.19436862954E+03  0.00000000000E+00 0. -1.
          1    1    1    2  501    0 -0.48435734023E+02 -0.48148134430E+02  0.14443712100E+03  0.15976966265E+03  0.00000000000E+00 0. -1.
<scales pt_clust_5="13000.00000" pt_clust_6="13000.00000" pt_clust_7="13000.00000" pt_clust_8="13000.00000" pt_clust_9="28.78559" pt_clust_10="13000.00000"></scales>
<clustering>
<clus scale="   28.786">  1  9  2 -1</clus>
<clus scale="   79.061">  5  6 -1 -1</clus>
<clus scale="   90.769">  7  8 -1 -1</clus>
<clus scale="   61.125">  7 10 -1 -1</clus>
<clus scale="  187.998">  2  5  1 -1</clus>
<clus scale="   28.786">  1  5  2 -1</clus>
</clustering>
</event>
<event>
10    4  0.2565852E-005  0.4445967E+03  0.7546771E-02  0.1035697E+00
          2   -1    0    0  503    0 -0.00000000000E+00  0.00000000000E+00  0.23802494856E+04  0.23802494856E+04  0.00000000000E+00 0. -1.
         21   -1    0    0  501  502  0.00000000000E+00 -0.00000000000E+00 -0.22256779766E+03  0.22256779766E+03  0.00000000000E+00 0. -1.
         24    2    1    2    0    0  0.23612387553E+03  0.27562393929E+03  0.12376388175E+04  0.12922708489E+04  0.80567138881E+02 0.  0.
         23    2    1    2    0    0 -0.35612601524E+02  0.55839238555E+01  0.15827548050E+03  0.18597677478E+03  0.90756792789E+02 0.  0.
        -13    1    3    3    0    0  0.14523682471E+03  0.17763802535E+03  0.64052722060E+03  0.68038527588E+03  0.00000000000E+00 0.  1.
         14    1    3    3    0    0  0.90887050825E+02  0.97985913939E+02  0.59711159693E+03  0.61188557306E+03  0.00000000000E+00 0. -1.
        -11    1    4    4    0    0 -0.61025929574E+02  0.17694558354E+02  0.76244029768E+02  0.99249249624E+02  0.00000000000E+00 0.  1.
         11    1    4    4    0    0  0.25413328050E+02 -0.12110634499E+02  0.82031450731E+02  0.86727525155E+02  0.00000000000E+00 0. -1.
         21    1    1    2  503  502  0.16566971237E+02 -0.26016700349E+02 -0.15003049838E+03  0.15316815490E+03  0.00000000000E+00 0. -1.
          1    1    1    2  501    0 -0.21707824525E+03 -0.25519116280E+03  0.91179788829E+03  0.97140150464E+03  0.00000000000E+00 0. -1.
<scales pt_clust_5="13000.00000" pt_clust_6="13000.00000" pt_clust_7="13000.00000" pt_clust_8="13000.00000" pt_clust_9="30.84369" pt_clust_10="13000.00000"></scales>
<clustering>
<clus scale="   30.844">  2  9  1 -1</clus>
<clus scale="   80.567">  5  6 -1 -1</clus>
<clus scale="   90.757">  7  8 -1 -1</clus>
<clus scale="  339.071">  7 10 -1 -1</clus>
<clus scale="  368.573">  1  5  2 -1</clus>
<clus scale="   30.844">  2  5  1 -1</clus>
</clustering>
</event>
<event>
10    4  0.2565852E-005  0.3078326E+03  0.7546771E-02  0.1118580E+00
         21   -1    0    0  503  502  0.00000000000E+00  0.00000000000E+00  0.20725531059E+03  0.20725531059E+03  0.00000000000E+00 0. -1.
          2   -1    0    0  502    0 -0.00000000000E+00 -0.00000000000E+00 -0.40656415695E+03  0.40656415695E+03  0.00000000000E+00 0. -1.
         24    2    1    2    0    0 -0.29393771370E+02 -0.75395822820E+02 -0.17383310346E+03  0.20748625730E+03  0.79272159153E+02 0.  0.
         23    2    1    2    0    0 -0.64036796572E+02 -0.37242100604E+02 -0.12765123377E+02  0.11863461110E+03  0.91779830042E+02 0.  0.
        -13    1    3    3    0    0 -0.26968064388E+02 -0.14993153324E+02 -0.93421735367E+01  0.32238910493E+02  0.00000000000E+00 0.  1.
         14    1    3    3    0    0 -0.24257069828E+01 -0.60402669497E+02 -0.16449092992E+03  0.17524734681E+03  0.00000000000E+00 0. -1.
        -13    1    4    4    0    0 -0.55383195171E+02 -0.11615160438E+02 -0.48007594480E+02  0.74208755461E+02  0.00000000000E+00 0.  1.
         13    1    4    4    0    0 -0.86536014018E+01 -0.25626940165E+02  0.35242471103E+02  0.44425855635E+02  0.00000000000E+00 0. -1.
         21    1    1    2  503  501 -0.56370146332E+02 -0.28993277955E+02  0.39945584899E+02  0.74925651929E+02  0.00000000000E+00 0.  1.
          1    1    1    2  501    0  0.14980071427E+03  0.14163120138E+03 -0.52656204428E+02  0.21277294721E+03  0.00000000000E+00 0. -1.
<scales pt_clust_5="13000.00000" pt_clust_6="13000.00000" pt_clust_7="13000.00000" pt_clust_8="13000.00000" pt_clust_9="63.38930" pt_clust_10="13000.00000"></scales>
<clustering>
<clus scale="   63.389">  1  9  2 -1</clus>
<clus scale="   79.272">  5  6 -1 -1</clus>
<clus scale="   91.780">  7  8 -1 -1</clus>
<clus scale="  117.245">  2  5  1 -1</clus>
<clus scale="  132.502">  7 10 -1 -1</clus>
<clus scale="   63.389">  1  5  2 -1</clus>
</clustering>
</event>
<event>
10    4  0.2565852E-005  0.2282342E+03  0.7546771E-02  0.1165281E+00
          2   -1    0    0  503    0 -0.00000000000E+00  0.00000000000E+00  0.10588525080E+04  0.10588525080E+04  0.00000000000E+00 0. -1.
         21   -1    0    0  501  502  0.00000000000E+00 -0.00000000000E+00 -0.71322403368E+02  0.71322403368E+02  0.00000000000E+00 0.  1.
         24    2    1    2    0    0  0.42055122599E+02 -0.15023436985E+02  0.80285106658E+03  0.80836827295E+03  0.83036694379E+02 0.  0.
         23    2    1    2    0    0  0.13873820828E+02  0.35254110672E+01 -0.82519686607E+01  0.95879340974E+02  0.94444913104E+02 0.  0.
        -13    1    3    3    0    0  0.70892315830E+00  0.23311874791E+02  0.80239128967E+02  0.83559941932E+02  0.00000000000E+00 0.  1.
         14    1    3    3    0    0  0.41346199441E+02 -0.38335311776E+02  0.72261193761E+03  0.72480833102E+03  0.00000000000E+00 0. -1.
        -11    1    4    4    0    0 -0.32652088536E+02  0.27826010815E+02 -0.11929122991E+01  0.42916999003E+02  0.00000000000E+00 0.  1.
         11    1    4    4    0    0  0.46525909364E+02 -0.24300599748E+02 -0.70590563616E+01  0.52962341971E+02  0.00000000000E+00 0. -1.
         21    1    1    2  503  502 -0.29762504594E+02  0.78918910373E+01 -0.40657793804E+00  0.30793731984E+02  0.00000000000E+00 0.  1.
          1    1    1    2  501    0 -0.26166438833E+02  0.36061348809E+01  0.19333758468E+03  0.19513356549E+03  0.00000000000E+00 0. -1.
<scales pt_clust_5="13000.00000" pt_clust_6="13000.00000" pt_clust_7="13000.00000" pt_clust_8="13000.00000" pt_clust_9="30.79105" pt_clust_10="13000.00000"></scales>
<clustering>
<clus scale="   30.791">  2  9  1 -1</clus>
<clus scale="   83.037">  5  6 -1 -1</clus>
<clus scale="   93.574">  1  5  2 -1</clus>
<clus scale="   94.445">  7  8 -1 -1</clus>
<clus scale="    8.637">  7 10 -1 -1</clus>
<clus scale="   30.791">  2  5  1 -1</clus>
</clustering>
</event>
<event>
10    4  0.2565852E-005  0.1793000E+03  0.7546771E-02  0.1194705E+00
         -1   -1    0    0    0  501 -0.00000000000E+00  0.00000000000E+00  0.90773463245E+02  0.90773463245E+02  0.00000000000E+00 0.  1.
         21   -1    0    0  501  502  0.00000000000E+00 -0.00000000000E+00 -0.34358553811E+03  0.34358553811E+03  0.00000000000E+00 0. -1.
         24    2    1    2    0    0 -0.58808328609E+02  0.29545253702E+02 -0.11262559579E+03  0.15079358319E+03  0.75649443978E+02 0.  0.
         23    2    1    2    0    0  0.51225253051E+02 -0.76652883616E+01  0.21249764156E+02  0.10625478316E+03  0.90309153867E+02 0.  0.
        -11    1    3    3    0    0  0.14547106156E+02  0.20590825430E+02 -0.39279422830E+02  0.46674119673E+02  0.00000000000E+00 0.  1.
         12    1    3    3    0    0 -0.73355434764E+02  0.89544282713E+01 -0.73346172959E+02  0.10411946352E+03  0.00000000000E+00 0. -1.
        -11    1    4    4    0    0  0.77126806314E+02 -0.11233131272E+02  0.14971445988E+02  0.79365431300E+02  0.00000000000E+00 0.  1.
         11    1    4    4    0    0 -0.25901553264E+02  0.35678429108E+01  0.62783181680E+01  0.26889351861E+02  0.00000000000E+00 0. -1.
         21    1    1    2  503  502  0.15205122254E+02  0.20224887784E+02 -0.94802903426E+02  0.98121518163E+02  0.00000000000E+00 0. -1.
         -2    1    1    2    0  503 -0.76220466963E+01 -0.42104853124E+02 -0.66633339807E+02  0.79189116843E+02  0.00000000000E+00 0.  1.
<scales pt_clust_5="13000.00000" pt_clust_6="13000.00000" pt_clust_7="13000.00000" pt_clust_8="13000.00000" pt_clust_9="25.30300" pt_clust_10="13000.00000"></scales>
<clustering>
<clus scale="   25.303">  2  9  1 -1</clus>
<clus scale="   75.649">  5  6 -1 -1</clus>
<clus scale="   90.309">  7  8 -1 -1</clus>
<clus scale="   36.274">  7 10 -1 -1</clus>
<clus scale="   99.598">  1  5  2 -1</clus>
<clus scale="   25.303">  2  5  1 -1</clus>
</clustering>
</event>
<event>
10    4  0.2565852E-005  0.7962092E+03  0.7546771E-02  0.1004268E+00
         21   -1    0    0  501  502  0.00000000000E+00  0.00000000000E+00  0.32540743522E+03  0.32540743522E+03  0.00000000000E+00 0.  1.
          2   -1    0    0  503    0 -0.00000000000E+00 -0.00000000000E+00 -0.12930832674E+04  0.12930832674E+04  0.00000000000E+00 0. -1.
         24    2    1    2    0    0  0.13290758209E+03  0.74708884429E+02 -0.35511536539E+03  0.39389893055E+03  0.76181375442E+02 0.  0.
         23    2    1    2    0    0  0.26018702265E+03 -0.74100196810E+02 -0.67525047507E+03  0.73326209693E+03  0.92314531842E+02 0.  0.
        -13    1    3    3    0    0  0.73641081592E+02  0.23746899834E+02 -0.25733846827E+03  0.26871920549E+03  0.00000000000E+00 0.  1.
         14    1    3    3    0    0  0.59266500502E+02  0.50961984594E+02 -0.97776897122E+02  0.12517972506E+03  0.00000000000E+00 0. -1.
        -13    1    4    4    0    0  0.11003139051E+03 -0.78708476960E+02 -0.33781938430E+03  0.36390090362E+03  0.00000000000E+00 0. -1.
         13    1    4    4    0    0  0.15015563214E+03  0.46082801492E+01 -0.33743109076E+03  0.36936119331E+03  0.00000000000E+00 0.  1.
         21    1    1    2  503  502 -0.48525062735E+02 -0.89246010494E+01  0.13097567604E+03  0.13996055849E+03  0.00000000000E+00 0.  1.
          1    1    1    2  501    0 -0.34456954201E+03  0.83159134311E+01 -0.68285667742E+02  0.35136911662E+03  0.00000000000E+00 0. -1.
<scales pt_clust_5="13000.00000" pt_clust_6="13000.00000" pt_clust_7="13000.00000" pt_clust_8="13000.00000" pt_clust_9="49.33893" pt_clust_10="13000.00000"></scales>
<clustering>
<clus scale="   49.339">  1  9  2 -1</clus>
<clus scale="   76.181">  5  6 -1 -1</clus>
<clus scale="   92.315">  7  8 -1 -1</clus>
<clus scale="  166.198">  2  5  1 -1</clus>
<clus scale="  345.794">  7 10 -1 -1</clus>
<clus scale="   49.339">  1  5  2 -1</clus>
</clustering>
</event>
<event>
10    4  0.2565852E-005  0.2746473E+03  0.7546771E-02  0.1145124E+00
          2   -1    0    0  503    0 -0.00000000000E+00  0.00000000000E+00  0.36715258535E+03  0.36715258535E+03  0.00000000000E+00 0. -1.
         21   -1    0    0  501  502  0.00000000000E+00 -0.00000000000E+00 -0.26686467944E+03  0.26686467944E+03  0.00000000000E+00 0. -1.
         24    2    1    2    0    0 -0.36000035038E+02 -0.31755436289E+01  0.27151398448E+03  0.28480768517E+03  0.78035166200E+02 0.  0.
         23    2    1    2    0    0 -0.71276365214E+02 -0.74773639550E+02 -0.79474103454E+02  0.15928746437E+03  0.91569349538E+02 0.  0.
        -11    1    3    3    0    0  0.13151295387E+02 -0.15522673806E+02  0.21075834807E+02  0.29293357357E+02  0.00000000000E+00 0.  1.
         12    1    3    3    0    0 -0.49151330425E+02  0.12347130177E+02  0.25043814967E+03  0.25551432781E+03  0.00000000000E+00 0. -1.
        -11    1    4    4    0    0 -0.29959198965E+02 -0.15411327139E+02  0.17774738223E+02  0.38092045439E+02  0.00000000000E+00 0.  1.
         11    1    4    4    0    0 -0.41317166248E+02 -0.59362312412E+02 -0.97248841677E+02  0.12119541893E+03  0.00000000000E+00 0. -1.
         21    1    1    2  503  502 -0.19162923974E+02  0.17693372543E+02 -0.11583651432E+02  0.28538641658E+02  0.00000000000E+00 0.  1.
          1    1    1    2  501    0  0.12643932423E+03  0.60255810637E+02 -0.80168323688E+02  0.16138347359E+03  0.00000000000E+00 0. -1.
<scales pt_clust_5="13000.00000" pt_clust_6="13000.00000" pt_clust_7="13000.00000" pt_clust_8="13000.00000" pt_clust_9="26.08205" pt_clust_10="13000.00000"></scales>
<clustering>
<clus scale="   26.082">  2  9  1 -1</clus>
<clus scale="   78.035">  5  6 -1 -1</clus>
<clus scale="   86.199">  1  5  2 -1</clus>
<clus scale="   91.569">  7  8 -1 -1</clus>
<clus scale="  120.367">  7 10 -1 -1</clus>
<clus scale="   26.082">  2  5  1 -1</clus>
</clustering>
</event>
<event>
10    4  0.2565852E-005  0.5216849E+03  0.7546771E-02  0.1047439E+00
          2   -1    0    0  503    0 -0.00000000000E+00  0.00000000000E+00  0.68232547356E+03  0.68232547356E+03  0.00000000000E+00 0. -1.
         21   -1    0    0  501  502  0.00000000000E+00 -0.00000000000E+00 -0.21720839300E+03  0.21720839300E+03  0.00000000000E+00 0.  1.
         24    2    1    2    0    0  0.15540459867E+03  0.25923533615E+02  0.51779301763E+01  0.17636297308E+03  0.79085197289E+02 0.  0.
         23    2    1    2    0    0 -0.62356733416E+02 -0.74438815674E+02 -0.77378090893E+02  0.15406838766E+03  0.91215128382E+02 0.  0.
        -11    1    3    3    0    0  0.75028835349E+02  0.52431182360E+02 -0.55447486368E+00  0.91535034057E+02  0.00000000000E+00 0.  1.
         12    1    3    3    0    0  0.80375763324E+02 -0.26507648745E+02  0.57324050400E+01  0.84827939026E+02  0.00000000000E+00 0. -1.
        -11    1    4    4    0    0 -0.83694718197E+02 -0.42343207392E+02 -0.62717751377E+02  0.11283292695E+03  0.00000000000E+00 0.  1.
         11    1    4    4    0    0  0.21337984781E+02 -0.32095608282E+02 -0.14660339516E+02  0.41235460713E+02  0.00000000000E+00 0. -1.
         21    1    1    2  503  502 -0.38623947308E+02  0.17970387900E+01  0.14354905833E+02  0.41244417507E+02  0.00000000000E+00 0. -1.
          1    1    1    2  501    0 -0.54423917949E+02  0.46718243269E+02  0.52296233544E+03  0.52785808831E+03  0.00000000000E+00 0. -1.
<scales pt_clust_5="13000.00000" pt_clust_6="13000.00000" pt_clust_7="13000.00000" pt_clust_8="13000.00000" pt_clust_9="38.66573" pt_clust_10="13000.00000"></scales>
<clustering>
<clus scale="   38.666">  2  9  1 -1</clus>
<clus scale="   79.085">  5  6 -1 -1</clus>
<clus scale="   91.215">  7  8 -1 -1</clus>
<clus scale="   72.092">  7 10 -1 -1</clus>
<clus scale="  162.288">  1  5  2 -1</clus>
<clus scale="   38.666">  2  5  1 -1</clus>
</clustering>
</event>
<event>
10    4  0.2565852E-005  0.4486739E+03  0.7546771E-02  0.1064276E+00
         21   -1    0    0  501  502  0.00000000000E+00  0.00000000000E+00  0.28022453337E+03  0.28022453337E+03  0.00000000000E+00 0. -1.
          2   -1    0    0  503    0 -0.00000000000E+00 -0.00000000000E+00 -0.18889132399E+04  0.18889132399E+04  0.00000000000E+00 0. -1.
         24    2    1    2    0    0  0.10150012994E+03  0.40040156378E+02 -0.16836482244E+02  0.14815400428E+03  0.98796008769E+02 0.  0.
         23    2    1    2    0    0  0.10813601294E+03  0.64740461063E+02 -0.33712232515E+03  0.37099097039E+03  0.89989518305E+02 0.  0.
        -13    1    3    3    0    0 -0.89705345480E+01  0.27978670070E+02 -0.22310332834E+02  0.36892105119E+02  0.00000000000E+00 0.  1.
         14    1    3    3    0    0  0.11047066449E+03  0.12061486309E+02  0.54738505896E+01  0.11126189916E+03  0.00000000000E+00 0. -1.
        -11    1    4    4    0    0  0.62737807454E+02  0.26831542148E+02 -0.71384052407E+02  0.98750428233E+02  0.00000000000E+00 0.  1.
         11    1    4    4    0    0  0.45398205485E+02  0.37908918915E+02 -0.26573827274E+03  0.27224054216E+03  0.00000000000E+00 0. -1.
         21    1    1    2  503  502  0.23904118546E+02 -0.32271946822E+01  0.18568179899E+03  0.18724196149E+03  0.00000000000E+00 0. -1.
          1    1    1    2  501    0 -0.23354026142E+03 -0.10155342276E+03 -0.14404116981E+04  0.14627508371E+04  0.00000000000E+00 0. -1.
<scales pt_clust_5="13000.00000" pt_clust_6="13000.00000" pt_clust_7="13000.00000" pt_clust_8="13000.00000" pt_clust_9="24.12098" pt_clust_10="13000.00000"></scales>
<clustering>
<clus scale="   24.121">  1  9  2 -1</clus>
<clus scale="   89.990">  7  8 -1 -1</clus>
<clus scale="   98.796">  5  6 -1 -1</clus>
<clus scale="  158.646">  2  5  1 -1</clus>
<clus scale="  154.471">  7 10 -1 -1</clus>
<clus scale="   24.121">  1  5  2 -1</clus>
</clustering>
</event>
<event>
10    4  0.2565852E-005  0.2808256E+03  0.7546771E-02  0.1138540E+00
          4   -1    0    0  502    0 -0.00000000000E+00  0.00000000000E+00  0.77188982065E+03  0.77188982065E+03  0.00000000000E+00 0. -1.
         21   -1    0    0  503  502  0.00000000000E+00 -0.00000000000E+00 -0.16702629430E+03  0.16702629430E+03  0.00000000000E+00 0.  1.
         24    2    1    2    0    0  0.87231655916E+00 -0.55929919492E+02  0.16319150247E+03  0.19047556046E+03  0.80749958656E+02 0.  0.
         23    2    1    2    0    0 -0.12442161935E+03 -0.45261481062E+02  0.32506924001E+03  0.36305594288E+03  0.92791518098E+02 0.  0.
        -11    1    3    3    0    0 -0.23767838022E+02 -0.66309702120E+02  0.12996874075E+03  0.14783017382E+03  0.00000000000E+00 0.  1.
         12    1    3    3    0    0  0.24640154581E+02  0.10379782629E+02  0.33222761721E+02  0.42645386638E+02  0.00000000000E+00 0. -1.
        -11    1    4    4    0    0 -0.92585865691E+02  0.20983769458E+01  0.12865756679E+03  0.15852228614E+03  0.00000000000E+00 0.  1.
         11    1    4    4    0    0 -0.31835753656E+02 -0.47359858008E+02  0.19641167322E+03  0.20453365674E+03  0.00000000000E+00 0. -1.
         21    1    1    2  503  501  0.31375138817E+02  0.27234223166E+02 -0.11669103202E+03  0.12386645713E+03  0.00000000000E+00 0.  1.
          3    1    1    2  501    0  0.92174163971E+02  0.73957177387E+02  0.23329381589E+03  0.26151815449E+03  0.00000000000E+00 0. -1.
<scales pt_clust_5="13000.00000" pt_clust_6="13000.00000" pt_clust_7="13000.00000" pt_clust_8="13000.00000" pt_clust_9="41.54639" pt_clust_10="13000.00000"></scales>
<clustering>
<clus scale="   41.546">  2  9  1 -1</clus>
<clus scale="   80.750">  5  6 -1 -1</clus>
<clus scale="   92.792">  7  8 -1 -1</clus>
<clus scale="   94.464">  1  5  2 -1</clus>
<clus scale="  121.410">  7 10 -1 -1</clus>
<clus scale="   41.546">  2  5  1 -1</clus>
</clustering>
</event>
<event>
10    4  0.2565852E-005  0.3470763E+03  0.7546771E-02  0.1113057E+00
         21   -1    0    0  503  502  0.00000000000E+00  0.00000000000E+00  0.17132089006E+03  0.17132089006E+03  0.00000000000E+00 0. -1.
          2   -1    0    0  502    0 -0.00000000000E+00 -0.00000000000E+00 -0.43374224352E+03  0.43374224352E+03  0.00000000000E+00 0. -1.
         24    2    1    2    0    0 -0.27065494022E+02 -0.38838275740E+02 -0.77985024314E+02  0.12142995043E+03  0.80141226695E+02 0.  0.
         23    2    1    2    0    0  0.58363707699E+02  0.11091216392E+03  0.14980735321E+02  0.15670198756E+03  0.92861509750E+02 0.  0.
        -13    1    3    3    0    0 -0.54835984415E+02 -0.23813056524E+02 -0.39518577528E+02  0.71664250625E+02  0.00000000000E+00 0.  1.
         14    1    3    3    0    0  0.27770490394E+02 -0.15025219216E+02 -0.38466446785E+02  0.49765699809E+02  0.00000000000E+00 0. -1.
        -11    1    4    4    0    0  0.42692720581E+02  0.12642433256E+03  0.84522719340E+01  0.13370572596E+03  0.00000000000E+00 0. -1.
         11    1    4    4    0    0  0.15670987117E+02 -0.15512168643E+02  0.65284633873E+01  0.22996261597E+02  0.00000000000E+00 0.  1.
         21    1    1    2  503  501 -0.27280881846E+02  0.91653672983E+01  0.53776618724E+02  0.60993238915E+02  0.00000000000E+00 0. -1.
          1    1    1    2  501    0 -0.40173318310E+01 -0.81239255479E+02 -0.25319368320E+03  0.26593795667E+03  0.00000000000E+00 0. -1.
<scales pt_clust_5="13000.00000" pt_clust_6="13000.00000" pt_clust_7="13000.00000" pt_clust_8="13000.00000" pt_clust_9="28.77934" pt_clust_10="13000.00000"></scales>
<clustering>
<clus scale="   28.779">  1  9  2 -1</clus>
<clus scale="   80.141">  5  6 -1 -1</clus>
<clus scale="   92.862">  7  8 -1 -1</clus>
<clus scale="   80.917">  7 10 -1 -1</clus>
<clus scale="   94.019">  2  5  1 -1</clus>
<clus scale="   28.779">  1  5  2 -1</clus>
</clustering>
</event>
<event>
10    4  0.2565852E-005  0.2925277E+03  0.7546771E-02  0.1120802E+00
          2   -1    0    0  502    0 -0.00000000000E+00  0.00000000000E+00  0.51225575052E+03  0.51225575052E+03  0.00000000000E+00 0. -1.
         21   -1    0    0  503  502  0.00000000000E+00 -0.00000000000E+00 -0.45893349607E+03  0.45893349607E+03  0.00000000000E+00 0. -1.
         24    2    1    2    0    0 -0.99831279253E+02  0.71095217625E+01  0.31973475860E+03  0.34486565771E+03  0.81762927999E+02 0.  0.
         23    2    1    2    0    0  0.77790291553E+01  0.42743465560E+01  0.33308952880E+02  0.99048757288E+02  0.92856807210E+02 0.  0.
        -13    1    3    3    0    0 -0.43513821280E+02  0.21602262494E+02  0.53129879776E+02  0.71992322593E+02  0.00000000000E+00 0.  1.
         14    1    3    3    0    0 -0.56317457973E+02 -0.14492740731E+02  0.26660487882E+03  0.27287333512E+03  0.00000000000E+00 0. -1.
        -11    1    4    4    0    0 -0.59333015276E+01  0.44401757264E+02 -0.52511302848E+00  0.44799507350E+02  0.00000000000E+00 0.  1.
         11    1    4    4    0    0  0.13712330683E+02 -0.40127410708E+02  0.33834065909E+02  0.54249249938E+02  0.00000000000E+00 0. -1.
         21    1    1    2  503  501 -0.11600416101E+03 -0.11303286099E+03 -0.23755269555E+03  0.28751465388E+03  0.00000000000E+00 0. -1.
          1    1    1    2  501    0  0.20805641110E+03  0.10164899267E+03 -0.62168761476E+02  0.23976017771E+03  0.00000000000E+00 0. -1.
<scales pt_clust_5="13000.00000" pt_clust_6="13000.00000" pt_clust_7="13000.00000" pt_clust_8="13000.00000" pt_clust_9="171.51839" pt_clust_10="13000.00000"></scales>
<clustering>
<clus scale="   81.763">  5  6 -1 -1</clus>
<clus scale="   92.857">  7  8 -1 -1</clus>
<clus scale="  129.236">  1  5  2 -1</clus>
<clus scale="  171.518">  2  9  1 -1</clus>
<clus scale="   76.334">  7 10 -1 -1</clus>
<clus scale="  171.518">  2  5  1 -1</clus>
</clustering>
</event>
<event>
10    4  0.2565852E-005  0.1723672E+03  0.7546771E-02  0.1181135E+00
         -1   -1    0    0    0  501 -0.00000000000E+00  0.00000000000E+00  0.10725564009E+04  0.10725564009E+04  0.00000000000E+00 0.  1.
         21   -1    0    0  501  502  0.00000000000E+00 -0.00000000000E+00 -0.90118768488E+02  0.90118768488E+02  0.00000000000E+00 0.  1.
         24    2    1    2    0    0 -0.17515925943E+03 -0.12010252489E+03  0.63926132443E+03  0.67886696411E+03  0.84261090663E+02 0.  0.
         23    2    1    2    0    0  0.26562012985E+02 -0.78357552623E+01  0.19927161995E+03  0.22053595447E+03  0.90332657992E+02 0.  0.
        -13    1    3    3    0    0 -0.13870894421E+03 -0.12179985730E+03  0.58535371430E+03  0.61377059826E+03  0.00000000000E+00 0.  1.
         14    1    3    3    0    0 -0.36450315224E+02  0.16973324137E+01  0.53907610132E+02  0.65096365854E+02  0.00000000000E+00 0. -1.
        -11    1    4    4    0    0  0.27420682655E+02  0.26385813666E+02  0.31771387437E+02  0.49573441072E+02  0.00000000000E+00 0.  1.
         11    1    4    4    0    0 -0.85866966975E+00 -0.34221568928E+02  0.16750023252E+03  0.17096251340E+03  0.00000000000E+00 0. -1.
         21    1    1    2  503  502  0.10885783620E+03  0.11962864559E+03  0.64576096758E+02  0.17415830046E+03  0.00000000000E+00 0.  1.
         -2    1    1    2    0  503  0.39739410250E+02  0.83096345562E+01  0.79328591279E+02  0.89113950355E+02  0.00000000000E+00 0.  1.
<scales pt_clust_5="13000.00000" pt_clust_6="13000.00000" pt_clust_7="13000.00000" pt_clust_8="13000.00000" pt_clust_9="161.74375" pt_clust_10="13000.00000"></scales>
<clustering>
<clus scale="   84.261">  5  6 -1 -1</clus>
<clus scale="   90.333">  7  8 -1 -1</clus>
<clus scale="   40.599">  7 10 -1 -1</clus>
<clus scale="  161.744">  2  9  1 -1</clus>
<clus scale="  151.465">  1  5  2 -1</clus>
<clus scale="  161.744">  2  5  1 -1</clus>
</clustering>
</event>
<event>
10    4  0.2565852E-005  0.3350245E+03  0.7546771E-02  0.1088906E+00
          2   -1    0    0  503    0 -0.00000000000E+00  0.00000000000E+00  0.52218193373E+03  0.52218193373E+03  0.00000000000E+00 0. -1.
         21   -1    0    0  501  502  0.00000000000E+00 -0.00000000000E+00 -0.22564216138E+03  0.22564216138E+03  0.00000000000E+00 0. -1.
         24    2    1    2    0    0 -0.93732885911E+02  0.14674387072E+03  0.21140121648E+03  0.28586972483E+03  0.81923182001E+02 0.  0.
         23    2    1    2    0    0  0.18163448185E+02  0.55148726571E+01 -0.42960396654E+02  0.10270593951E+03  0.91337777833E+02 0.  0.
        -11    1    3    3    0    0  0.14930971025E+02  0.24709343477E+02  0.27671980749E+02  0.39990299691E+02  0.00000000000E+00 0.  1.
         12    1    3    3    0    0 -0.10866385694E+03  0.12203452724E+03  0.18372923573E+03  0.24587942514E+03  0.00000000000E+00 0. -1.
        -11    1    4    4    0    0 -0.56794503141E+01 -0.37042733277E+02 -0.38489146273E+02  0.53719964867E+02  0.00000000000E+00 0.  1.
         11    1    4    4    0    0  0.23842898499E+02  0.42557605934E+02 -0.44712503816E+01  0.48985974643E+02  0.00000000000E+00 0. -1.
         21    1    1    2  503  502 -0.25903131775E+02 -0.19366270650E+01 -0.79469644269E+02  0.83607099701E+02  0.00000000000E+00 0. -1.
          1    1    1    2  501    0  0.10147256950E+03 -0.15032211631E+03  0.20756859680E+03  0.27564133106E+03  0.00000000000E+00 0. -1.
<scales pt_clust_5="13000.00000" pt_clust_6="13000.00000" pt_clust_7="13000.00000" pt_clust_8="13000.00000" pt_clust_9="25.97543" pt_clust_10="13000.00000"></scales>
<clustering>
<clus scale="   25.975">  2  9  1 -1</clus>
<clus scale="   81.923">  5  6 -1 -1</clus>
<clus scale="   91.338">  7  8 -1 -1</clus>
<clus scale="  178.401">  7 10 -1 -1</clus>
<clus scale="  195.407">  1  5  2 -1</clus>
<clus scale="   25.975">  2  5  1 -1</clus>
</clustering>
</event>
<event>
10    4  0.2565852E-005  0.1641633E+03  0.7546771E-02  0.1212339E+00
          2   -1    0    0  502    0 -0.00000000000E+00  0.00000000000E+00  0.23339377479E+03  0.23339377479E+03  0.00000000000E+00 0. -1.
         21   -1    0    0  503  502  0.00000000000E+00 -0.00000000000E+00 -0.27882159778E+03  0.27882159778E+03  0.00000000000E+00 0. -1.
         24    2    1    2    0    0 -0.10580053935E+02 -0.30887778753E+02  0.17440132348E+03  0.19556632392E+03  0.82245808435E+02 0.  0.
         23    2    1    2    0    0 -0.59423882988E+02  0.84092901978E+01 -0.89924967176E+02  0.14875630892E+03  0.10217644392E+03 0.  0.
        -11    1    3    3    0    0 -0.16767888686E+02  0.23871630732E+02  0.34367597654E+02  0.45079359061E+02  0.00000000000E+00 0.  1.
         12    1    3    3    0    0  0.61878347508E+01 -0.54759409485E+02  0.14003372582E+03  0.15048696486E+03  0.00000000000E+00 0. -1.
        -11    1    4    4    0    0  0.26033942791E+02 -0.93210458108E+01 -0.38675444871E+02  0.47544064911E+02  0.00000000000E+00 0.  1.
         11    1    4    4    0    0 -0.85457825779E+02  0.17730336009E+02 -0.51249522305E+02  0.10121224401E+03  0.00000000000E+00 0. -1.
         21    1    1    2  503  501  0.39839373792E+02 -0.20987366714E+02 -0.93177179424E+02  0.10348735203E+03  0.00000000000E+00 0. -1.
          1    1    1    2  501    0  0.30164563132E+02  0.43465855270E+02 -0.36726999864E+02  0.64405387680E+02  0.00000000000E+00 0. -1.
<scales pt_clust_5="13000.00000" pt_clust_6="13000.00000" pt_clust_7="13000.00000" pt_clust_8="13000.00000" pt_clust_9="45.02938" pt_clust_10="13000.00000"></scales>
<clustering>
<clus scale="   45.029">  2  9  1 -1</clus>
<clus scale="   82.246">  5  6 -1 -1</clus>
<clus scale="   88.679">  1  5  2 -1</clus>
<clus scale="  102.176">  7  8 -1 -1</clus>
<clus scale="   46.276">  7 10 -1 -1</clus>
<clus scale="   45.029">  2  5  1 -1</clus>
</clustering>
</event>
<event>
10    4  0.2565852E-005  0.2689091E+03  0.7546771E-02  0.1130276E+00
         21   -1    0    0  501  502  0.00000000000E+00  0.00000000000E+00  0.83020035516E+02  0.83020035516E+02  0.00000000000E+00 0.  1.
          2   -1    0    0  503    0 -0.00000000000E+00 -0.00000000000E+00 -0.78277626493E+03  0.78277626493E+03  0.00000000000E+00 0. -1.
         24    2    1    2    0    0 -0.58445798454E+01 -0.10912588237E+03 -0.30981483689E+03  0.34110214214E+03  0.91775927686E+02 0.  0.
         23    2    1    2    0    0  0.64597209415E+02  0.63805770789E+02 -0.10102471508E+03  0.16363591145E+03  0.91250986880E+02 0.  0.
        -11    1    3    3    0    0  0.37631850580E+02 -0.41160295039E+02 -0.17822738540E+03  0.18674936940E+03  0.00000000000E+00 0.  1.
         12    1    3    3    0    0 -0.43476430426E+02 -0.67965587332E+02 -0.13158745149E+03  0.15435277274E+03  0.00000000000E+00 0. -1.
        -13    1    4    4    0    0 -0.94304421516E+00  0.28037636215E+02  0.10049200672E+02  0.29799073997E+02  0.00000000000E+00 0.  1.
         13    1    4    4    0    0  0.65540253630E+02  0.35768134574E+02 -0.11107391576E+03  0.13383683745E+03  0.00000000000E+00 0. -1.
         21    1    1    2  503  502  0.60388801714E+02  0.60803808988E+02 -0.67277079366E+02  0.10895006181E+03  0.00000000000E+00 0.  1.
          1    1    1    2  501    0 -0.11914143128E+03 -0.15483697407E+02 -0.22163959808E+03  0.25210818505E+03  0.00000000000E+00 0. -1.
<scales pt_clust_5="13000.00000" pt_clust_6="13000.00000" pt_clust_7="13000.00000" pt_clust_8="13000.00000" pt_clust_9="85.69662" pt_clust_10="13000.00000"></scales>
<clustering>
<clus scale="   85.697">  1  9  2 -1</clus>
<clus scale="   91.251">  7  8 -1 -1</clus>
<clus scale="   91.776">  5  6 -1 -1</clus>
<clus scale="  104.349">  7 10 -1 -1</clus>
<clus scale="  131.583">  2  5  1 -1</clus>
<clus scale="   85.697">  1  5  2 -1</clus>
</clustering>
</event>
<event>
10    4  0.2565852E-005  0.2321320E+03  0.7546771E-02  0.1141187E+00
          2   -1    0    0  503    0 -0.00000000000E+00  0.00000000000E+00  0.13117147521E+04  0.13117147521E+04  0.00000000000E+00 0. -1.
         21   -1    0    0  501  502  0.00000000000E+00 -0.00000000000E+00 -0.75788438257E+02  0.75788438257E+02  0.00000000000E+00 0. -1.
         24    2    1    2    0    0  0.11085553114E+03 -0.88535311960E+02  0.64874626891E+03  0.66947383184E+03  0.84829475064E+02 0.  0.
         23    2    1    2    0    0 -0.12727570370E+03  0.61987993028E+02  0.44189913500E+03  0.47284784219E+03  0.90931954307E+02 0.  0.
        -13    1    3    3    0    0  0.43708507433E+01 -0.25320128738E+02  0.35346865339E+02  0.43699132083E+02  0.00000000000E+00 0.  1.
         14    1    3    3    0    0  0.10648468040E+03 -0.63215183223E+02  0.61339940357E+03  0.62577469975E+03  0.00000000000E+00 0. -1.
        -13    1    4    4    0    0 -0.58339974074E+02 -0.20994945008E+01  0.27601146032E+03  0.28211750509E+03  0.00000000000E+00 0.  1.
         13    1    4    4    0    0 -0.68935729629E+02  0.64087487529E+02  0.16588767469E+03  0.19073033710E+03  0.00000000000E+00 0. -1.
         21    1    1    2  503  502 -0.32041571306E+02  0.54891009821E+01 -0.40557097420E+02  0.51977597795E+02  0.00000000000E+00 0. -1.
          1    1    1    2  501    0  0.48461743866E+02  0.21058217950E+02  0.18583800733E+03  0.19320391852E+03  0.00000000000E+00 0. -1.
<scales pt_clust_5="13000.00000" pt_clust_6="13000.00000" pt_clust_7="13000.00000" pt_clust_8="13000.00000" pt_clust_9="32.50835" pt_clust_10="13000.00000"></scales>
<clustering>
<clus scale="   32.508">  2  9  1 -1</clus>
<clus scale="   84.829">  5  6 -1 -1</clus>
<clus scale="   90.932">  7  8 -1 -1</clus>
<clus scale="   49.496">  7 10 -1 -1</clus>
<clus scale="  156.903">  1  5  2 -1</clus>
<clus scale="   32.508">  2  5  1 -1</clus>
</clustering>
</event>
<event>
10    4  0.2565852E-005  0.2941071E+03  0.7546771E-02  0.1107092E+00
          2   -1    0    0  502    0 -0.00000000000E+00  0.00000000000E+00  0.26111471900E+04  0.26111471900E+04  0.00000000000E+00 0. -1.
         21   -1    0    0  503  502  0.00000000000E+00 -0.00000000000E+00 -0.12615861872E+03  0.12615861872E+03  0.00000000000E+00 0. -1.
         24    2    1    2    0    0 -0.11295882475E+03  0.10732841190E+03  0.19022049995E+04  0.19103158078E+04  0.81507922008E+02 0.  0.
         23    2    1    2    0    0  0.12530527130E+03 -0.13097907906E+03  0.25943921508E+03  0.32983439476E+03  0.92871370593E+02 0.  0.
        -11    1    3    3    0    0  0.30037304231E+01  0.24071000525E+02  0.12150701089E+03  0.12390475841E+03  0.00000000000E+00 0.  1.
         12    1    3    3    0    0 -0.11596255517E+03  0.83257411374E+02  0.17806979886E+04  0.17864110494E+04  0.00000000000E+00 0. -1.
        -13    1    4    4    0    0  0.67479772545E+02 -0.91095919626E+02  0.22422929782E+03  0.25125836161E+03  0.00000000000E+00 0.  1.
         13    1    4    4    0    0  0.57825498751E+02 -0.39883159434E+02  0.35209917261E+02  0.78576033151E+02  0.00000000000E+00 0. -1.
         21    1    1    2  503  501 -0.64709632490E+02 -0.21126582114E+01 -0.72402900809E+02  0.97128677059E+02  0.00000000000E+00 0. -1.
          1    1    1    2  501    0  0.52363185940E+02  0.25763325373E+02  0.39574725749E+03  0.40002692907E+03  0.00000000000E+00 0. -1.
<scales pt_clust_5="13000.00000" pt_clust_6="13000.00000" pt_clust_7="13000.00000" pt_clust_8="13000.00000" pt_clust_9="64.74411" pt_clust_10="13000.00000"></scales>
<clustering>
<clus scale="   64.744">  2  9  1 -1</clus>
<clus scale="   81.508">  5  6 -1 -1</clus>
<clus scale="   92.871">  7  8 -1 -1</clus>
<clus scale="   55.325">  7 10 -1 -1</clus>
<clus scale="  179.863">  1  5  2 -1</clus>
<clus scale="   64.744">  2  5  1 -1</clus>
</clustering>
</event>
<event>
10    4  0.2571691E-005  0.4177103E+03  0.7546771E-02  0.1068025E+00
          2   -1    0    0  503    0 -0.00000000000E+00  0.00000000000E+00  0.15105381339E+04  0.15105381339E+04  0.00000000000E+00 0. -1.
         21   -1    0    0  501  502  0.00000000000E+00 -0.00000000000E+00 -0.67970232098E+02  0.67970232098E+02  0.00000000000E+00 0.  1.
         24    2    1    2    0    0 -0.71253726643E+02 -0.13534389245E+03  0.23257259287E+03  0.28995092653E+03  0.81157045639E+02 0.  0.
         23    2    1    2    0    0 -0.56978255556E+02  0.34255077850E+02  0.11649612176E+03  0.17723803398E+03  0.11585353830E+03 0.  0.
        -11    1    3    3    0    0 -0.93803998844E+01 -0.48480272086E+02  0.22303829441E+02  0.54182926197E+02  0.00000000000E+00 0.  1.
         12    1    3    3    0    0 -0.61873326759E+02 -0.86863620365E+02  0.21026876343E+03  0.23576800033E+03  0.00000000000E+00 0. -1.
        -13    1    4    4    0    0 -0.18640117855E+02 -0.28028580454E+02  0.95331866764E+02  0.10110005013E+03  0.00000000000E+00 0.  1.
         13    1    4    4    0    0 -0.38338137701E+02  0.62283658304E+02  0.21164255000E+02  0.76137983844E+02  0.00000000000E+00 0. -1.
         21    1    1    2  503  502  0.13145407418E+02 -0.18202137032E+02  0.50982334304E+02  0.55707431639E+02  0.00000000000E+00 0.  1.
          1    1    1    2  501    0  0.11508657478E+03  0.11929095163E+03  0.10425168528E+04  0.10556119738E+04  0.00000000000E+00 0. -1.
<scales pt_clust_5="13000.00000" pt_clust_6="13000.00000" pt_clust_7="13000.00000" pt_clust_8="13000.00000" pt_clust_9="22.45262" pt_clust_10="13000.00000"></scales>
<clustering>
<clus scale="   22.453">  2  9  1 -1</clus>
<clus scale="   81.157">  5  6 -1 -1</clus>
<clus scale="  115.854">  7  8 -1 -1</clus>
<clus scale="  165.375">  7 10 -1 -1</clus>
<clus scale="  177.238">  1  5  2 -1</clus>
<clus scale="   22.453">  2  5  1 -1</clus>
</clustering>
</event>
<event>
10    4  0.2565852E-005  0.3583979E+03  0.7546771E-02  0.1099149E+00
          2   -1    0    0  502    0 -0.00000000000E+00  0.00000000000E+00  0.14354669325E+04  0.14354669325E+04  0.00000000000E+00 0. -1.
         21   -1    0    0  503  502  0.00000000000E+00 -0.00000000000E+00 -0.47605733030E+02  0.47605733030E+02  0.00000000000E+00 0. -1.
         24    2    1    2    0    0  0.61400903468E+02  0.65237466500E+02  0.35669618440E+03  0.37621223698E+03  0.79230557904E+02 0.  0.
         23    2    1    2    0    0 -0.86458015979E+01  0.92602719497E+02  0.13424575784E+03  0.18635176021E+03  0.89749882965E+02 0.  0.
        -13    1    3    3    0    0 -0.13364695920E+02  0.24160480770E+02  0.42818895943E+02  0.50949011549E+02  0.00000000000E+00 0.  1.
         14    1    3    3    0    0  0.74765599387E+02  0.41076985730E+02  0.31387728846E+03  0.32526322543E+03  0.00000000000E+00 0. -1.
        -13    1    4    4    0    0 -0.46100807493E+02  0.31282305161E+02  0.43986621544E+02  0.70983730126E+02  0.00000000000E+00 0. -1.
         13    1    4    4    0    0  0.37455005895E+02  0.61320414336E+02  0.90259136301E+02  0.11536803009E+03  0.00000000000E+00 0.  1.
         21    1    1    2  503  501  0.34950279226E+02 -0.14859439796E+02  0.12848703492E+03  0.13398224924E+03  0.00000000000E+00 0. -1.
          1    1    1    2  501    0 -0.87705381096E+02 -0.14298074620E+03  0.76843222225E+03  0.78652641904E+03  0.00000000000E+00 0. -1.
<scales pt_clust_5="13000.00000" pt_clust_6="13000.00000" pt_clust_7="13000.00000" pt_clust_8="13000.00000" pt_clust_9="37.97797" pt_clust_10="13000.00000"></scales>
<clustering>
<clus scale="   37.978">  2  9  1 -1</clus>
<clus scale="   79.231">  5  6 -1 -1</clus>
<clus scale="   89.750">  7  8 -1 -1</clus>
<clus scale="  121.998">  1  5  2 -1</clus>
<clus scale="  102.316">  7 10 -1 -1</clus>
<clus scale="   37.978">  2  5  1 -1</clus>
</clustering>
</event>
<event>
10    4  0.2565852E-005  0.3029938E+03  0.7546771E-02  0.1128837E+00
         21   -1    0    0  501  502  0.00000000000E+00  0.00000000000E+00  0.59179523869E+03  0.59179523869E+03  0.00000000000E+00 0. -1.
          2   -1    0    0  503    0 -0.00000000000E+00 -0.00000000000E+00 -0.94827730521E+02  0.94827730521E+02  0.00000000000E+00 0. -1.
         24    2    1    2    0    0  0.47474393660E+02  0.15379949741E+02  0.23172896759E+03  0.25030020020E+03  0.80383548648E+02 0.  0.
         23    2    1    2    0    0  0.15816896972E+02 -0.78708675368E+01 -0.50676998400E+02  0.10612076677E+03  0.91549626913E+02 0.  0.
        -13    1    3    3    0    0  0.38083823925E+02  0.41931521581E+02  0.20003804783E+03  0.20790346492E+03  0.00000000000E+00 0.  1.
         14    1    3    3    0    0  0.93905697356E+01 -0.26551571840E+02  0.31690919759E+02  0.42396735279E+02  0.00000000000E+00 0. -1.
        -11    1    4    4    0    0  0.70644059065E+01  0.39197816647E+02 -0.41222232780E+02  0.57320564687E+02  0.00000000000E+00 0.  1.
         11    1    4    4    0    0  0.87524910651E+01 -0.47068684184E+02 -0.94547656205E+01  0.48800202085E+02  0.00000000000E+00 0. -1.
         21    1    1    2  503  502  0.74568270424E+01 -0.22499768304E+02  0.73274535212E+02  0.77012994707E+02  0.00000000000E+00 0. -1.
          1    1    1    2  501    0 -0.70748117674E+02  0.14990686100E+02  0.24264100377E+03  0.25318900753E+03  0.00000000000E+00 0. -1.
<scales pt_clust_5="13000.00000" pt_clust_6="13000.00000" pt_clust_7="13000.00000" pt_clust_8="13000.00000" pt_clust_9="23.70325" pt_clust_10="13000.00000"></scales>
<clustering>
<clus scale="   23.703">  1  9  2 -1</clus>
<clus scale="   80.384">  5  6 -1 -1</clus>
<clus scale="   91.550">  7  8 -1 -1</clus>
<clus scale="   67.301">  7 10 -1 -1</clus>
<clus scale="   95.297">  2  5  1 -1</clus>
<clus scale="   23.703">  1  5  2 -1</clus>
</clustering>
</event>
<event>
10    4  0.2565852E-005  0.6470241E+03  0.7546771E-02  0.1036727E+00
          2   -1    0    0  503    0 -0.00000000000E+00  0.00000000000E+00  0.23590165779E+04  0.23590165779E+04  0.00000000000E+00 0. -1.
         21   -1    0    0  501  502  0.00000000000E+00 -0.00000000000E+00 -0.78368337200E+02  0.78368337200E+02  0.00000000000E+00 0.  1.
         24    2    1    2    0    0  0.11504668952E+02  0.80837382619E+02  0.70430550582E+03  0.71359557720E+03  0.80655826993E+02 0.  0.
         23    2    1    2    0    0  0.91428040530E+02  0.22041060008E+03  0.31255908857E+03  0.40341451762E+03  0.90056482037E+02 0.  0.
        -11    1    3    3    0    0 -0.13946902120E+02  0.78629573721E+02  0.38081785872E+03  0.38910071635E+03  0.00000000000E+00 0.  1.
         12    1    3    3    0    0  0.25451571073E+02  0.22078088988E+01  0.32348764710E+03  0.32449486085E+03  0.00000000000E+00 0. -1.
        -13    1    4    4    0    0  0.10788991793E+03  0.20801339406E+03  0.28390222044E+03  0.36811720588E+03  0.00000000000E+00 0.  1.
         13    1    4    4    0    0 -0.16461877400E+02  0.12397206020E+02  0.28656868131E+02  0.35297311735E+02  0.00000000000E+00 0. -1.
         21    1    1    2  503  502 -0.28086897742E+01  0.29830207732E+02  0.18746316731E+03  0.18984248505E+03  0.00000000000E+00 0. -1.
          1    1    1    2  501    0 -0.10012401971E+03 -0.33107819043E+03  0.10763204790E+04  0.11305323353E+04  0.00000000000E+00 0. -1.
<scales pt_clust_5="13000.00000" pt_clust_6="13000.00000" pt_clust_7="13000.00000" pt_clust_8="13000.00000" pt_clust_9="29.96216" pt_clust_10="13000.00000"></scales>
<clustering>
<clus scale="   29.962">  2  9  1 -1</clus>
<clus scale="   80.656">  5  6 -1 -1</clus>
<clus scale="   90.056">  7  8 -1 -1</clus>
<clus scale="  116.026">  1  5  2 -1</clus>
<clus scale="  281.009">  7 10 -1 -1</clus>
<clus scale="   29.962">  2  5  1 -1</clus>
</clustering>
</event>
<event>
10    4  0.2565852E-005  0.1837648E+03  0.7546771E-02  0.1182980E+00
         21   -1    0    0  503  502  0.00000000000E+00  0.00000000000E+00  0.55027887547E+02  0.55027887547E+02  0.00000000000E+00 0. -1.
          4   -1    0    0  502    0 -0.00000000000E+00 -0.00000000000E+00 -0.75435431908E+03  0.75435431908E+03  0.00000000000E+00 0. -1.
         24    2    1    2    0    0 -0.43579529455E+02 -0.86073188093E+02 -0.38001503242E+03  0.40028968704E+03  0.80700926855E+02 0.  0.
         23    2    1    2    0    0  0.29998518095E+02  0.22553556866E+02 -0.11015355780E+03  0.14751921854E+03  0.90661676168E+02 0.  0.
        -13    1    3    3    0    0  0.18829697501E+02 -0.23704402945E+02 -0.16705104088E+03  0.16977192491E+03  0.00000000000E+00 0.  1.
         14    1    3    3    0    0 -0.62409226957E+02 -0.62368785149E+02 -0.21296399153E+03  0.23051776214E+03  0.00000000000E+00 0. -1.
        -11    1    4    4    0    0  0.11214612776E+02  0.56005610523E+02 -0.82002280322E+02  0.99933827745E+02  0.00000000000E+00 0.  1.
         11    1    4    4    0    0  0.18783905319E+02 -0.33452053657E+02 -0.28151277483E+02  0.47585390792E+02  0.00000000000E+00 0. -1.
         21    1    1    2  503  501  0.46991922783E+02  0.80155853778E+01 -0.56519953620E+01  0.48004535904E+02  0.00000000000E+00 0. -1.
          3    1    1    2  501    0 -0.33410911423E+02  0.55504045850E+02 -0.20350584595E+03  0.21356876514E+03  0.00000000000E+00 0. -1.
<scales pt_clust_5="13000.00000" pt_clust_6="13000.00000" pt_clust_7="13000.00000" pt_clust_8="13000.00000" pt_clust_9="47.67065" pt_clust_10="13000.00000"></scales>
<clustering>
<clus scale="   47.671">  1  9  2 -1</clus>
<clus scale="   80.701">  5  6 -1 -1</clus>
<clus scale="   90.662">  7  8 -1 -1</clus>
<clus scale="   62.552">  7 10 -1 -1</clus>
<clus scale="  119.935">  2  5  1 -1</clus>
<clus scale="   47.671">  1  5  2 -1</clus>
</clustering>
</event>
<event>
10    4  0.2565852E-005  0.2457331E+03  0.7546771E-02  0.1123638E+00
         21   -1    0    0  501  502  0.00000000000E+00  0.00000000000E+00  0.93823438688E+03  0.93823438688E+03  0.00000000000E+00 0. -1.
         -3   -1    0    0    0  501 -0.00000000000E+00 -0.00000000000E+00 -0.72632475955E+02  0.72632475955E+02  0.00000000000E+00 0.  1.
         24    2    1    2    0    0  0.14114079249E+03 -0.12846396351E+03  0.24403859901E+03  0.32034867910E+03  0.81515183665E+02 0.  0.
         23    2    1    2    0    0 -0.35876103444E+02  0.26788879351E+02  0.24592231286E+03  0.26595738441E+03  0.90833955669E+02 0.  0.
        -13    1    3    3    0    0  0.19564665716E+02 -0.99600087630E+01 -0.13027919585E+01  0.21992616625E+02  0.00000000000E+00 0.  1.
         14    1    3    3    0    0  0.12157612678E+03 -0.11850395475E+03  0.24534139097E+03  0.29835606248E+03  0.00000000000E+00 0. -1.
        -13    1    4    4    0    0  0.51745847580E+01  0.48485845419E+02  0.80261172704E+02  0.93912242957E+02  0.00000000000E+00 0. -1.
         13    1    4    4    0    0 -0.41050688202E+02 -0.21696966068E+02  0.16566114015E+03  0.17204514145E+03  0.00000000000E+00 0.  1.
         21    1    1    2  503  502  0.24668330182E+02  0.51369257775E+02  0.13426094610E+03  0.14585379257E+03  0.00000000000E+00 0.  1.
         -4    1    1    2    0  503 -0.12993301923E+03  0.50305826383E+02  0.24138005294E+03  0.27870700675E+03  0.00000000000E+00 0.  1.
<scales pt_clust_5="13000.00000" pt_clust_6="13000.00000" pt_clust_7="13000.00000" pt_clust_8="13000.00000" pt_clust_9="56.98532" pt_clust_10="13000.00000"></scales>
<clustering>
<clus scale="   56.985">  1  9  2 -1</clus>
<clus scale="   81.515">  5  6 -1 -1</clus>
<clus scale="   90.834">  7  8 -1 -1</clus>
<clus scale="  139.116">  7 10 -1 -1</clus>
<clus scale="  203.150">  2  5  1 -1</clus>
<clus scale="   56.985">  1  5  2 -1</clus>
</clustering>
</event>
<event>
10    4  0.2565852E-005  0.3606659E+03  0.7546771E-02  0.1094397E+00
         21   -1    0    0  501  502  0.00000000000E+00  0.00000000000E+00  0.10920162643E+03  0.10920162643E+03  0.00000000000E+00 0.  1.
          2   -1    0    0  503    0 -0.00000000000E+00 -0.00000000000E+00 -0.12856803545E+04  0.12856803545E+04  0.00000000000E+00 0. -1.
         24    2    1    2    0    0 -0.93191285201E+02  0.54356302806E+02 -0.16254292604E+03  0.20859847603E+03  0.73850511890E+02 0.  0.
         23    2    1    2    0    0  0.86496302111E+02 -0.18579630792E+03 -0.44627334499E+03  0.49960683823E+03  0.91897856567E+02 0.  0.
        -13    1    3    3    0    0 -0.29232977399E+02  0.54602086637E+02 -0.51927937683E+02  0.80823669458E+02  0.00000000000E+00 0.  1.
         14    1    3    3    0    0 -0.63958307802E+02 -0.24578383097E+00 -0.11061498836E+03  0.12777480658E+03  0.00000000000E+00 0. -1.
        -13    1    4    4    0    0  0.50994546179E+02 -0.18047439108E+03 -0.39175337484E+03  0.43432954801E+03  0.00000000000E+00 0.  1.
         13    1    4    4    0    0  0.35501755932E+02 -0.53219168349E+01 -0.54519970150E+02  0.65277290218E+02  0.00000000000E+00 0. -1.
         21    1    1    2  503  502  0.87382645115E+01  0.36510632922E+02  0.49571008806E+02  0.62182541739E+02  0.00000000000E+00 0.  1.
          1    1    1    2  501    0 -0.20432814211E+01  0.94929372190E+02 -0.61723346581E+03  0.62449412488E+03  0.00000000000E+00 0. -1.
<scales pt_clust_5="13000.00000" pt_clust_6="13000.00000" pt_clust_7="13000.00000" pt_clust_8="13000.00000" pt_clust_9="37.54176" pt_clust_10="13000.00000"></scales>
<clustering>
<clus scale="   37.542">  1  9  2 -1</clus>
<clus scale="   73.851">  5  6 -1 -1</clus>
<clus scale="   91.898">  7  8 -1 -1</clus>
<clus scale="   97.426">  7 10 -1 -1</clus>
<clus scale="  135.524">  2  5  1 -1</clus>
<clus scale="   37.542">  1  5  2 -1</clus>
</clustering>
</event>
<event>
10    4  0.2565852E-005  0.2882868E+03  0.7546771E-02  0.1111784E+00
         21   -1    0    0  503  502  0.00000000000E+00  0.00000000000E+00  0.11282872536E+03  0.11282872536E+03  0.00000000000E+00 0. -1.
          2   -1    0    0  502    0 -0.00000000000E+00 -0.00000000000E+00 -0.13231984956E+04  0.13231984956E+04  0.00000000000E+00 0. -1.
         24    2    1    2    0    0  0.15158397224E+03 -0.21887454040E+03 -0.47369705752E+03  0.54990924113E+03  0.84424558677E+02 0.  0.
         23    2    1    2    0    0  0.75299583368E+01 -0.40140111474E+02 -0.42274830501E+03  0.43440225660E+03  0.91220953327E+02 0.  0.
        -13    1    3    3    0    0  0.61610845197E+02 -0.11626568495E+03 -0.15561655232E+03  0.20378939398E+03  0.00000000000E+00 0.  1.
         14    1    3    3    0    0  0.89973127046E+02 -0.10260885545E+03 -0.31808050520E+03  0.34611984716E+03  0.00000000000E+00 0. -1.
        -11    1    4    4    0    0  0.10371815738E+02  0.27989033572E+02 -0.17085154990E+03  0.17343936308E+03  0.00000000000E+00 0.  1.
         11    1    4    4    0    0 -0.28418574014E+01 -0.68129145046E+02 -0.25189675511E+03  0.26096289352E+03  0.00000000000E+00 0. -1.
         21    1    1    2  503  501 -0.15606728211E+03  0.15727729139E+03 -0.23442371701E+03  0.32256413630E+03  0.00000000000E+00 0. -1.
          1    1    1    2  501    0 -0.30466484670E+01  0.10173736049E+03 -0.79500690723E+02  0.12915158695E+03  0.00000000000E+00 0. -1.
<scales pt_clust_5="13000.00000" pt_clust_6="13000.00000" pt_clust_7="13000.00000" pt_clust_8="13000.00000" pt_clust_9="221.56972" pt_clust_10="13000.00000"></scales>
<clustering>
<clus scale="   84.425">  5  6 -1 -1</clus>
<clus scale="   91.221">  7  8 -1 -1</clus>
<clus scale="  101.783">  7 10 -1 -1</clus>
<clus scale="  221.570">  1  9  2 -1</clus>
<clus scale="  169.447">  2  5  1 -1</clus>
<clus scale="  221.570">  1  5  2 -1</clus>
</clustering>
</event>
<event>
10    4  0.2565852E-005  0.4239991E+03  0.7546771E-02  0.1089786E+00
         21   -1    0    0  501  502  0.00000000000E+00  0.00000000000E+00  0.33581238889E+03  0.33581238889E+03  0.00000000000E+00 0. -1.
          4   -1    0    0  503    0 -0.00000000000E+00 -0.00000000000E+00 -0.41735562934E+03  0.41735562934E+03  0.00000000000E+00 0. -1.
         24    2    1    2    0    0  0.28738611338E+01 -0.47770483798E+02 -0.20935458520E+03  0.22978987975E+03  0.81754316650E+02 0.  0.
         23    2    1    2    0    0 -0.16787179296E+03 -0.94706996504E+02 -0.57044515291E+02  0.21769192710E+03  0.83578372448E+02 0.  0.
        -11    1    3    3    0    0  0.24723537197E+02 -0.40597723541E+02 -0.19894860270E+03  0.20454822161E+03  0.00000000000E+00 0.  1.
         12    1    3    3    0    0 -0.21849676063E+02 -0.71727602565E+01 -0.10405982501E+02  0.25241658138E+02  0.00000000000E+00 0. -1.
        -13    1    4    4    0    0 -0.31349615153E+00 -0.30355686537E+02 -0.11939053402E+02  0.32620652678E+02  0.00000000000E+00 0.  1.
         13    1    4    4    0    0 -0.16755829681E+03 -0.64351309966E+02 -0.45105461890E+02  0.18507127442E+03  0.00000000000E+00 0. -1.
         21    1    1    2  503  502  0.20403571637E+02  0.27266963407E+02  0.93412818828E+02  0.99427097667E+02  0.00000000000E+00 0. -1.
          3    1    1    2  501    0  0.14459436019E+03  0.11521051689E+03  0.91443041219E+02  0.20625911371E+03  0.00000000000E+00 0. -1.
<scales pt_clust_5="13000.00000" pt_clust_6="13000.00000" pt_clust_7="13000.00000" pt_clust_8="13000.00000" pt_clust_9="34.05573" pt_clust_10="13000.00000"></scales>
<clustering>
<clus scale="   34.056">  1  9  2 -1</clus>
<clus scale="   81.754">  5  6 -1 -1</clus>
<clus scale="   83.578">  7  8 -1 -1</clus>
<clus scale="   94.181">  2  5  1 -1</clus>
<clus scale="  196.005">  7 10 -1 -1</clus>
<clus scale="   34.056">  1  5  2 -1</clus>
</clustering>
</event>
<event>
10    4  0.2565852E-005  0.7263896E+03  0.7546771E-02  0.9922146E-01
         21   -1    0    0  501  502  0.00000000000E+00  0.00000000000E+00  0.74553827776E+03  0.74553827776E+03  0.00000000000E+00 0.  1.
         -1   -1    0    0    0  501 -0.00000000000E+00 -0.00000000000E+00 -0.65426849723E+03  0.65426849723E+03  0.00000000000E+00 0.  1.
         24    2    1    2    0    0  0.15721109033E+03  0.27299333157E+03 -0.29561319395E+03  0.43672520629E+03  0.64039514132E+02 0.  0.
         23    2    1    2    0    0 -0.94058157340E+01  0.82968746866E+02 -0.18056753363E+03  0.21896033103E+03  0.91469721973E+02 0.  0.
        -11    1    3    3    0    0  0.80675863522E+02  0.14723615908E+03 -0.11398545845E+03  0.20292798287E+03  0.00000000000E+00 0.  1.
         12    1    3    3    0    0  0.76535226809E+02  0.12575717249E+03 -0.18162773550E+03  0.23379722342E+03  0.00000000000E+00 0. -1.
        -13    1    4    4    0    0 -0.49447318055E+02  0.59616969531E+02 -0.11016343940E+03  0.13466701043E+03  0.00000000000E+00 0. -1.
         13    1    4    4    0    0  0.40041502322E+02  0.23351777335E+02 -0.70404094226E+02  0.84293320593E+02  0.00000000000E+00 0.  1.
         21    1    1    2  503  502 -0.50370741779E+02  0.19363438350E+02  0.20970623817E+03  0.21653835849E+03  0.00000000000E+00 0. -1.
         -2    1    1    2    0  503 -0.97434532819E+02 -0.37532551679E+03  0.35774426993E+03  0.52758287918E+03  0.00000000000E+00 0.  1.
<scales pt_clust_5="13000.00000" pt_clust_6="13000.00000" pt_clust_7="13000.00000" pt_clust_8="13000.00000" pt_clust_9="53.96438" pt_clust_10="13000.00000"></scales>
<clustering>
<clus scale="   53.964">  1  9  2 -1</clus>
<clus scale="   64.040">  5  6 -1 -1</clus>
<clus scale="   91.470">  7  8 -1 -1</clus>
<clus scale="  320.461">  2  5  1 -1</clus>
<clus scale="  292.699">  7 10 -1 -1</clus>
<clus scale="   53.964">  1  5  2 -1</clus>
</clustering>
</event>
<event>
10    4  0.2565852E-005  0.2437281E+03  0.7546771E-02  0.1143588E+00
         21   -1    0    0  503  502  0.00000000000E+00  0.00000000000E+00  0.33291745651E+03  0.33291745651E+03  0.00000000000E+00 0. -1.
          2   -1    0    0  502    0 -0.00000000000E+00 -0.00000000000E+00 -0.99091756420E+03  0.99091756420E+03  0.00000000000E+00 0. -1.
         24    2    1    2    0    0 -0.71194729704E+02 -0.71041610370E+02 -0.26244138050E+03  0.29197550724E+03  0.79111432077E+02 0.  0.
         23    2    1    2    0    0  0.12743166493E+02  0.19414033490E+03 -0.48227223541E+03  0.52749242242E+03  0.88367916861E+02 0.  0.
        -13    1    3    3    0    0 -0.31539854803E+01 -0.41953863543E+02 -0.42009243182E+02  0.59454611287E+02  0.00000000000E+00 0.  1.
         14    1    3    3    0    0 -0.68040744224E+02 -0.29087746827E+02 -0.22043213732E+03  0.23252089595E+03  0.00000000000E+00 0. -1.
        -11    1    4    4    0    0 -0.22725880801E+02  0.85327254482E+02 -0.29581052454E+03  0.30870871779E+03  0.00000000000E+00 0. -1.
         11    1    4    4    0    0  0.35469047294E+02  0.10881308041E+03 -0.18646171088E+03  0.21878370462E+03  0.00000000000E+00 0.  1.
         21    1    1    2  503  501  0.13212585503E+02 -0.20429649527E+03  0.24593932231E+03  0.31999653226E+03  0.00000000000E+00 0. -1.
          1    1    1    2  501    0  0.45238977708E+02  0.81197770748E+02 -0.15922581409E+03  0.18437055879E+03  0.00000000000E+00 0. -1.
<scales pt_clust_5="13000.00000" pt_clust_6="13000.00000" pt_clust_7="13000.00000" pt_clust_8="13000.00000" pt_clust_9="208.19999" pt_clust_10="13000.00000"></scales>
<clustering>
<clus scale="   79.111">  5  6 -1 -1</clus>
<clus scale="   88.368">  7  8 -1 -1</clus>
<clus scale="   92.950">  7 10 -1 -1</clus>
<clus scale="  127.962">  2  5  1 -1</clus>
<clus scale="  208.200">  1  9  2 -1</clus>
<clus scale="  208.200">  1  5  2 -1</clus>
</clustering>
</event>
<event>
10    4  0.2565852E-005  0.3189199E+03  0.7546771E-02  0.1103251E+00
          2   -1    0    0  502    0 -0.00000000000E+00  0.00000000000E+00  0.67023236475E+03  0.67023236475E+03  0.00000000000E+00 0. -1.
         21   -1    0    0  503  502  0.00000000000E+00 -0.00000000000E+00 -0.17278681868E+03  0.17278681868E+03  0.00000000000E+00 0. -1.
         24    2    1    2    0    0 -0.84738355976E+02  0.12602035170E+03  0.29445315925E+03  0.34060523154E+03  0.79041398929E+02 0.  0.
         23    2    1    2    0    0 -0.12692477080E+03 -0.74597071597E+02  0.20086050518E+03  0.26565579295E+03  0.92484794715E+02 0.  0.
        -11    1    3    3    0    0 -0.52909717132E+02  0.18829973053E+02  0.13136799548E+03  0.14286901795E+03  0.00000000000E+00 0.  1.
         12    1    3    3    0    0 -0.31828638844E+02  0.10719037865E+03  0.16308516377E+03  0.19773621359E+03  0.00000000000E+00 0. -1.
        -11    1    4    4    0    0  0.12125019364E+02 -0.21709366984E+02  0.33725232445E+02  0.41901121857E+02  0.00000000000E+00 0.  1.
         11    1    4    4    0    0 -0.13904979016E+03 -0.52887704612E+02  0.16713527273E+03  0.22375467109E+03  0.00000000000E+00 0. -1.
         21    1    1    2  503  501  0.95131526251E+02 -0.28934806871E+02 -0.44893766585E+02  0.10909940703E+03  0.00000000000E+00 0. -1.
          1    1    1    2  501    0  0.11653160052E+03 -0.22488473234E+02  0.47025648229E+02  0.12765875191E+03  0.00000000000E+00 0. -1.
<scales pt_clust_5="13000.00000" pt_clust_6="13000.00000" pt_clust_7="13000.00000" pt_clust_8="13000.00000" pt_clust_9="99.43455" pt_clust_10="13000.00000"></scales>
<clustering>
<clus scale="   79.041">  5  6 -1 -1</clus>
<clus scale="   92.485">  7  8 -1 -1</clus>
<clus scale="   99.435">  2  9  1 -1</clus>
<clus scale="  155.699">  1  5  2 -1</clus>
<clus scale="  129.876">  7 10 -1 -1</clus>
<clus scale="   99.435">  2  5  1 -1</clus>
</clustering>
</event>
<event>
10    4  0.2565852E-005  0.2308428E+03  0.7546771E-02  0.1168626E+00
         21   -1    0    0  501  502  0.00000000000E+00  0.00000000000E+00  0.37548920585E+03  0.37548920585E+03  0.00000000000E+00 0.  1.
          4   -1    0    0  503    0 -0.00000000000E+00 -0.00000000000E+00 -0.13518118811E+03  0.13518118811E+03  0.00000000000E+00 0. -1.
         24    2    1    2    0    0 -0.26578216114E+02  0.53822530042E+01  0.12913811786E+03  0.15391271852E+03  0.79228159249E+02 0.  0.
         23    2    1    2    0    0  0.71534972664E+02  0.51796391055E+02  0.14165521984E+03  0.18981656587E+03  0.90354905393E+02 0.  0.
        -13    1    3    3    0    0 -0.16021370221E+02 -0.30754277339E+02  0.23825409884E+02  0.42073269834E+02  0.00000000000E+00 0.  1.
         14    1    3    3    0    0 -0.10556845892E+02  0.36136530343E+02  0.10531270798E+03  0.11183944869E+03  0.00000000000E+00 0. -1.
        -11    1    4    4    0    0  0.34714775339E+02 -0.22496121473E+02  0.31773112836E+02  0.52160538796E+02  0.00000000000E+00 0. -1.
         11    1    4    4    0    0  0.36820197325E+02  0.74292512528E+02  0.10988210700E+03  0.13765602707E+03  0.00000000000E+00 0.  1.
         21    1    1    2  503  502 -0.92846683527E+02 -0.29060971742E+02  0.10595508278E+02  0.97863739537E+02  0.00000000000E+00 0.  1.
          3    1    1    2  501    0  0.47889926976E+02 -0.28117672317E+02 -0.41080828246E+02  0.69077370040E+02  0.00000000000E+00 0. -1.
<scales pt_clust_5="13000.00000" pt_clust_6="13000.00000" pt_clust_7="13000.00000" pt_clust_8="13000.00000" pt_clust_9="105.83250" pt_clust_10="13000.00000"></scales>
<clustering>
<clus scale="   79.228">  5  6 -1 -1</clus>
<clus scale="   83.741">  2  5  1 -1</clus>
<clus scale="   90.355">  7  8 -1 -1</clus>
<clus scale="   44.208">  7 10 -1 -1</clus>
<clus scale="  105.832">  1  9  2 -1</clus>
<clus scale="  105.832">  1  5  2 -1</clus>
</clustering>
</event>
<event>
10    4  0.2565852E-005  0.4592926E+03  0.7546771E-02  0.1070386E+00
          4   -1    0    0  503    0 -0.00000000000E+00  0.00000000000E+00  0.45683380365E+03  0.45683380365E+03  0.00000000000E+00 0. -1.
         21   -1    0    0  501  502  0.00000000000E+00 -0.00000000000E+00 -0.20565766612E+03  0.20565766612E+03  0.00000000000E+00 0.  1.
         24    2    1    2    0    0  0.40858368475E+02 -0.97110717640E+02  0.37551260490E+02  0.13357953644E+03  0.73030799227E+02 0.  0.
         23    2    1    2    0    0 -0.26342046027E+02  0.19558368175E+03 -0.56815837535E+02  0.22300131153E+03  0.86917579313E+02 0.  0.
        -11    1    3    3    0    0  0.13699646275E+02 -0.45580857777E+02  0.55037400353E+02  0.72762698833E+02  0.00000000000E+00 0.  1.
         12    1    3    3    0    0  0.27158722200E+02 -0.51529859863E+02 -0.17486139863E+02  0.60816837605E+02  0.00000000000E+00 0. -1.
        -11    1    4    4    0    0  0.16275234862E+02  0.15343345271E+03 -0.52192539881E+02  0.16288268447E+03  0.00000000000E+00 0.  1.
         11    1    4    4    0    0 -0.42617280889E+02  0.42150229036E+02 -0.46232976531E+01  0.60118627058E+02  0.00000000000E+00 0. -1.
         21    1    1    2  503  502 -0.24976813732E+02  0.78459963813E+01  0.17933040867E+02  0.31733181973E+02  0.00000000000E+00 0. -1.
          3    1    1    2  501    0  0.10460491285E+02 -0.10631896049E+03  0.25250767371E+03  0.27417743984E+03  0.00000000000E+00 0. -1.
<scales pt_clust_5="13000.00000" pt_clust_6="13000.00000" pt_clust_7="13000.00000" pt_clust_8="13000.00000" pt_clust_9="26.18018" pt_clust_10="13000.00000"></scales>
<clustering>
<clus scale="   26.180">  2  9  1 -1</clus>
<clus scale="   73.031">  5  6 -1 -1</clus>
<clus scale="   86.918">  7  8 -1 -1</clus>
<clus scale="  106.282">  7 10 -1 -1</clus>
<clus scale="  124.949">  1  5  2 -1</clus>
<clus scale="   26.180">  2  5  1 -1</clus>
</clustering>
</event>
<event>
10    4  0.2565852E-005  0.4605831E+03  0.7546771E-02  0.1069898E+00
          2   -1    0    0  503    0 -0.00000000000E+00  0.00000000000E+00  0.46710971725E+03  0.46710971725E+03  0.00000000000E+00 0. -1.
         21   -1    0    0  501  502  0.00000000000E+00 -0.00000000000E+00 -0.34837562831E+03  0.34837562831E+03  0.00000000000E+00 0. -1.
         24    2    1    2    0    0 -0.18864681042E+02 -0.92067629427E+02  0.11293418928E+03  0.16715032185E+03  0.79704293536E+02 0.  0.
         23    2    1    2    0    0  0.17647252567E+03  0.11121954632E+03 -0.89024627325E+01  0.22768631609E+03  0.90826564902E+02 0.  0.
        -11    1    3    3    0    0  0.15893005478E+01 -0.59621842236E+02  0.14317354854E+02  0.61337399667E+02  0.00000000000E+00 0.  1.
         12    1    3    3    0    0 -0.20453981589E+02 -0.32445787190E+02  0.98616834425E+02  0.10581292219E+03  0.00000000000E+00 0. -1.
        -11    1    4    4    0    0  0.92822239498E+02  0.84929867944E+02  0.33630553359E+02  0.13023081330E+03  0.00000000000E+00 0.  1.
         11    1    4    4    0    0  0.83650286169E+02  0.26289678379E+02 -0.42533016091E+02  0.97455502786E+02  0.00000000000E+00 0. -1.
         21    1    1    2  503  502  0.52475108729E+02 -0.31086435498E+02 -0.14446257543E+03  0.15681020122E+03  0.00000000000E+00 0. -1.
          1    1    1    2  501    0 -0.21008295335E+03  0.11934518601E+02  0.15916493782E+03  0.26383850639E+03  0.00000000000E+00 0. -1.
<scales pt_clust_5="13000.00000" pt_clust_6="13000.00000" pt_clust_7="13000.00000" pt_clust_8="13000.00000" pt_clust_9="60.99183" pt_clust_10="13000.00000"></scales>
<clustering>
<clus scale="   60.992">  2  9  1 -1</clus>
<clus scale="   79.704">  5  6 -1 -1</clus>
<clus scale="   90.827">  7  8 -1 -1</clus>
<clus scale="  125.572">  1  5  2 -1</clus>
<clus scale="  209.752">  7 10 -1 -1</clus>
<clus scale="   60.992">  2  5  1 -1</clus>
</clustering>
</event>
<event>
10    4  0.2565852E-005  0.3342898E+03  0.7546771E-02  0.1097210E+00
         21   -1    0    0  503  502  0.00000000000E+00  0.00000000000E+00  0.26218169066E+03  0.26218169066E+03  0.00000000000E+00 0. -1.
         -1   -1    0    0    0  501 -0.00000000000E+00 -0.00000000000E+00 -0.45161277469E+03  0.45161277469E+03  0.00000000000E+00 0.  1.
         24    2    1    2    0    0 -0.12577432090E+03 -0.51215134437E+02 -0.10566804283E+03  0.19018321653E+03  0.81004634326E+02 0.  0.
         23    2    1    2    0    0 -0.45055710542E+02 -0.16845693634E+02 -0.13274185224E+03  0.16719670489E+03  0.89557491834E+02 0.  0.
        -13    1    3    3    0    0 -0.40914263692E+02 -0.29484024911E+02 -0.87088132523E+02  0.10063611442E+03  0.00000000000E+00 0.  1.
         14    1    3    3    0    0 -0.84860057206E+02 -0.21731109526E+02 -0.18579910304E+02  0.89547102115E+02  0.00000000000E+00 0. -1.
        -11    1    4    4    0    0 -0.69926437815E+02  0.20927882976E+01 -0.84344305847E+02  0.10958124108E+03  0.00000000000E+00 0. -1.
         11    1    4    4    0    0  0.24870727273E+02 -0.18938481932E+02 -0.48397546389E+02  0.57615463805E+02  0.00000000000E+00 0.  1.
         21    1    1    2  503  501  0.19118455754E+03 -0.25172745337E+02 -0.68878147530E+02  0.20476669982E+03  0.00000000000E+00 0. -1.
         -2    1    1    2    0  502 -0.20354526098E+02  0.93233573408E+02  0.11785695856E+03  0.15164784411E+03  0.00000000000E+00 0.  1.
<scales pt_clust_5="13000.00000" pt_clust_6="13000.00000" pt_clust_7="13000.00000" pt_clust_8="13000.00000" pt_clust_9="142.90918" pt_clust_10="13000.00000"></scales>
<clustering>
<clus scale="   81.005">  5  6 -1 -1</clus>
<clus scale="   89.557">  7  8 -1 -1</clus>
<clus scale="   95.430">  7 10 -1 -1</clus>
<clus scale="  158.126">  2  5  1 -1</clus>
<clus scale="  142.909">  1  9  2 -1</clus>
<clus scale="  142.909">  1  5  2 -1</clus>
</clustering>
</event>
<event>
10    4  0.2565852E-005  0.2151974E+03  0.7546771E-02  0.1161126E+00
         21   -1    0    0  501  502  0.00000000000E+00  0.00000000000E+00  0.15371705326E+03  0.15371705326E+03  0.00000000000E+00 0. -1.
          2   -1    0    0  503    0 -0.00000000000E+00 -0.00000000000E+00 -0.33938613076E+03  0.33938613076E+03  0.00000000000E+00 0. -1.
         24    2    1    2    0    0  0.17089670433E+02  0.13020091449E+03 -0.81920331146E+02  0.17468225494E+03  0.80985273772E+02 0.  0.
         23    2    1    2    0    0  0.51731752635E+02 -0.20716450038E+02 -0.10735873449E+02  0.10810152997E+03  0.92007262057E+02 0.  0.
        -11    1    3    3    0    0  0.67048225100E+01  0.54303075955E+02  0.93669128724E+01  0.55511420084E+02  0.00000000000E+00 0.  1.
         12    1    3    3    0    0  0.10384847923E+02  0.75897838533E+02 -0.91287244019E+02  0.11917083486E+03  0.00000000000E+00 0. -1.
        -11    1    4    4    0    0 -0.21185223423E+02 -0.25125494201E+02  0.53598761759E+01  0.33299135468E+02  0.00000000000E+00 0.  1.
         11    1    4    4    0    0  0.72916976058E+02  0.44090441634E+01 -0.16095749624E+02  0.74802394506E+02  0.00000000000E+00 0. -1.
         21    1    1    2  503  502 -0.10579156693E+02 -0.86261152924E+02  0.12280408581E+02  0.87770800925E+02  0.00000000000E+00 0. -1.
          1    1    1    2  501    0 -0.58242266375E+02 -0.23223311527E+02 -0.10529328149E+03  0.12254859818E+03  0.00000000000E+00 0. -1.
<scales pt_clust_5="13000.00000" pt_clust_6="13000.00000" pt_clust_7="13000.00000" pt_clust_8="13000.00000" pt_clust_9="86.90745" pt_clust_10="13000.00000"></scales>
<clustering>
<clus scale="   80.985">  5  6 -1 -1</clus>
<clus scale="   86.907">  1  9  2 -1</clus>
<clus scale="   92.007">  7  8 -1 -1</clus>
<clus scale="   66.481">  7 10 -1 -1</clus>
<clus scale="  122.902">  2  5  1 -1</clus>
<clus scale="   86.907">  1  5  2 -1</clus>
</clustering>
</event>
<event>
10    4  0.2565852E-005  0.3418148E+03  0.7546771E-02  0.1088523E+00
         21   -1    0    0  501  502  0.00000000000E+00  0.00000000000E+00  0.15750128081E+03  0.15750128081E+03  0.00000000000E+00 0. -1.
          2   -1    0    0  503    0 -0.00000000000E+00 -0.00000000000E+00 -0.74300615806E+03  0.74300615806E+03  0.00000000000E+00 0. -1.
         24    2    1    2    0    0 -0.18364355792E+03  0.12872266919E+02 -0.25477193542E+03  0.32461349270E+03  0.81083468980E+02 0.  0.
         23    2    1    2    0    0 -0.22453540575E+02  0.10053040657E+03 -0.11908176033E+03  0.18233850078E+03  0.91958355213E+02 0.  0.
        -11    1    3    3    0    0 -0.29157143808E+02 -0.13665768999E+02 -0.95739235669E+01  0.33593932336E+02  0.00000000000E+00 0.  1.
         12    1    3    3    0    0 -0.15448641412E+03  0.26538035918E+02 -0.24519801185E+03  0.29101956036E+03  0.00000000000E+00 0. -1.
        -11    1    4    4    0    0 -0.39654523137E+02  0.48158703992E+01 -0.44389214016E+02  0.59716631970E+02  0.00000000000E+00 0.  1.
         11    1    4    4    0    0  0.17200982562E+02  0.95714536168E+02 -0.74692546319E+02  0.12262186881E+03  0.00000000000E+00 0. -1.
         21    1    1    2  503  502  0.45231593346E+02 -0.21432179220E+02  0.51430818929E+02  0.71766039869E+02  0.00000000000E+00 0. -1.
          1    1    1    2  501    0  0.16086550515E+03 -0.91970494265E+02 -0.26308200042E+03  0.32178940553E+03  0.00000000000E+00 0. -1.
<scales pt_clust_5="13000.00000" pt_clust_6="13000.00000" pt_clust_7="13000.00000" pt_clust_8="13000.00000" pt_clust_9="50.05233" pt_clust_10="13000.00000"></scales>
<clustering>
<clus scale="   50.052">  1  9  2 -1</clus>
<clus scale="   81.083">  5  6 -1 -1</clus>
<clus scale="   91.958">  7  8 -1 -1</clus>
<clus scale="  185.869">  2  5  1 -1</clus>
<clus scale="  110.526">  7 10 -1 -1</clus>
<clus scale="   50.052">  1  5  2 -1</clus>
</clustering>
</event>
<event>
10    4  0.2565852E-005  0.3042038E+03  0.7546771E-02  0.1089460E+00
         -1   -1    0    0    0  501 -0.00000000000E+00  0.00000000000E+00  0.20873901797E+03  0.20873901797E+03  0.00000000000E+00 0.  1.
         21   -1    0    0  501  502  0.00000000000E+00 -0.00000000000E+00 -0.64125350786E+03  0.64125350786E+03  0.00000000000E+00 0. -1.
         24    2    1    2    0    0 -0.17180500381E+03 -0.15501685149E+03 -0.16712177770E+03  0.29684087540E+03  0.81471670814E+02 0.  0.
         23    2    1    2    0    0  0.90034134855E+01  0.86650740238E+02  0.13945851684E+02  0.12686807970E+03  0.91168035127E+02 0.  0.
        -11    1    3    3    0    0 -0.66064793321E+02 -0.10530492744E+03 -0.11329897095E+03  0.16819732899E+03  0.00000000000E+00 0.  1.
         12    1    3    3    0    0 -0.10574021049E+03 -0.49711924048E+02 -0.53822806752E+02  0.12864354641E+03  0.00000000000E+00 0. -1.
        -11    1    4    4    0    0 -0.15284203965E+02  0.74027383647E+02  0.42989645518E+02  0.86958438591E+02  0.00000000000E+00 0.  1.
         11    1    4    4    0    0  0.24287617451E+02  0.12623356591E+02 -0.29043793834E+02  0.39909641107E+02  0.00000000000E+00 0. -1.
         21    1    1    2  503  502  0.64860202279E+02 -0.87149568711E+02 -0.19684249503E+03  0.22483073859E+03  0.00000000000E+00 0. -1.
         -2    1    1    2    0  503  0.97941388044E+02  0.15551567996E+03 -0.82496068837E+02  0.20145283215E+03  0.00000000000E+00 0.  1.
<scales pt_clust_5="13000.00000" pt_clust_6="13000.00000" pt_clust_7="13000.00000" pt_clust_8="13000.00000" pt_clust_9="108.63652" pt_clust_10="13000.00000"></scales>
<clustering>
<clus scale="   81.472">  5  6 -1 -1</clus>
<clus scale="   91.168">  7  8 -1 -1</clus>
<clus scale="  108.637">  2  9  1 -1</clus>
<clus scale="  174.102">  7 10 -1 -1</clus>
<clus scale="  257.224">  1  5  2 -1</clus>
<clus scale="  108.637">  2  5  1 -1</clus>
</clustering>
</event>
<event>
10    4  0.2565852E-005  0.4765168E+03  0.7546771E-02  0.1066856E+00
          2   -1    0    0  502    0 -0.00000000000E+00  0.00000000000E+00  0.93273534208E+03  0.93273534208E+03  0.00000000000E+00 0. -1.
         21   -1    0    0  503  502  0.00000000000E+00 -0.00000000000E+00 -0.31097747707E+03  0.31097747707E+03  0.00000000000E+00 0. -1.
         24    2    1    2    0    0 -0.80282419953E+02  0.50034249992E+02  0.63384702948E+03  0.64590186344E+03  0.80488926545E+02 0.  0.
         23    2    1    2    0    0 -0.95469741136E+02  0.12141530271E+03  0.18435931136E+03  0.25704715604E+03  0.90712389099E+02 0.  0.
        -13    1    3    3    0    0 -0.25842273477E+02 -0.12312977682E+02  0.64460769550E+02  0.70531009697E+02  0.00000000000E+00 0.  1.
         14    1    3    3    0    0 -0.54440146476E+02  0.62347227674E+02  0.56938625993E+03  0.57537085375E+03  0.00000000000E+00 0. -1.
        -11    1    4    4    0    0 -0.71668444526E+02  0.13201257504E+03  0.17153324129E+03  0.22800732176E+03  0.00000000000E+00 0. -1.
         11    1    4    4    0    0 -0.23801296610E+02 -0.10597272333E+02  0.12826070074E+02  0.29039834276E+02  0.00000000000E+00 0.  1.
         21    1    1    2  503  501  0.30858261873E+02 -0.24458247104E+02 -0.11028146039E+03  0.11710012247E+03  0.00000000000E+00 0. -1.
          1    1    1    2  501    0  0.14489389922E+03 -0.14699130560E+03 -0.86167015429E+02  0.22366367720E+03  0.00000000000E+00 0. -1.
<scales pt_clust_5="13000.00000" pt_clust_6="13000.00000" pt_clust_7="13000.00000" pt_clust_8="13000.00000" pt_clust_9="39.37560" pt_clust_10="13000.00000"></scales>
<clustering>
<clus scale="   39.376">  2  9  1 -1</clus>
<clus scale="   80.489">  5  6 -1 -1</clus>
<clus scale="   90.712">  7  8 -1 -1</clus>
<clus scale="  123.298">  1  5  2 -1</clus>
<clus scale="  208.819">  7 10 -1 -1</clus>
<clus scale="   39.376">  2  5  1 -1</clus>
</clustering>
</event>
<event>
10    4  0.2565852E-005  0.5116345E+03  0.7546771E-02  0.1055461E+00
         21   -1    0    0  501  502  0.00000000000E+00  0.00000000000E+00  0.71380745384E+02  0.71380745384E+02  0.00000000000E+00 0.  1.
          2   -1    0    0  503    0 -0.00000000000E+00 -0.00000000000E+00 -0.23158811516E+04  0.23158811516E+04  0.00000000000E+00 0. -1.
         24    2    1    2    0    0 -0.11063144269E+03 -0.92006780251E+01 -0.18786059694E+03  0.23251919214E+03  0.80309415666E+02 0.  0.
         23    2    1    2    0    0  0.28853762070E+03  0.69939766216E+02 -0.11724050538E+04  0.12128115059E+04  0.90733726856E+02 0.  0.
        -11    1    3    3    0    0 -0.56571676957E+01 -0.28406302439E+02 -0.54482179467E+02  0.61702750701E+02  0.00000000000E+00 0.  1.
         12    1    3    3    0    0 -0.10497427499E+03  0.19205624414E+02 -0.13337841748E+03  0.17081644144E+03  0.00000000000E+00 0. -1.
        -11    1    4    4    0    0  0.15273446703E+03  0.63098359558E+02 -0.49382836381E+03  0.52074530559E+03  0.00000000000E+00 0.  1.
         11    1    4    4    0    0  0.13580315367E+03  0.68414066578E+01 -0.67857669002E+03  0.69206620032E+03  0.00000000000E+00 0. -1.
         21    1    1    2  503  502 -0.47925806334E+00  0.32169129916E+02  0.30559595481E+01  0.32317510681E+02  0.00000000000E+00 0.  1.
          1    1    1    2  501    0 -0.17742691996E+03 -0.92908218107E+02 -0.88729071497E+03  0.90961368822E+03  0.00000000000E+00 0. -1.
<scales pt_clust_5="13000.00000" pt_clust_6="13000.00000" pt_clust_7="13000.00000" pt_clust_8="13000.00000" pt_clust_9="32.17270" pt_clust_10="13000.00000"></scales>
<clustering>
<clus scale="   32.173">  1  9  2 -1</clus>
<clus scale="   80.309">  5  6 -1 -1</clus>
<clus scale="   90.734">  7  8 -1 -1</clus>
<clus scale="  136.933">  2  5  1 -1</clus>
<clus scale="  239.344">  7 10 -1 -1</clus>
<clus scale="   32.173">  1  5  2 -1</clus>
</clustering>
</event>
<event>
10    4  0.2565852E-005  0.7900395E+03  0.7546771E-02  0.1019412E+00
         21   -1    0    0  501  502  0.00000000000E+00  0.00000000000E+00  0.61370553821E+03  0.61370553821E+03  0.00000000000E+00 0.  1.
          2   -1    0    0  503    0 -0.00000000000E+00 -0.00000000000E+00 -0.40963726250E+03  0.40963726250E+03  0.00000000000E+00 0. -1.
         24    2    1    2    0    0  0.76828899522E+02  0.16894474888E+02  0.10801931004E+03  0.15604209499E+03  0.80578291016E+02 0.  0.
         23    2    1    2    0    0 -0.24204311872E+03  0.21248181950E+03  0.26983110053E+03  0.42966454836E+03  0.89829874594E+02 0.  0.
        -13    1    3    3    0    0  0.77887611978E+02 -0.91546051846E+01  0.10305769766E+03  0.12950357502E+03  0.00000000000E+00 0.  1.
         14    1    3    3    0    0 -0.10587124562E+01  0.26049080072E+02  0.49616123796E+01  0.26538519968E+02  0.00000000000E+00 0. -1.
        -11    1    4    4    0    0 -0.11078303053E+03  0.12571824967E+03  0.18964079868E+03  0.25306440026E+03  0.00000000000E+00 0.  1.
         11    1    4    4    0    0 -0.13126008818E+03  0.86763569822E+02  0.80190301855E+02  0.17660014810E+03  0.00000000000E+00 0. -1.
         21    1    1    2  503  502 -0.29745321790E+02 -0.38571253698E+02  0.60763174855E+02  0.77876114430E+02  0.00000000000E+00 0. -1.
          1    1    1    2  501    0  0.19495954098E+03 -0.19080504069E+03 -0.23454530972E+03  0.35976004292E+03  0.00000000000E+00 0. -1.
<scales pt_clust_5="13000.00000" pt_clust_6="13000.00000" pt_clust_7="13000.00000" pt_clust_8="13000.00000" pt_clust_9="48.70858" pt_clust_10="13000.00000"></scales>
<clustering>
<clus scale="   48.709">  1  9  2 -1</clus>
<clus scale="   80.578">  5  6 -1 -1</clus>
<clus scale="   89.830">  7  8 -1 -1</clus>
<clus scale="  106.752">  2  5  1 -1</clus>
<clus scale="  310.223">  7 10 -1 -1</clus>
<clus scale="   48.709">  1  5  2 -1</clus>
</clustering>
</event>
<event>
10    4  0.2565852E-005  0.2428065E+03  0.7546771E-02  0.1150811E+00
         21   -1    0    0  503  502  0.00000000000E+00  0.00000000000E+00  0.23154621202E+03  0.23154621202E+03  0.00000000000E+00 0.  1.
         -1   -1    0    0    0  501 -0.00000000000E+00 -0.00000000000E+00 -0.29913844020E+03  0.29913844020E+03  0.00000000000E+00 0.  1.
         24    2    1    2    0    0 -0.70698366287E+02  0.53137023133E+01 -0.13187225972E+03  0.16970254272E+03  0.79888457823E+02 0.  0.
         23    2    1    2    0    0  0.14083352126E+02 -0.29837501075E+02  0.11684953113E+03  0.15218758664E+03  0.91753099817E+02 0.  0.
        -13    1    3    3    0    0 -0.87559454699E+02  0.10621288070E+02 -0.11749732664E+03  0.14691865652E+03  0.00000000000E+00 0.  1.
         14    1    3    3    0    0  0.16861088413E+02 -0.53075857566E+01 -0.14374933085E+02  0.22783886196E+02  0.00000000000E+00 0. -1.
        -13    1    4    4    0    0  0.22047388994E+02 -0.60542426377E+02  0.89650359502E+02  0.11040226316E+03  0.00000000000E+00 0.  1.
         13    1    4    4    0    0 -0.79640368679E+01  0.30704925302E+02  0.27199171626E+02  0.41785323479E+02  0.00000000000E+00 0. -1.
         21    1    1    2  503  501 -0.37862558144E+02 -0.60712460941E+02 -0.37144659966E+02  0.80618248472E+02  0.00000000000E+00 0. -1.
         -2    1    1    2    0  502  0.94477572305E+02  0.85236259702E+02 -0.15424839620E+02  0.12817627438E+03  0.00000000000E+00 0.  1.
<scales pt_clust_5="13000.00000" pt_clust_6="13000.00000" pt_clust_7="13000.00000" pt_clust_8="13000.00000" pt_clust_9="71.55125" pt_clust_10="13000.00000"></scales>
<clustering>
<clus scale="   71.551">  1  9  2 -1</clus>
<clus scale="   79.888">  5  6 -1 -1</clus>
<clus scale="   91.753">  7  8 -1 -1</clus>
<clus scale="  108.892">  7 10 -1 -1</clus>
<clus scale="  108.971">  2  5  1 -1</clus>
<clus scale="   71.551">  1  5  2 -1</clus>
</clustering>
</event>
<event>
10    4  0.2565852E-005  0.1520153E+03  0.7546771E-02  0.1227769E+00
         -3   -1    0    0    0  501 -0.00000000000E+00  0.00000000000E+00  0.68765311094E+02  0.68765311094E+02  0.00000000000E+00 0.  1.
         21   -1    0    0  501  502  0.00000000000E+00 -0.00000000000E+00 -0.25848645569E+03  0.25848645569E+03  0.00000000000E+00 0. -1.
         24    2    1    2    0    0 -0.60812695431E+01 -0.10436948110E+02 -0.73581888667E+02  0.10872883149E+03  0.79131237396E+02 0.  0.
         23    2    1    2    0    0 -0.54348990131E+01 -0.35876102077E+02 -0.84255547167E+02  0.12386014457E+03  0.83220822858E+02 0.  0.
        -13    1    3    3    0    0  0.16312772333E+02  0.13660697060E+02  0.64222468207E+01  0.22225355781E+02  0.00000000000E+00 0.  1.
         14    1    3    3    0    0 -0.22394041876E+02 -0.24097645171E+02 -0.80004135488E+02  0.86503475707E+02  0.00000000000E+00 0. -1.
        -11    1    4    4    0    0 -0.32646563185E+02 -0.48957730639E+02 -0.43683375796E+02  0.73286388901E+02  0.00000000000E+00 0.  1.
         11    1    4    4    0    0  0.27211664172E+02  0.13081628562E+02 -0.40572171371E+02  0.50573755670E+02  0.00000000000E+00 0. -1.
         21    1    1    2  503  502 -0.22015311056E+02  0.12507548166E+02 -0.39020864505E+02  0.46516024645E+02  0.00000000000E+00 0.  1.
         -4    1    1    2    0  503  0.33531479613E+02  0.33805502021E+02  0.71371557418E+01  0.48146766080E+02  0.00000000000E+00 0.  1.
<scales pt_clust_5="13000.00000" pt_clust_6="13000.00000" pt_clust_7="13000.00000" pt_clust_8="13000.00000" pt_clust_9="25.32020" pt_clust_10="13000.00000"></scales>
<clustering>
<clus scale="   25.320">  2  9  1 -1</clus>
<clus scale="   79.131">  5  6 -1 -1</clus>
<clus scale="   80.777">  1  5  2 -1</clus>
<clus scale="   83.221">  7  8 -1 -1</clus>
<clus scale="   39.428">  7 10 -1 -1</clus>
<clus scale="   25.320">  2  5  1 -1</clus>
</clustering>
</event>
<event>
10    4  0.2565852E-005  0.6292485E+03  0.7546771E-02  0.9855308E-01
          2   -1    0    0  502    0 -0.00000000000E+00  0.00000000000E+00  0.11981704704E+04  0.11981704704E+04  0.00000000000E+00 0. -1.
         21   -1    0    0  503  502  0.00000000000E+00 -0.00000000000E+00 -0.73228918637E+03  0.73228918637E+03  0.00000000000E+00 0. -1.
         24    2    1    2    0    0 -0.11293761847E+03  0.61914665286E+03  0.56407208403E+03  0.84897653955E+03  0.80537974401E+02 0.  0.
         23    2    1    2    0    0  0.83824666736E+02 -0.43540092735E+03  0.26618914384E+03  0.52526222555E+03  0.91886903321E+02 0.  0.
        -13    1    3    3    0    0 -0.42352536436E+02  0.80939503749E+02  0.71867290589E+02  0.11623187199E+03  0.00000000000E+00 0.  1.
         14    1    3    3    0    0 -0.70585082036E+02  0.53820714911E+03  0.49220479344E+03  0.73274466756E+03  0.00000000000E+00 0. -1.
        -11    1    4    4    0    0  0.30843588121E+02 -0.12379168179E+03  0.31021337528E+02  0.13129368146E+03  0.00000000000E+00 0.  1.
         11    1    4    4    0    0  0.52981078615E+02 -0.31160924556E+03  0.23516780631E+03  0.39396854409E+03  0.00000000000E+00 0. -1.
         21    1    1    2  503  501  0.62028891175E+02 -0.43907175194E+02 -0.40086082317E+03  0.40800100849E+03  0.00000000000E+00 0. -1.
          1    1    1    2  501    0 -0.32915939439E+02 -0.13983855031E+03  0.36480879376E+02  0.14821988322E+03  0.00000000000E+00 0. -1.
<scales pt_clust_5="13000.00000" pt_clust_6="13000.00000" pt_clust_7="13000.00000" pt_clust_8="13000.00000" pt_clust_9="75.99621" pt_clust_10="13000.00000"></scales>
<clustering>
<clus scale="   75.996">  2  9  1 -1</clus>
<clus scale="   80.538">  5  6 -1 -1</clus>
<clus scale="   91.887">  7  8 -1 -1</clus>
<clus scale="  149.006">  7 10 -1 -1</clus>
<clus scale="  611.525">  1  5  2 -1</clus>
<clus scale="   75.996">  2  5  1 -1</clus>
</clustering>
</event>
<event>
10    4  0.2565852E-005  0.5073674E+03  0.7546771E-02  0.1072655E+00
          2   -1    0    0  503    0 -0.00000000000E+00  0.00000000000E+00  0.20278487476E+03  0.20278487476E+03  0.00000000000E+00 0. -1.
         21   -1    0    0  501  502  0.00000000000E+00 -0.00000000000E+00 -0.62004750069E+03  0.62004750069E+03  0.00000000000E+00 0. -1.
         24    2    1    2    0    0  0.31330471040E+02  0.88733549914E+01  0.49426516729E+02  0.99986676400E+02  0.80585482918E+02 0.  0.
         23    2    1    2    0    0  0.80742056028E+02 -0.11828323227E+03  0.51472673133E+02  0.17795850177E+03  0.92247436949E+02 0.  0.
        -13    1    3    3    0    0  0.28055563161E+02  0.12630710599E+02  0.71245720121E+02  0.77605425777E+02  0.00000000000E+00 0.  1.
         14    1    3    3    0    0  0.32749078798E+01 -0.37573556080E+01 -0.21819203392E+02  0.22381250623E+02  0.00000000000E+00 0. -1.
        -11    1    4    4    0    0 -0.32712698134E+01 -0.53340792386E+02  0.47813265673E+02  0.71708086803E+02  0.00000000000E+00 0. -1.
         11    1    4    4    0    0  0.84013325842E+02 -0.64942439886E+02  0.36594074598E+01  0.10625041497E+03  0.00000000000E+00 0.  1.
         21    1    1    2  503  502  0.38859290451E+01  0.24458880007E+02 -0.80537780041E+02  0.84259547054E+02  0.00000000000E+00 0. -1.
          1    1    1    2  501    0 -0.11595845611E+03  0.84950997274E+02 -0.43762403575E+03  0.46062765023E+03  0.00000000000E+00 0. -1.
<scales pt_clust_5="13000.00000" pt_clust_6="13000.00000" pt_clust_7="13000.00000" pt_clust_8="13000.00000" pt_clust_9="24.76565" pt_clust_10="13000.00000"></scales>
<clustering>
<clus scale="   24.766">  2  9  1 -1</clus>
<clus scale="   80.585">  5  6 -1 -1</clus>
<clus scale="   87.107">  1  5  2 -1</clus>
<clus scale="   92.247">  7  8 -1 -1</clus>
<clus scale="  152.440">  7 10 -1 -1</clus>
<clus scale="   24.766">  2  5  1 -1</clus>
</clustering>
</event>
<event>
10    4  0.2565852E-005  0.2177560E+03  0.7546771E-02  0.1165295E+00
         21   -1    0    0  503  502  0.00000000000E+00  0.00000000000E+00  0.17755958440E+03  0.17755958440E+03  0.00000000000E+00 0. -1.
          2   -1    0    0  502    0 -0.00000000000E+00 -0.00000000000E+00 -0.52930646562E+03  0.52930646562E+03  0.00000000000E+00 0. -1.
         24    2    1    2    0    0  0.15397780817E+02  0.65195843258E+02  0.13688679856E+02  0.10857263976E+03  0.84338890888E+02 0.  0.
         23    2    1    2    0    0  0.11134781056E+03  0.25731612118E+02 -0.32901090323E+03  0.35966863965E+03  0.89737980373E+02 0.  0.
        -11    1    3    3    0    0  0.26059763670E+02 -0.12554408930E+02  0.73123525871E+01  0.29836135247E+02  0.00000000000E+00 0.  1.
         12    1    3    3    0    0 -0.10661982853E+02  0.77750252187E+02  0.63763272686E+01  0.78736504514E+02  0.00000000000E+00 0. -1.
        -11    1    4    4    0    0 -0.14415605968E+01  0.26654545264E+02 -0.30350495194E+02  0.40418998487E+02  0.00000000000E+00 0.  1.
         11    1    4    4    0    0  0.11278937116E+03 -0.92293314543E+00 -0.29866040804E+03  0.31924964116E+03  0.00000000000E+00 0. -1.
         21    1    1    2  503  501 -0.13208121441E+03 -0.12709234678E+03  0.50141461959E+01  0.18336590052E+03  0.00000000000E+00 0. -1.
          1    1    1    2  501    0  0.53356230335E+01  0.36164891406E+02 -0.41438804043E+02  0.55258870094E+02  0.00000000000E+00 0. -1.
<scales pt_clust_5="13000.00000" pt_clust_6="13000.00000" pt_clust_7="13000.00000" pt_clust_8="13000.00000" pt_clust_9="173.00870" pt_clust_10="13000.00000"></scales>
<clustering>
<clus scale="   84.339">  5  6 -1 -1</clus>
<clus scale="   89.738">  7  8 -1 -1</clus>
<clus scale="   36.556">  7 10 -1 -1</clus>
<clus scale="  107.706">  2  5  1 -1</clus>
<clus scale="  173.009">  1  9  2 -1</clus>
<clus scale="  173.009">  1  5  2 -1</clus>
</clustering>
</event>
<event>
10    4  0.2565852E-005  0.2177822E+03  0.7546771E-02  0.1170602E+00
          2   -1    0    0  502    0 -0.00000000000E+00  0.00000000000E+00  0.18434309348E+03  0.18434309348E+03  0.00000000000E+00 0. -1.
         21   -1    0    0  503  502  0.00000000000E+00 -0.00000000000E+00 -0.23135470950E+03  0.23135470950E+03  0.00000000000E+00 0. -1.
         24    2    1    2    0    0 -0.47273611561E+02  0.16374131326E+02  0.81773276905E+02  0.12652202274E+03  0.82571465391E+02 0.  0.
         23    2    1    2    0    0 -0.43323930718E+02 -0.69215430123E+02 -0.87329525045E+02  0.15057113085E+03  0.91528578932E+02 0.  0.
        -11    1    3    3    0    0  0.12926948676E+02 -0.21717073259E+02  0.22869233778E+02  0.34084294428E+02  0.00000000000E+00 0.  1.
         12    1    3    3    0    0 -0.60200560238E+02  0.38091204586E+02  0.58904043127E+02  0.92437728317E+02  0.00000000000E+00 0. -1.
        -11    1    4    4    0    0 -0.65777212237E+02 -0.37107788497E+02 -0.30286686911E+02  0.81368992994E+02  0.00000000000E+00 0.  1.
         11    1    4    4    0    0  0.22453281518E+02 -0.32107641626E+02 -0.57042838134E+02  0.69202137858E+02  0.00000000000E+00 0. -1.
         21    1    1    2  503  501  0.24957724721E+02  0.13088724401E+02 -0.53938673674E+02  0.60857072288E+02  0.00000000000E+00 0.  1.
          1    1    1    2  501    0  0.65639817559E+02  0.39752574395E+02  0.12483305794E+02  0.77747577092E+02  0.00000000000E+00 0. -1.
<scales pt_clust_5="13000.00000" pt_clust_6="13000.00000" pt_clust_7="13000.00000" pt_clust_8="13000.00000" pt_clust_9="28.18160" pt_clust_10="13000.00000"></scales>
<clustering>
<clus scale="   28.182">  2  9  1 -1</clus>
<clus scale="   82.571">  5  6 -1 -1</clus>
<clus scale="   91.529">  7  8 -1 -1</clus>
<clus scale="   82.016">  7 10 -1 -1</clus>
<clus scale="   95.319">  1  5  2 -1</clus>
<clus scale="   28.182">  2  5  1 -1</clus>
</clustering>
</event>
<event>
10    4  0.2565852E-005  0.1978494E+03  0.7546771E-02  0.1188494E+00
          2   -1    0    0  503    0 -0.00000000000E+00  0.00000000000E+00  0.41900147587E+03  0.41900147587E+03  0.00000000000E+00 0. -1.
         21   -1    0    0  501  502  0.00000000000E+00 -0.00000000000E+00 -0.10465941570E+03  0.10465941570E+03  0.00000000000E+00 0. -1.
         24    2    1    2    0    0  0.25192943270E+02  0.38034060925E+02  0.12837874211E+03  0.15477703405E+03  0.73440824229E+02 0.  0.
         23    2    1    2    0    0 -0.22239852707E+01  0.28028554582E+02  0.21884136306E+03  0.23816484512E+03  0.89668307017E+02 0.  0.
        -13    1    3    3    0    0  0.30596148939E+02 -0.10146297406E+02  0.25693250211E+02  0.41221533055E+02  0.00000000000E+00 0.  1.
         14    1    3    3    0    0 -0.54032056693E+01  0.48180358332E+02  0.10268549190E+03  0.11355550100E+03  0.00000000000E+00 0. -1.
        -13    1    4    4    0    0  0.16652704362E+02  0.41482035094E+02  0.20768256885E+03  0.21243851158E+03  0.00000000000E+00 0. -1.
         13    1    4    4    0    0 -0.18876689633E+02 -0.13453480512E+02  0.11158794213E+02  0.25726333545E+02  0.00000000000E+00 0.  1.
         21    1    1    2  503  502 -0.26098175369E+02  0.27210174717E+01 -0.52867683720E+02  0.59021273077E+02  0.00000000000E+00 0. -1.
          1    1    1    2  501    0  0.31292173701E+01 -0.68783632979E+02  0.19989638716E+02  0.71697739316E+02  0.00000000000E+00 0. -1.
<scales pt_clust_5="13000.00000" pt_clust_6="13000.00000" pt_clust_7="13000.00000" pt_clust_8="13000.00000" pt_clust_9="26.23964" pt_clust_10="13000.00000"></scales>
<clustering>
<clus scale="   26.240">  2  9  1 -1</clus>
<clus scale="   73.441">  5  6 -1 -1</clus>
<clus scale="   85.001">  1  5  2 -1</clus>
<clus scale="   89.668">  7  8 -1 -1</clus>
<clus scale="   61.198">  7 10 -1 -1</clus>
<clus scale="   26.240">  2  5  1 -1</clus>
</clustering>
</event>
<event>
10    4  0.2565852E-005  0.5291967E+03  0.7546771E-02  0.1061079E+00
         21   -1    0    0  503  502  0.00000000000E+00  0.00000000000E+00  0.49550082623E+03  0.49550082623E+03  0.00000000000E+00 0. -1.
          2   -1    0    0  502    0 -0.00000000000E+00 -0.00000000000E+00 -0.34577301405E+03  0.34577301405E+03  0.00000000000E+00 0. -1.
         24    2    1    2    0    0 -0.56479402616E+02 -0.36698847362E+02 -0.88093606269E+02  0.13840772566E+03  0.82822018446E+02 0.  0.
         23    2    1    2    0    0 -0.12253771971E+03 -0.93214349152E+02 -0.15109540120E+03  0.23407166554E+03  0.90858773427E+02 0.  0.
        -13    1    3    3    0    0 -0.24296379772E+02  0.19465560942E+02 -0.60499862918E+02  0.68040102483E+02  0.00000000000E+00 0.  1.
         14    1    3    3    0    0 -0.32183022844E+02 -0.56164408304E+02 -0.27593743350E+02  0.70367623177E+02  0.00000000000E+00 0. -1.
        -13    1    4    4    0    0 -0.43682235586E+02 -0.29807002284E+01 -0.88811420349E+02  0.99017628047E+02  0.00000000000E+00 0. -1.
         13    1    4    4    0    0 -0.78855484120E+02 -0.90233648923E+02 -0.62283980850E+02  0.13505403750E+03  0.00000000000E+00 0.  1.
         21    1    1    2  503  501  0.27209801440E+02 -0.11495146484E+01  0.16891798786E+03  0.17109933168E+03  0.00000000000E+00 0. -1.
          1    1    1    2  501    0  0.15180732088E+03  0.13106271116E+03  0.21999883179E+03  0.29769511739E+03  0.00000000000E+00 0. -1.
<scales pt_clust_5="13000.00000" pt_clust_6="13000.00000" pt_clust_7="13000.00000" pt_clust_8="13000.00000" pt_clust_9="27.23407" pt_clust_10="13000.00000"></scales>
<clustering>
<clus scale="   27.234">  1  9  2 -1</clus>
<clus scale="   82.822">  5  6 -1 -1</clus>
<clus scale="   90.859">  7  8 -1 -1</clus>
<clus scale="  105.686">  2  5  1 -1</clus>
<clus scale="  203.827">  7 10 -1 -1</clus>
<clus scale="   27.234">  1  5  2 -1</clus>
</clustering>
</event>
<event>
10    4  0.2565852E-005  0.2063574E+03  0.7546771E-02  0.1159527E+00
         21   -1    0    0  501  502  0.00000000000E+00  0.00000000000E+00  0.13858781789E+03  0.13858781789E+03  0.00000000000E+00 0. -1.
          2   -1    0    0  503    0 -0.00000000000E+00 -0.00000000000E+00 -0.31137879297E+03  0.31137879297E+03  0.00000000000E+00 0. -1.
         24    2    1    2    0    0  0.13419826637E+03  0.27692905829E+02 -0.12764518244E+03  0.20375360306E+03  0.80288021709E+02 0.  0.
         23    2    1    2    0    0 -0.57155864689E+02 -0.61896251820E+02 -0.35204267894E+02  0.12913112505E+03  0.91310284860E+02 0.  0.
        -13    1    3    3    0    0  0.33442635931E+02 -0.24507540248E+02 -0.55534979231E+02  0.69304858020E+02  0.00000000000E+00 0.  1.
         14    1    3    3    0    0  0.10075563044E+03  0.52200446077E+02 -0.72110203206E+02  0.13444874504E+03  0.00000000000E+00 0. -1.
        -13    1    4    4    0    0 -0.28644626668E+02 -0.31902067038E+02 -0.65190617870E+02  0.78026105737E+02  0.00000000000E+00 0.  1.
         13    1    4    4    0    0 -0.28511238021E+02 -0.29994184782E+02  0.29986349976E+02  0.51105019314E+02  0.00000000000E+00 0. -1.
         21    1    1    2  503  502 -0.46025458817E+02 -0.22817825229E+02  0.27312382496E+00  0.51371885347E+02  0.00000000000E+00 0. -1.
          1    1    1    2  501    0 -0.31016942867E+02  0.57021171220E+02 -0.10214648573E+02  0.65709997394E+02  0.00000000000E+00 0. -1.
<scales pt_clust_5="13000.00000" pt_clust_6="13000.00000" pt_clust_7="13000.00000" pt_clust_8="13000.00000" pt_clust_9="51.37116" pt_clust_10="13000.00000"></scales>
<clustering>
<clus scale="   51.371">  1  9  2 -1</clus>
<clus scale="   80.288">  5  6 -1 -1</clus>
<clus scale="   91.310">  7  8 -1 -1</clus>
<clus scale="   66.600">  7 10 -1 -1</clus>
<clus scale="  144.664">  2  5  1 -1</clus>
<clus scale="   51.371">  1  5  2 -1</clus>
</clustering>
</event>
<event>
10    4  0.2565852E-005  0.1446006E+03  0.7546771E-02  0.1228451E+00
          2   -1    0    0  503    0 -0.00000000000E+00  0.00000000000E+00  0.75397171349E+03  0.75397171349E+03  0.00000000000E+00 0. -1.
         21   -1    0    0  501  502  0.00000000000E+00 -0.00000000000E+00 -0.31815281151E+02  0.31815281151E+02  0.00000000000E+00 0.  1.
         24    2    1    2    0    0 -0.26490340744E+02  0.43684320086E+02  0.43567864024E+03  0.44591855962E+03  0.80108840197E+02 0.  0.
         23    2    1    2    0    0  0.22853940323E+02 -0.28248190204E+02  0.17285713218E+03  0.20119518314E+03  0.96330943817E+02 0.  0.
        -11    1    3    3    0    0 -0.15020468779E+02 -0.18714309184E+02  0.55254332313E+02  0.60240194969E+02  0.00000000000E+00 0.  1.
         12    1    3    3    0    0 -0.11469871964E+02  0.62398629270E+02  0.38042430793E+03  0.38567836465E+03  0.00000000000E+00 0. -1.
        -11    1    4    4    0    0  0.14874976217E+02  0.23144753504E+02  0.13260603859E+03  0.13543007791E+03  0.00000000000E+00 0. -1.
         11    1    4    4    0    0  0.79789641058E+01 -0.51392943708E+02  0.40251093589E+02  0.65765105233E+02  0.00000000000E+00 0.  1.
         21    1    1    2  503  502  0.37761254827E+02 -0.90097064984E+01  0.85815593981E+02  0.94188127424E+02  0.00000000000E+00 0. -1.
          1    1    1    2  501    0 -0.34124854406E+02 -0.64264233839E+01  0.27805065935E+02  0.44485124451E+02  0.00000000000E+00 0. -1.
<scales pt_clust_5="13000.00000" pt_clust_6="13000.00000" pt_clust_7="13000.00000" pt_clust_8="13000.00000" pt_clust_9="38.82122" pt_clust_10="13000.00000"></scales>
<clustering>
<clus scale="   38.821">  2  9  1 -1</clus>
<clus scale="   80.109">  5  6 -1 -1</clus>
<clus scale="   92.534">  1  5  2 -1</clus>
<clus scale="   96.331">  7  8 -1 -1</clus>
<clus scale="   26.012">  7 10 -1 -1</clus>
<clus scale="   38.821">  2  5  1 -1</clus>
</clustering>
</event>
<event>
10    4  0.2565852E-005  0.3311561E+03  0.7546771E-02  0.1108450E+00
          2   -1    0    0  502    0 -0.00000000000E+00  0.00000000000E+00  0.25002947161E+03  0.25002947161E+03  0.00000000000E+00 0. -1.
         21   -1    0    0  503  502  0.00000000000E+00 -0.00000000000E+00 -0.38139156115E+03  0.38139156115E+03  0.00000000000E+00 0. -1.
         24    2    1    2    0    0  0.92593282357E+02  0.53412462033E+02 -0.34366797062E+02  0.13981286016E+03  0.83307575206E+02 0.  0.
         23    2    1    2    0    0 -0.59577556413E+02  0.18678275183E+03 -0.10287113820E+02  0.21608300269E+03  0.90270469870E+02 0.  0.
        -11    1    3    3    0    0  0.17287093573E+02  0.16347867665E+02 -0.49132803622E+02  0.54590555714E+02  0.00000000000E+00 0.  1.
         12    1    3    3    0    0  0.75306188783E+02  0.37064594369E+02  0.14766006560E+02  0.85222304443E+02  0.00000000000E+00 0. -1.
        -11    1    4    4    0    0 -0.17715771185E+02  0.97986001698E+02  0.38126866243E+02  0.10662440156E+03  0.00000000000E+00 0.  1.
         11    1    4    4    0    0 -0.41861785228E+02  0.88796750135E+02 -0.48413980063E+02  0.10945860114E+03  0.00000000000E+00 0. -1.
         21    1    1    2  503  501 -0.13689636654E+02 -0.12235250050E+03 -0.95458779859E+02  0.15578805854E+03  0.00000000000E+00 0. -1.
          1    1    1    2  501    0 -0.19326089290E+02 -0.11784271336E+03  0.87506012039E+01  0.11973711138E+03  0.00000000000E+00 0. -1.
<scales pt_clust_5="13000.00000" pt_clust_6="13000.00000" pt_clust_7="13000.00000" pt_clust_8="13000.00000" pt_clust_9="123.11596" pt_clust_10="13000.00000"></scales>
<clustering>
<clus scale="   83.308">  5  6 -1 -1</clus>
<clus scale="   90.270">  7  8 -1 -1</clus>
<clus scale="  119.417">  7 10 -1 -1</clus>
<clus scale="  123.116">  2  9  1 -1</clus>
<clus scale="  121.697">  1  5  2 -1</clus>
<clus scale="  123.116">  2  5  1 -1</clus>
</clustering>
</event>
<event>
10    4  0.2565852E-005  0.5441361E+03  0.7546771E-02  0.1026715E+00
         -1   -1    0    0    0  501 -0.00000000000E+00  0.00000000000E+00  0.92893302630E+03  0.92893302630E+03  0.00000000000E+00 0.  1.
         21   -1    0    0  503  502  0.00000000000E+00 -0.00000000000E+00 -0.36690217685E+03  0.36690217685E+03  0.00000000000E+00 0. -1.
         24    2    1    2    0    0 -0.23899556838E+03  0.10910115685E+03  0.34974522643E+03  0.44326851370E+03  0.71716857830E+02 0.  0.
         23    2    1    2    0    0 -0.14248426005E+03  0.13642852492E+00  0.13128967740E+03  0.21453890814E+03  0.92131323342E+02 0.  0.
        -11    1    3    3    0    0 -0.14336452419E+02  0.15698106732E+02  0.59244038180E+01  0.22069503473E+02  0.00000000000E+00 0.  1.
         12    1    3    3    0    0 -0.22465911596E+03  0.93403050122E+02  0.34382082261E+03  0.42119901023E+03  0.00000000000E+00 0. -1.
        -13    1    4    4    0    0 -0.43920511574E+02 -0.17912033685E+02  0.98129482217E+02  0.10899196102E+03  0.00000000000E+00 0.  1.
         13    1    4    4    0    0 -0.98563748472E+02  0.18048462210E+02  0.33160195182E+02  0.10554694712E+03  0.00000000000E+00 0. -1.
         21    1    1    2  503  501  0.26651058604E+02 -0.39091586394E+02 -0.18378198402E+03  0.18977420452E+03  0.00000000000E+00 0. -1.
         -2    1    1    2    0  502  0.35482876982E+03 -0.70145998985E+02  0.26477792964E+03  0.44825357678E+03  0.00000000000E+00 0.  1.
<scales pt_clust_5="13000.00000" pt_clust_6="13000.00000" pt_clust_7="13000.00000" pt_clust_8="13000.00000" pt_clust_9="47.31206" pt_clust_10="13000.00000"></scales>
<clustering>
<clus scale="   47.312">  2  9  1 -1</clus>
<clus scale="   71.717">  5  6 -1 -1</clus>
<clus scale="   92.131">  7  8 -1 -1</clus>
<clus scale="  262.287">  1  5  2 -1</clus>
<clus scale="  206.189">  7 10 -1 -1</clus>
<clus scale="   47.312">  2  5  1 -1</clus>
</clustering>
</event>
<event>
10    4  0.2565852E-005  0.2716696E+03  0.7546771E-02  0.1114616E+00
          2   -1    0    0  502    0 -0.00000000000E+00  0.00000000000E+00  0.17722126929E+04  0.17722126929E+04  0.00000000000E+00 0. -1.
         21   -1    0    0  503  502  0.00000000000E+00 -0.00000000000E+00 -0.71693679769E+02  0.71693679769E+02  0.00000000000E+00 0. -1.
         24    2    1    2    0    0 -0.12862578144E+03 -0.11637576270E+03  0.12895122640E+04  0.13035731809E+04  0.79832631045E+02 0.  0.
         23    2    1    2    0    0  0.13059901384E+02  0.32178097726E+02  0.25391567985E+03  0.27439282859E+03  0.98042138447E+02 0.  0.
        -13    1    3    3    0    0 -0.18954771167E+02 -0.45726330694E+02  0.18974025187E+03  0.19609065212E+03  0.00000000000E+00 0.  1.
         14    1    3    3    0    0 -0.10967101028E+03 -0.70649432005E+02  0.10997720122E+04  0.11074825287E+04  0.00000000000E+00 0. -1.
        -13    1    4    4    0    0 -0.37159778868E+02 -0.77942038588E+01  0.70553357684E+02  0.80121002614E+02  0.00000000000E+00 0.  1.
         13    1    4    4    0    0  0.50219680252E+02  0.39972301585E+02  0.18336232217E+03  0.19427182598E+03  0.00000000000E+00 0. -1.
         21    1    1    2  503  501  0.68287318694E+02 -0.40593051411E+02  0.75085783686E+02  0.10931069769E+03  0.00000000000E+00 0. -1.
          1    1    1    2  501    0  0.47278561367E+02  0.12479071638E+03  0.82005285549E+02  0.15662966551E+03  0.00000000000E+00 0. -1.
<scales pt_clust_5="13000.00000" pt_clust_6="13000.00000" pt_clust_7="13000.00000" pt_clust_8="13000.00000" pt_clust_9="79.44151" pt_clust_10="13000.00000"></scales>
<clustering>
<clus scale="   79.442">  2  9  1 -1</clus>
<clus scale="   79.833">  5  6 -1 -1</clus>
<clus scale="   98.042">  7  8 -1 -1</clus>
<clus scale="  135.076">  7 10 -1 -1</clus>
<clus scale="  188.468">  1  5  2 -1</clus>
<clus scale="   79.442">  2  5  1 -1</clus>
</clustering>
</event>
<event>
10    4  0.2565852E-005  0.6538317E+03  0.7546771E-02  0.1034512E+00
          4   -1    0    0  502    0 -0.00000000000E+00  0.00000000000E+00  0.76813148900E+03  0.76813148900E+03  0.00000000000E+00 0. -1.
         21   -1    0    0  503  502  0.00000000000E+00 -0.00000000000E+00 -0.22012932870E+03  0.22012932870E+03  0.00000000000E+00 0. -1.
         24    2    1    2    0    0 -0.82127009970E+02  0.46250987582E+02  0.88493175596E+02  0.15280259749E+03  0.81446866447E+02 0.  0.
         23    2    1    2    0    0 -0.23939954762E+03  0.15280011402E+03  0.12158417914E+03  0.32207516242E+03  0.91047676449E+02 0.  0.
        -11    1    3    3    0    0 -0.75691959720E+02  0.67774508810E+02  0.77545020507E+02  0.12781192048E+03  0.00000000000E+00 0.  1.
         12    1    3    3    0    0 -0.64350502499E+01 -0.21523521228E+02  0.10948155090E+02  0.24990677014E+02  0.00000000000E+00 0. -1.
        -11    1    4    4    0    0 -0.25681663225E+02  0.57915539451E+02  0.15056302857E+02  0.65118736103E+02  0.00000000000E+00 0.  1.
         11    1    4    4    0    0 -0.21371788439E+03  0.94884574565E+02  0.10652787628E+03  0.25695642631E+03  0.00000000000E+00 0. -1.
         21    1    1    2  503  501  0.22732457028E+02 -0.41168608459E+02  0.27340189967E+02  0.54397655394E+02  0.00000000000E+00 0. -1.
          3    1    1    2  501    0  0.29879410056E+03 -0.15788249314E+03  0.31058461561E+03  0.45898540240E+03  0.00000000000E+00 0. -1.
<scales pt_clust_5="13000.00000" pt_clust_6="13000.00000" pt_clust_7="13000.00000" pt_clust_8="13000.00000" pt_clust_9="47.02785" pt_clust_10="13000.00000"></scales>
<clustering>
<clus scale="   47.028">  2  9  1 -1</clus>
<clus scale="   81.447">  5  6 -1 -1</clus>
<clus scale="   91.048">  7  8 -1 -1</clus>
<clus scale="  119.989">  1  5  2 -1</clus>
<clus scale="  294.001">  7 10 -1 -1</clus>
<clus scale="   47.028">  2  5  1 -1</clus>
</clustering>
</event>
<event>
10    4  0.2565852E-005  0.1492628E+03  0.7546771E-02  0.1220738E+00
         21   -1    0    0  501  502  0.00000000000E+00  0.00000000000E+00  0.46776728514E+02  0.46776728514E+02  0.00000000000E+00 0.  1.
         -3   -1    0    0    0  501 -0.00000000000E+00 -0.00000000000E+00 -0.67196934230E+03  0.67196934230E+03  0.00000000000E+00 0.  1.
         24    2    1    2    0    0 -0.34491821687E+01 -0.44068504449E+02 -0.66288540451E+02  0.11325420087E+03  0.80488592223E+02 0.  0.
         23    2    1    2    0    0  0.54507637833E+02  0.65838015158E+02 -0.47296560977E+03  0.48914341653E+03  0.90879519627E+02 0.  0.
        -13    1    3    3    0    0 -0.36357484281E+02 -0.40631217421E+01 -0.12710191899E+02  0.38728860035E+02  0.00000000000E+00 0.  1.
         14    1    3    3    0    0  0.32908302112E+02 -0.40005382707E+02 -0.53578348551E+02  0.74525340837E+02  0.00000000000E+00 0. -1.
        -11    1    4    4    0    0  0.55499505570E+02  0.86132087366E+02 -0.35709012952E+03  0.37150005679E+03  0.00000000000E+00 0.  1.
         11    1    4    4    0    0 -0.99186773702E+00 -0.20294072208E+02 -0.11587548025E+03  0.11764335974E+03  0.00000000000E+00 0. -1.
         21    1    1    2  503  502 -0.25669503430E+02 -0.13061624943E+02 -0.27446920304E+01  0.28932037378E+02  0.00000000000E+00 0.  1.
         -4    1    1    2    0  503 -0.25388952235E+02 -0.87078857657E+01 -0.83193771534E+02  0.87416416033E+02  0.00000000000E+00 0.  1.
<scales pt_clust_5="13000.00000" pt_clust_6="13000.00000" pt_clust_7="13000.00000" pt_clust_8="13000.00000" pt_clust_9="28.80155" pt_clust_10="13000.00000"></scales>
<clustering>
<clus scale="   28.802">  1  9  2 -1</clus>
<clus scale="   80.489">  5  6 -1 -1</clus>
<clus scale="   90.880">  7  8 -1 -1</clus>
<clus scale="   28.629">  7 10 -1 -1</clus>
<clus scale="   98.801">  2  5  1 -1</clus>
<clus scale="   28.802">  1  5  2 -1</clus>
</clustering>
</event>
<event>
10    4  0.2565852E-005  0.1474777E+03  0.7546771E-02  0.1214756E+00
          2   -1    0    0  502    0 -0.00000000000E+00  0.00000000000E+00  0.13378717045E+04  0.13378717045E+04  0.00000000000E+00 0. -1.
         21   -1    0    0  503  502  0.00000000000E+00 -0.00000000000E+00 -0.43586264986E+02  0.43586264986E+02  0.00000000000E+00 0.  1.
         24    2    1    2    0    0 -0.47359672693E+02 -0.70004550825E+02  0.10695075190E+04  0.10759230028E+04  0.81365833624E+02 0.  0.
         23    2    1    2    0    0  0.23859969340E+02  0.44809930837E+02  0.21577070592E+03  0.23923630944E+03  0.89998812104E+02 0.  0.
        -13    1    3    3    0    0 -0.26152911262E+02 -0.45024754514E+02  0.23185614123E+03  0.23763096076E+03  0.00000000000E+00 0.  1.
         14    1    3    3    0    0 -0.21206761431E+02 -0.24979796311E+02  0.83765137779E+03  0.83829204200E+03  0.00000000000E+00 0. -1.
        -11    1    4    4    0    0  0.43199225881E+02 -0.10589342760E+02  0.86218320911E+02  0.97014979037E+02  0.00000000000E+00 0.  1.
         11    1    4    4    0    0 -0.19339256541E+02  0.55399273597E+02  0.12955238501E+03  0.14222133040E+03  0.00000000000E+00 0. -1.
         21    1    1    2  503  501 -0.81345063394E+01  0.19349607664E+02 -0.15303335993E+02  0.25976327736E+02  0.00000000000E+00 0.  1.
          1    1    1    2  501    0  0.31634209692E+02  0.58450123237E+01  0.24310550555E+02  0.40322329548E+02  0.00000000000E+00 0. -1.
<scales pt_clust_5="13000.00000" pt_clust_6="13000.00000" pt_clust_7="13000.00000" pt_clust_8="13000.00000" pt_clust_9="20.98994" pt_clust_10="13000.00000"></scales>
<clustering>
<clus scale="   20.990">  2  9  1 -1</clus>
<clus scale="   81.366">  5  6 -1 -1</clus>
<clus scale="   89.999">  7  8 -1 -1</clus>
<clus scale="   31.431">  7 10 -1 -1</clus>
<clus scale="  116.196">  1  5  2 -1</clus>
<clus scale="   20.990">  2  5  1 -1</clus>
</clustering>
</event>
<event>
10    4  0.2565852E-005  0.2253978E+03  0.7546771E-02  0.1141729E+00
         -1   -1    0    0    0  501 -0.00000000000E+00  0.00000000000E+00  0.41412815877E+03  0.41412815877E+03  0.00000000000E+00 0.  1.
         21   -1    0    0  501  502  0.00000000000E+00 -0.00000000000E+00 -0.14106452799E+03  0.14106452799E+03  0.00000000000E+00 0.  1.
         24    2    1    2    0    0 -0.30806460918E+02  0.15199149172E+03  0.68870246984E+02  0.18694707029E+03  0.78457915968E+02 0.  0.
         23    2    1    2    0    0  0.62153276888E+02 -0.64899999528E+02  0.75276216753E+02  0.14811924258E+03  0.90541490205E+02 0.  0.
        -11    1    3    3    0    0 -0.53988213166E+02  0.73944224558E+02  0.45520628737E+02  0.10224775375E+03  0.00000000000E+00 0.  1.
         12    1    3    3    0    0  0.23181752248E+02  0.78047267166E+02  0.23349618247E+02  0.84699316536E+02  0.00000000000E+00 0. -1.
        -13    1    4    4    0    0  0.60012671774E+02 -0.85706313132E+02  0.52039866488E+02  0.11685563995E+03  0.00000000000E+00 0.  1.
         13    1    4    4    0    0  0.21406051139E+01  0.20806313604E+02  0.23236350265E+02  0.31263602634E+02  0.00000000000E+00 0. -1.
         21    1    1    2  503  502 -0.21277277032E+02 -0.14709386023E+02 -0.33324590150E+02  0.42185505375E+02  0.00000000000E+00 0.  1.
         -2    1    1    2    0  503 -0.10069538937E+02 -0.72382106173E+02  0.16224175720E+03  0.17794086851E+03  0.00000000000E+00 0.  1.
<scales pt_clust_5="13000.00000" pt_clust_6="13000.00000" pt_clust_7="13000.00000" pt_clust_8="13000.00000" pt_clust_9="25.86675" pt_clust_10="13000.00000"></scales>
<clustering>
<clus scale="   25.867">  2  9  1 -1</clus>
<clus scale="   78.458">  5  6 -1 -1</clus>
<clus scale="   90.541">  7  8 -1 -1</clus>
<clus scale="   74.423">  7 10 -1 -1</clus>
<clus scale="  169.170">  1  5  2 -1</clus>
<clus scale="   25.867">  2  5  1 -1</clus>
</clustering>
</event>
<event>
10    4  0.2565852E-005  0.5452059E+03  0.7546771E-02  0.1019201E+00
         21   -1    0    0  503  502  0.00000000000E+00  0.00000000000E+00  0.26266436069E+03  0.26266436069E+03  0.00000000000E+00 0. -1.
          2   -1    0    0  502    0 -0.00000000000E+00 -0.00000000000E+00 -0.10675163221E+04  0.10675163221E+04  0.00000000000E+00 0. -1.
         24    2    1    2    0    0 -0.88001656154E+02 -0.32402516113E+03 -0.12717611068E+03  0.36722145222E+03  0.77079409151E+02 0.  0.
         23    2    1    2    0    0 -0.13402443622E+03  0.11038074725E+03 -0.12003339625E+03  0.22944804715E+03  0.89955162469E+02 0.  0.
        -13    1    3    3    0    0 -0.24052235149E+02 -0.40682682993E+02  0.60685094635E+01  0.47648898395E+02  0.00000000000E+00 0.  1.
         14    1    3    3    0    0 -0.63949421005E+02 -0.28334247814E+03 -0.13324462015E+03  0.31957255383E+03  0.00000000000E+00 0. -1.
        -13    1    4    4    0    0 -0.75172859599E+02  0.12967511731E+02 -0.75222978550E+02  0.10713361603E+03  0.00000000000E+00 0.  1.
         13    1    4    4    0    0 -0.58851576623E+02  0.97413235521E+02 -0.44810417701E+02  0.12231443112E+03  0.00000000000E+00 0. -1.
         21    1    1    2  503  501 -0.15276062438E+02  0.37336157774E+02  0.46110057734E+02  0.61265685217E+02  0.00000000000E+00 0. -1.
          1    1    1    2  501    0  0.23730215481E+03  0.17630825610E+03 -0.60375251217E+03  0.67224549817E+03  0.00000000000E+00 0. -1.
<scales pt_clust_5="13000.00000" pt_clust_6="13000.00000" pt_clust_7="13000.00000" pt_clust_8="13000.00000" pt_clust_9="40.34039" pt_clust_10="13000.00000"></scales>
<clustering>
<clus scale="   40.340">  1  9  2 -1</clus>
<clus scale="   77.079">  5  6 -1 -1</clus>
<clus scale="   89.955">  7  8 -1 -1</clus>
<clus scale="  297.338">  7 10 -1 -1</clus>
<clus scale="  326.898">  2  5  1 -1</clus>
<clus scale="   40.340">  1  5  2 -1</clus>
</clustering>
</event>
<event>
10    4  0.2565852E-005  0.5331721E+03  0.7546771E-02  0.1055390E+00
         21   -1    0    0  503  502  0.00000000000E+00  0.00000000000E+00  0.24016987310E+03  0.24016987310E+03  0.00000000000E+00 0. -1.
          2   -1    0    0  502    0 -0.00000000000E+00 -0.00000000000E+00 -0.25269112389E+04  0.25269112389E+04  0.00000000000E+00 0. -1.
         24    2    1    2    0    0 -0.17321527975E+02  0.90312265758E+02 -0.44536017370E+03  0.46156833439E+03  0.79014570277E+02 0.  0.
         23    2    1    2    0    0 -0.17082557942E+03  0.11676832785E+03 -0.53249080131E+03  0.57798848582E+03  0.87795303334E+02 0.  0.
        -11    1    3    3    0    0  0.31028162208E+02  0.47065692610E+02 -0.20665275615E+03  0.21420384659E+03  0.00000000000E+00 0.  1.
         12    1    3    3    0    0 -0.48349690183E+02  0.43246573148E+02 -0.23870741755E+03  0.24736448780E+03  0.00000000000E+00 0. -1.
        -13    1    4    4    0    0 -0.13342165814E+03  0.42349679289E+02 -0.30064373889E+03  0.33163457590E+03  0.00000000000E+00 0. -1.
         13    1    4    4    0    0 -0.37403921274E+02  0.74418648561E+02 -0.23184706242E+03  0.24635390992E+03  0.00000000000E+00 0.  1.
         21    1    1    2  503  501  0.43016961567E+03 -0.12235285487E+03 -0.58417653689E+02  0.45103075461E+03  0.00000000000E+00 0. -1.
          1    1    1    2  501    0 -0.24202250828E+03 -0.84727738738E+02 -0.12504727371E+04  0.12764935372E+04  0.00000000000E+00 0. -1.
<scales pt_clust_5="13000.00000" pt_clust_6="13000.00000" pt_clust_7="13000.00000" pt_clust_8="13000.00000" pt_clust_9="442.26461" pt_clust_10="13000.00000"></scales>
<clustering>
<clus scale="   79.015">  5  6 -1 -1</clus>
<clus scale="   87.795">  7  8 -1 -1</clus>
<clus scale="  121.242">  2  5  1 -1</clus>
<clus scale="  254.317">  7 10 -1 -1</clus>
<clus scale="  442.265">  1  9  2 -1</clus>
<clus scale="  442.265">  1  5  2 -1</clus>
</clustering>
</event>
<event>
10    4  0.2565852E-005  0.1563346E+03  0.7546771E-02  0.1213612E+00
         21   -1    0    0  501  502  0.00000000000E+00  0.00000000000E+00  0.45779699292E+02  0.45779699292E+02  0.00000000000E+00 0. -1.
          2   -1    0    0  503    0 -0.00000000000E+00 -0.00000000000E+00 -0.77560938584E+03  0.77560938584E+03  0.00000000000E+00 0. -1.
         24    2    1    2    0    0  0.74701348104E+02  0.25743888558E+02 -0.19327347225E+03  0.22406096528E+03  0.81275099985E+02 0.  0.
         23    2    1    2    0    0 -0.53990059059E+02  0.36214941203E+02 -0.37261765083E+03  0.39000787108E+03  0.95056705972E+02 0.  0.
        -13    1    3    3    0    0  0.47466318055E+02 -0.23455757433E+02 -0.12403659062E+03  0.13486400454E+03  0.00000000000E+00 0.  1.
         14    1    3    3    0    0  0.27235030049E+02  0.49199645991E+02 -0.69236881630E+02  0.89196960740E+02  0.00000000000E+00 0. -1.
        -11    1    4    4    0    0 -0.76084092266E+02  0.46930151991E+02 -0.26677261285E+03  0.28135183531E+03  0.00000000000E+00 0.  1.
         11    1    4    4    0    0  0.22094033207E+02 -0.10715210788E+02 -0.10584503798E+03  0.10865603577E+03  0.00000000000E+00 0. -1.
         21    1    1    2  503  502 -0.29193847179E+02 -0.27680349469E+02 -0.62774350670E+00  0.40235264653E+02  0.00000000000E+00 0. -1.
          1    1    1    2  501    0  0.84825581348E+01 -0.34278480292E+02 -0.16331081996E+03  0.16708498412E+03  0.00000000000E+00 0. -1.
<scales pt_clust_5="13000.00000" pt_clust_6="13000.00000" pt_clust_7="13000.00000" pt_clust_8="13000.00000" pt_clust_9="40.23037" pt_clust_10="13000.00000"></scales>
<clustering>
<clus scale="   40.230">  1  9  2 -1</clus>
<clus scale="   81.275">  5  6 -1 -1</clus>
<clus scale="   95.057">  7  8 -1 -1</clus>
<clus scale="   36.843">  7 10 -1 -1</clus>
<clus scale="   99.939">  2  5  1 -1</clus>
<clus scale="   40.230">  1  5  2 -1</clus>
</clustering>
</event>
<event>
10    4  0.2565852E-005  0.3439878E+03  0.7546771E-02  0.1110013E+00
          2   -1    0    0  503    0 -0.00000000000E+00  0.00000000000E+00  0.30703963974E+03  0.30703963974E+03  0.00000000000E+00 0. -1.
         21   -1    0    0  501  502  0.00000000000E+00 -0.00000000000E+00 -0.20611565875E+03  0.20611565875E+03  0.00000000000E+00 0.  1.
         24    2    1    2    0    0 -0.66585417577E+02 -0.27641354376E+02  0.70250373797E+02  0.12771680883E+03  0.78605381073E+02 0.  0.
         23    2    1    2    0    0 -0.21473379308E+02  0.38224874712E+02 -0.11647597862E+03  0.15278072237E+03  0.88617427560E+02 0.  0.
        -13    1    3    3    0    0 -0.68229600046E+02 -0.49461578877E+02  0.50530975133E+02  0.98260396678E+02  0.00000000000E+00 0.  1.
         14    1    3    3    0    0  0.16441824692E+01  0.21820224501E+02  0.19719398664E+02  0.29456412153E+02  0.00000000000E+00 0. -1.
        -11    1    4    4    0    0  0.28166941579E+02  0.13356415517E+02 -0.10067880772E+02  0.32758703525E+02  0.00000000000E+00 0. -1.
         11    1    4    4    0    0 -0.49640320888E+02  0.24868459195E+02 -0.10640809785E+03  0.12002201885E+03  0.00000000000E+00 0.  1.
         21    1    1    2  503  502  0.12935665857E+02  0.24439878743E+02 -0.27710706587E+02  0.39147444153E+02  0.00000000000E+00 0.  1.
          1    1    1    2  501    0  0.75123131028E+02 -0.35023399078E+02  0.17486029240E+03  0.19351032313E+03  0.00000000000E+00 0. -1.
<scales pt_clust_5="13000.00000" pt_clust_6="13000.00000" pt_clust_7="13000.00000" pt_clust_8="13000.00000" pt_clust_9="27.65211" pt_clust_10="13000.00000"></scales>
<clustering>
<clus scale="   27.652">  2  9  1 -1</clus>
<clus scale="   78.605">  5  6 -1 -1</clus>
<clus scale="   88.617">  7  8 -1 -1</clus>
<clus scale="   82.975">  7 10 -1 -1</clus>
<clus scale="  104.337">  1  5  2 -1</clus>
<clus scale="   27.652">  2  5  1 -1</clus>
</clustering>
</event>
<event>
10    4  0.2565852E-005  0.2298689E+03  0.7546771E-02  0.1152421E+00
          2   -1    0    0  503    0 -0.00000000000E+00  0.00000000000E+00  0.52026191701E+03  0.52026191701E+03  0.00000000000E+00 0. -1.
         21   -1    0    0  501  502  0.00000000000E+00 -0.00000000000E+00 -0.72030910577E+02  0.72030910577E+02  0.00000000000E+00 0. -1.
         24    2    1    2    0    0 -0.80113656222E+02  0.47338692102E+02  0.15923871126E+03  0.20104796254E+03  0.80026035726E+02 0.  0.
         23    2    1    2    0    0 -0.36839361909E+02  0.81920259713E+01  0.14103285209E+03  0.17198225147E+03  0.90903143943E+02 0.  0.
        -11    1    3    3    0    0  0.55728335539E+01  0.27224636634E+02  0.13743221772E+02  0.31001829919E+02  0.00000000000E+00 0.  1.
         12    1    3    3    0    0 -0.85686489776E+02  0.20114055468E+02  0.14549548949E+03  0.17004613262E+03  0.00000000000E+00 0. -1.
        -13    1    4    4    0    0  0.24605379581E+02  0.19593298553E+02  0.24954118989E+02  0.40150094733E+02  0.00000000000E+00 0. -1.
         13    1    4    4    0    0 -0.61444741490E+02 -0.11401272582E+02  0.11607873310E+03  0.13183215674E+03  0.00000000000E+00 0.  1.
         21    1    1    2  503  502  0.84475355847E+01  0.19573425562E+02  0.42605128058E+00  0.21322789812E+02  0.00000000000E+00 0.  1.
          1    1    1    2  501    0  0.10850548255E+03 -0.75104143635E+02  0.14753339181E+03  0.19793982377E+03  0.00000000000E+00 0. -1.
<scales pt_clust_5="13000.00000" pt_clust_6="13000.00000" pt_clust_7="13000.00000" pt_clust_8="13000.00000" pt_clust_9="21.31853" pt_clust_10="13000.00000"></scales>
<clustering>
<clus scale="   21.319">  2  9  1 -1</clus>
<clus scale="   80.026">  5  6 -1 -1</clus>
<clus scale="   90.903">  7  8 -1 -1</clus>
<clus scale="  123.634">  1  5  2 -1</clus>
<clus scale="   82.115">  7 10 -1 -1</clus>
<clus scale="   21.319">  2  5  1 -1</clus>
</clustering>
</event>
<event>
10    4  0.2565852E-005  0.4597905E+03  0.7546771E-02  0.1082730E+00
         -3   -1    0    0    0  501 -0.00000000000E+00  0.00000000000E+00  0.11723594217E+03  0.11723594217E+03  0.00000000000E+00 0.  1.
         21   -1    0    0  501  502  0.00000000000E+00 -0.00000000000E+00 -0.94067640814E+03  0.94067640814E+03  0.00000000000E+00 0.  1.
         24    2    1    2    0    0  0.41254562716E+02 -0.17768281773E+01 -0.36664362063E+02  0.97485469269E+02  0.80337072450E+02 0.  0.
         23    2    1    2    0    0  0.41563598262E+02 -0.16174643441E+03 -0.47978072757E+02  0.19608321019E+03  0.90869621479E+02 0.  0.
        -11    1    3    3    0    0  0.38325067811E+02 -0.36726200652E+02 -0.11481353885E+02  0.54308803376E+02  0.00000000000E+00 0.  1.
         12    1    3    3    0    0  0.29294949044E+01  0.34949372475E+02 -0.25183008178E+02  0.43176665893E+02  0.00000000000E+00 0. -1.
        -13    1    4    4    0    0  0.15825080795E+02 -0.13649483615E+03 -0.69609816660E+02  0.15403506112E+03  0.00000000000E+00 0.  1.
         13    1    4    4    0    0  0.25738517467E+02 -0.25251598260E+02  0.21631743903E+02  0.42048149072E+02  0.00000000000E+00 0. -1.
         21    1    1    2  503  502 -0.27330366060E+02  0.23337810508E+02 -0.25717177483E+03  0.25967079944E+03  0.00000000000E+00 0.  1.
         -4    1    1    2    0  503 -0.55487794918E+02  0.14018545208E+03 -0.48162625632E+03  0.50467287141E+03  0.00000000000E+00 0.  1.
<scales pt_clust_5="13000.00000" pt_clust_6="13000.00000" pt_clust_7="13000.00000" pt_clust_8="13000.00000" pt_clust_9="35.93887" pt_clust_10="13000.00000"></scales>
<clustering>
<clus scale="   35.939">  2  9  1 -1</clus>
<clus scale="   80.337">  5  6 -1 -1</clus>
<clus scale="   89.117">  1  5  2 -1</clus>
<clus scale="   90.870">  7  8 -1 -1</clus>
<clus scale="  171.206">  7 10 -1 -1</clus>
<clus scale="   35.939">  2  5  1 -1</clus>
</clustering>
</event>
<event>
10    4  0.2565852E-005  0.1327897E+03  0.7546771E-02  0.1245067E+00
         21   -1    0    0  501  502  0.00000000000E+00  0.00000000000E+00  0.54068799371E+02  0.54068799371E+02  0.00000000000E+00 0. -1.
          2   -1    0    0  503    0 -0.00000000000E+00 -0.00000000000E+00 -0.11684972070E+04  0.11684972070E+04  0.00000000000E+00 0. -1.
         24    2    1    2    0    0 -0.11689197976E+02 -0.24426968979E+02 -0.87908493607E+03  0.88312346484E+03  0.79896277525E+02 0.  0.
         23    2    1    2    0    0  0.39957121291E+02 -0.15007653156E+02 -0.12140825665E+03  0.15680247902E+03  0.89583767776E+02 0.  0.
        -13    1    3    3    0    0 -0.29559596454E+02  0.12931150498E+02 -0.18410355587E+03  0.18690934616E+03  0.00000000000E+00 0.  1.
         14    1    3    3    0    0  0.17870398478E+02 -0.37358119477E+02 -0.69498138020E+03  0.69621411869E+03  0.00000000000E+00 0. -1.
        -13    1    4    4    0    0  0.60842138516E+02  0.35999990212E+01 -0.11160414998E+03  0.12716214887E+03  0.00000000000E+00 0.  1.
         13    1    4    4    0    0 -0.20885017226E+02 -0.18607652177E+02 -0.98041066762E+01  0.29640330156E+02  0.00000000000E+00 0. -1.
         21    1    1    2  503  502 -0.68990356566E+02  0.70258415983E+01 -0.15148761285E+02  0.70982509943E+02  0.00000000000E+00 0. -1.
          1    1    1    2  501    0  0.40722433252E+02  0.32408780536E+02 -0.98786453615E+02  0.11165755256E+03  0.00000000000E+00 0. -1.
<scales pt_clust_5="13000.00000" pt_clust_6="13000.00000" pt_clust_7="13000.00000" pt_clust_8="13000.00000" pt_clust_9="69.34718" pt_clust_10="13000.00000"></scales>
<clustering>
<clus scale="   69.347">  1  9  2 -1</clus>
<clus scale="   79.896">  5  6 -1 -1</clus>
<clus scale="   85.108">  2  5  1 -1</clus>
<clus scale="   89.584">  7  8 -1 -1</clus>
<clus scale="   32.403">  7 10 -1 -1</clus>
<clus scale="   69.347">  1  5  2 -1</clus>
</clustering>
</event>
<event>
10    4  0.2565852E-005  0.3803052E+03  0.7546771E-02  0.1099397E+00
         21   -1    0    0  503  502  0.00000000000E+00  0.00000000000E+00  0.15984367604E+03  0.15984367604E+03  0.00000000000E+00 0.  1.
          2   -1    0    0  502    0 -0.00000000000E+00 -0.00000000000E+00 -0.58580546341E+03  0.58580546341E+03  0.00000000000E+00 0. -1.
         24    2    1    2    0    0  0.32254312807E+02  0.79985165663E+02  0.11607354650E+02  0.11861642441E+03  0.80604950455E+02 0.  0.
         23    2    1    2    0    0 -0.62242376939E+02  0.83572575028E+02 -0.74707580787E+01  0.13913522555E+03  0.91892926713E+02 0.  0.
        -13    1    3    3    0    0  0.25078621898E+02  0.96273613886E+02  0.49378078916E+01  0.99608874875E+02  0.00000000000E+00 0.  1.
         14    1    3    3    0    0  0.71756909081E+01 -0.16288448223E+02  0.66695467583E+01  0.19007549539E+02  0.00000000000E+00 0. -1.
        -13    1    4    4    0    0 -0.29025484185E+02  0.69094587625E+02 -0.44636142314E+02  0.87229157808E+02  0.00000000000E+00 0. -1.
         13    1    4    4    0    0 -0.33216892754E+02  0.14477987402E+02  0.37165384235E+02  0.51906067745E+02  0.00000000000E+00 0.  1.
         21    1    1    2  503  501  0.37354688963E+01 -0.60544950084E+02 -0.19434230506E+02  0.63697205778E+02  0.00000000000E+00 0.  1.
          1    1    1    2  501    0  0.26252595236E+02 -0.10301279061E+03 -0.41066415343E+03  0.42420028371E+03  0.00000000000E+00 0. -1.
<scales pt_clust_5="13000.00000" pt_clust_6="13000.00000" pt_clust_7="13000.00000" pt_clust_8="13000.00000" pt_clust_9="60.66008" pt_clust_10="13000.00000"></scales>
<clustering>
<clus scale="   60.660">  1  9  2 -1</clus>
<clus scale="   80.605">  5  6 -1 -1</clus>
<clus scale="   91.893">  7  8 -1 -1</clus>
<clus scale="  101.451">  2  5  1 -1</clus>
<clus scale="   83.432">  7 10 -1 -1</clus>
<clus scale="   60.660">  1  5  2 -1</clus>
</clustering>
</event>
<event>
10    4  0.2565852E-005  0.2398275E+03  0.7546771E-02  0.1144728E+00
         21   -1    0    0  503  502  0.00000000000E+00  0.00000000000E+00  0.81707990436E+02  0.81707990436E+02  0.00000000000E+00 0.  1.
         -1   -1    0    0    0  501 -0.00000000000E+00 -0.00000000000E+00 -0.51233323025E+03  0.51233323025E+03  0.00000000000E+00 0.  1.
         24    2    1    2    0    0  0.63865196906E+02  0.73521594442E+02 -0.67192402315E+02  0.13744241533E+03  0.69938618636E+02 0.  0.
         23    2    1    2    0    0 -0.50001371574E+02  0.31239281572E+02 -0.11696083706E+03  0.16135718599E+03  0.94235206754E+02 0.  0.
        -11    1    3    3    0    0  0.71580664564E+02  0.48683504007E+02 -0.69938355922E+02  0.11128903239E+03  0.00000000000E+00 0.  1.
         12    1    3    3    0    0 -0.77154676585E+01  0.24838090435E+02  0.27459536072E+01  0.26153382933E+02  0.00000000000E+00 0. -1.
        -11    1    4    4    0    0 -0.77332666841E+02  0.31570262113E+02 -0.82880153672E+02  0.11766963365E+03  0.00000000000E+00 0.  1.
         11    1    4    4    0    0  0.27331295267E+02 -0.33098054168E+00 -0.34080683386E+02  0.43687552337E+02  0.00000000000E+00 0. -1.
         21    1    1    2  503  501  0.15163614049E+02  0.23859629133E+02 -0.26332128927E+02  0.38634157260E+02  0.00000000000E+00 0.  1.
         -2    1    1    2    0  502 -0.29027439381E+02 -0.12862050515E+03 -0.22013987151E+03  0.25660746211E+03  0.00000000000E+00 0.  1.
<scales pt_clust_5="13000.00000" pt_clust_6="13000.00000" pt_clust_7="13000.00000" pt_clust_8="13000.00000" pt_clust_9="28.27043" pt_clust_10="13000.00000"></scales>
<clustering>
<clus scale="   28.270">  1  9  2 -1</clus>
<clus scale="   69.939">  5  6 -1 -1</clus>
<clus scale="   94.235">  7  8 -1 -1</clus>
<clus scale="  125.454">  7 10 -1 -1</clus>
<clus scale="  130.689">  2  5  1 -1</clus>
<clus scale="   28.270">  1  5  2 -1</clus>
</clustering>
</event>
<event>
10    4  0.2565852E-005  0.6168215E+03  0.7546771E-02  0.1022598E+00
         21   -1    0    0  501  502  0.00000000000E+00  0.00000000000E+00  0.22904778243E+04  0.22904778243E+04  0.00000000000E+00 0.  1.
          2   -1    0    0  503    0 -0.00000000000E+00 -0.00000000000E+00 -0.95495724928E+02  0.95495724928E+02  0.00000000000E+00 0. -1.
         24    2    1    2    0    0 -0.14370998561E+03  0.13663166116E+03  0.10953995608E+04  0.11159552495E+04  0.78327200406E+02 0.  0.
         23    2    1    2    0    0  0.31317747234E+03  0.42030949336E+02  0.80184122872E+03  0.86626060564E+03  0.87243056555E+02 0.  0.
        -11    1    3    3    0    0 -0.12139738516E+03  0.14523330276E+03  0.97081479293E+03  0.98909625393E+03  0.00000000000E+00 0.  1.
         12    1    3    3    0    0 -0.22312600454E+02 -0.86016416010E+01  0.12458476787E+03  0.12685899559E+03  0.00000000000E+00 0. -1.
        -13    1    4    4    0    0  0.37726725741E+02 -0.22598304341E+02  0.13142615031E+03  0.13858867984E+03  0.00000000000E+00 0.  1.
         13    1    4    4    0    0  0.27545074660E+03  0.64629253677E+02  0.67041507842E+03  0.72767192580E+03  0.00000000000E+00 0. -1.
         21    1    1    2  503  502  0.14531220031E+02 -0.14751193432E+02  0.50987206607E+02  0.55031348347E+02  0.00000000000E+00 0. -1.
          1    1    1    2  501    0 -0.18399870675E+03 -0.16391141706E+03  0.24675410320E+03  0.34872634569E+03  0.00000000000E+00 0. -1.
<scales pt_clust_5="13000.00000" pt_clust_6="13000.00000" pt_clust_7="13000.00000" pt_clust_8="13000.00000" pt_clust_9="20.70638" pt_clust_10="13000.00000"></scales>
<clustering>
<clus scale="   20.706">  1  9  2 -1</clus>
<clus scale="   78.327">  5  6 -1 -1</clus>
<clus scale="   87.243">  7  8 -1 -1</clus>
<clus scale="  203.727">  2  5  1 -1</clus>
<clus scale="  278.654">  7 10 -1 -1</clus>
<clus scale="   20.706">  1  5  2 -1</clus>
</clustering>
</event>
<event>
10    4  0.2565852E-005  0.4600852E+03  0.7546771E-02  0.1080323E+00
         21   -1    0    0  501  502  0.00000000000E+00  0.00000000000E+00  0.12827017303E+03  0.12827017303E+03  0.00000000000E+00 0. -1.
          2   -1    0    0  503    0 -0.00000000000E+00 -0.00000000000E+00 -0.15169775956E+04  0.15169775956E+04  0.00000000000E+00 0. -1.
         24    2    1    2    0    0  0.40878102554E+02  0.74928426059E+01 -0.27965200467E+03  0.29384204226E+03  0.80067097638E+02 0.  0.
         23    2    1    2    0    0  0.16061395109E+03 -0.34859424355E-01 -0.65041025328E+03  0.67651100507E+03  0.94004254780E+02 0.  0.
        -13    1    3    3    0    0  0.43435058176E+02  0.19638651549E+02 -0.27710018776E+03  0.28117040201E+03  0.00000000000E+00 0.  1.
         14    1    3    3    0    0 -0.25569556219E+01 -0.12145808943E+02 -0.25518169114E+01  0.12671640244E+02  0.00000000000E+00 0. -1.
        -11    1    4    4    0    0 -0.17247517198E+01 -0.22187846336E+02 -0.76514464301E+02  0.79685246695E+02  0.00000000000E+00 0. -1.
         11    1    4    4    0    0  0.16233870281E+03  0.22152986912E+02 -0.57389578897E+03  0.59682575837E+03  0.00000000000E+00 0.  1.
         21    1    1    2  503  502  0.61947476764E+02  0.42382657091E+02  0.56639502002E+02  0.94030913462E+02  0.00000000000E+00 0. -1.
          1    1    1    2  501    0 -0.26343953040E+03 -0.49840640273E+02 -0.51528466665E+03  0.58086380787E+03  0.00000000000E+00 0. -1.
<scales pt_clust_5="13000.00000" pt_clust_6="13000.00000" pt_clust_7="13000.00000" pt_clust_8="13000.00000" pt_clust_9="75.05851" pt_clust_10="13000.00000"></scales>
<clustering>
<clus scale="   75.059">  1  9  2 -1</clus>
<clus scale="   80.067">  5  6 -1 -1</clus>
<clus scale="   94.004">  7  8 -1 -1</clus>
<clus scale="   94.884">  2  5  1 -1</clus>
<clus scale="  208.846">  7 10 -1 -1</clus>
<clus scale="   75.059">  1  5  2 -1</clus>
</clustering>
</event>
<event>
10    4  0.2565852E-005  0.4808595E+03  0.7546771E-02  0.1072934E+00
         -1   -1    0    0    0  501 -0.00000000000E+00  0.00000000000E+00  0.39304746139E+03  0.39304746139E+03  0.00000000000E+00 0.  1.
         21   -1    0    0  503  502  0.00000000000E+00 -0.00000000000E+00 -0.29559625570E+03  0.29559625570E+03  0.00000000000E+00 0.  1.
         24    2    1    2    0    0  0.57128971333E+02  0.77695005174E+01  0.50627289179E+01  0.98226945953E+02  0.79365087938E+02 0.  0.
         23    2    1    2    0    0 -0.10986866500E+03 -0.38190235795E+01  0.31382087224E+03  0.34483384792E+03  0.91329810739E+02 0.  0.
        -13    1    3    3    0    0  0.71606379848E+02 -0.12861620845E+02  0.60522230312E+01  0.73003591208E+02  0.00000000000E+00 0.  1.
         14    1    3    3    0    0 -0.14477408515E+02  0.20631121362E+02 -0.98949411328E+00  0.25223354745E+02  0.00000000000E+00 0. -1.
        -11    1    4    4    0    0 -0.32635050315E+02 -0.29152829106E+02  0.20144336209E+03  0.20614160687E+03  0.00000000000E+00 0.  1.
         11    1    4    4    0    0 -0.77233614685E+02  0.25333805527E+02  0.11237751015E+03  0.13869224105E+03  0.00000000000E+00 0. -1.
         21    1    1    2  503  501  0.19366736947E+02  0.41342846959E+02 -0.65744384979E+02  0.80041399606E+02  0.00000000000E+00 0. -1.
         -2    1    1    2    0  502  0.33372956720E+02 -0.45293323897E+02 -0.15568801049E+03  0.16554152361E+03  0.00000000000E+00 0.  1.
<scales pt_clust_5="13000.00000" pt_clust_6="13000.00000" pt_clust_7="13000.00000" pt_clust_8="13000.00000" pt_clust_9="45.65415" pt_clust_10="13000.00000"></scales>
<clustering>
<clus scale="   45.654">  2  9  1 -1</clus>
<clus scale="   79.365">  5  6 -1 -1</clus>
<clus scale="   91.330">  7  8 -1 -1</clus>
<clus scale="   49.806">  7 10 -1 -1</clus>
<clus scale="  101.545">  1  5  2 -1</clus>
<clus scale="   45.654">  2  5  1 -1</clus>
</clustering>
</event>
<event>
10    4  0.2565852E-005  0.2231752E+03  0.7546771E-02  0.1157312E+00
          2   -1    0    0  502    0 -0.00000000000E+00  0.00000000000E+00  0.38432868743E+03  0.38432868743E+03  0.00000000000E+00 0. -1.
         21   -1    0    0  503  502  0.00000000000E+00 -0.00000000000E+00 -0.27509995664E+03  0.27509995664E+03  0.00000000000E+00 0.  1.
         24    2    1    2    0    0 -0.63533422672E+02 -0.49014012612E+02  0.83452231815E+02  0.15665074077E+03  0.10552871818E+03 0.  0.
         23    2    1    2    0    0  0.75589646470E+02  0.79703126999E+02  0.14365575780E+03  0.19904380645E+03  0.83156942160E+02 0.  0.
        -13    1    3    3    0    0 -0.98160683964E+01  0.31781806400E+02  0.93090284601E+01  0.34541227941E+02  0.00000000000E+00 0.  1.
         14    1    3    3    0    0 -0.53717354275E+02 -0.80795819011E+02  0.74143203354E+02  0.12210951283E+03  0.00000000000E+00 0. -1.
        -11    1    4    4    0    0  0.81803249382E+02  0.45824699242E+02  0.67720963420E+02  0.11566245526E+03  0.00000000000E+00 0.  1.
         11    1    4    4    0    0 -0.62136029122E+01  0.33878427757E+02  0.75934794384E+02  0.83381351191E+02  0.00000000000E+00 0. -1.
         21    1    1    2  503  501  0.54452120203E+02  0.14362004757E+02 -0.18852644578E+03  0.19675751913E+03  0.00000000000E+00 0.  1.
          1    1    1    2  501    0 -0.66508344002E+02 -0.45051119144E+02  0.70647186952E+02  0.10697657773E+03  0.00000000000E+00 0. -1.
<scales pt_clust_5="13000.00000" pt_clust_6="13000.00000" pt_clust_7="13000.00000" pt_clust_8="13000.00000" pt_clust_9="56.31430" pt_clust_10="13000.00000"></scales>
<clustering>
<clus scale="   56.314">  2  9  1 -1</clus>
<clus scale="   83.157">  7  8 -1 -1</clus>
<clus scale="   68.748">  7 10 -1 -1</clus>
<clus scale="  105.529">  5  6 -1 -1</clus>
<clus scale="  120.433">  1  5  2 -1</clus>
<clus scale="   56.314">  2  5  1 -1</clus>
</clustering>
</event>
<event>
10    4  0.2565852E-005  0.4466045E+03  0.7546771E-02  0.1049851E+00
         21   -1    0    0  503  502  0.00000000000E+00  0.00000000000E+00  0.25715729550E+03  0.25715729550E+03  0.00000000000E+00 0. -1.
          2   -1    0    0  502    0 -0.00000000000E+00 -0.00000000000E+00 -0.15217728658E+04  0.15217728658E+04  0.00000000000E+00 0. -1.
         24    2    1    2    0    0 -0.21648261343E+03 -0.60162043547E+01 -0.89741843856E+03  0.92938865866E+03  0.10724974759E+03 0.  0.
         23    2    1    2    0    0  0.93728505736E+02 -0.11768435013E+03 -0.58270661813E+02  0.18549020855E+03  0.91523266922E+02 0.  0.
        -13    1    3    3    0    0 -0.11101431397E+03 -0.46446778981E+02 -0.34071840829E+03  0.36134542329E+03  0.00000000000E+00 0.  1.
         14    1    3    3    0    0 -0.10546829946E+03  0.40430574626E+02 -0.55670003027E+03  0.56804323538E+03  0.00000000000E+00 0. -1.
        -13    1    4    4    0    0  0.45206652944E+02 -0.17231055244E+02 -0.55871052094E+02  0.73906191874E+02  0.00000000000E+00 0.  1.
         13    1    4    4    0    0  0.48521852792E+02 -0.10045329488E+03 -0.23996097195E+01  0.11158401668E+03  0.00000000000E+00 0. -1.
         21    1    1    2  503  501  0.25224116510E+01 -0.22016811878E+02  0.15842185473E+03  0.15996432922E+03  0.00000000000E+00 0. -1.
          1    1    1    2  501    0  0.12023169604E+03  0.14571736636E+03 -0.46734832470E+03  0.50408696490E+03  0.00000000000E+00 0. -1.
<scales pt_clust_5="13000.00000" pt_clust_6="13000.00000" pt_clust_7="13000.00000" pt_clust_8="13000.00000" pt_clust_9="22.16083" pt_clust_10="13000.00000"></scales>
<clustering>
<clus scale="   22.161">  1  9  2 -1</clus>
<clus scale="   91.523">  7  8 -1 -1</clus>
<clus scale="  107.250">  5  6 -1 -1</clus>
<clus scale="  186.057">  7 10 -1 -1</clus>
<clus scale="  241.416">  2  5  1 -1</clus>
<clus scale="   22.161">  1  5  2 -1</clus>
</clustering>
</event>
<event>
10    4  0.2565852E-005  0.1722484E+03  0.7546771E-02  0.1198920E+00
          2   -1    0    0  503    0 -0.00000000000E+00  0.00000000000E+00  0.51476144086E+03  0.51476144086E+03  0.00000000000E+00 0. -1.
         21   -1    0    0  501  502  0.00000000000E+00 -0.00000000000E+00 -0.67053388413E+02  0.67053388413E+02  0.00000000000E+00 0. -1.
         24    2    1    2    0    0  0.52274378842E+02  0.27091898413E+02  0.20781693094E+03  0.23107670490E+03  0.82109592114E+02 0.  0.
         23    2    1    2    0    0 -0.89814141437E+02 -0.25964595025E+02  0.26171860847E+03  0.29178512999E+03  0.88888648683E+02 0.  0.
        -13    1    3    3    0    0  0.20435375961E+02 -0.26816086513E+02  0.10900392060E+03  0.11409891232E+03  0.00000000000E+00 0.  1.
         14    1    3    3    0    0  0.31839002881E+02  0.53907984926E+02  0.98813010337E+02  0.11697779257E+03  0.00000000000E+00 0. -1.
        -11    1    4    4    0    0 -0.93800409924E+02 -0.46666487213E+02  0.23807355853E+03  0.26010631904E+03  0.00000000000E+00 0. -1.
         11    1    4    4    0    0  0.39862684866E+01  0.20701892188E+02  0.23645049938E+02  0.31678810950E+02  0.00000000000E+00 0.  1.
         21    1    1    2  503  502  0.14996135162E+02 -0.13895512316E+02 -0.25610508060E+02  0.32769916927E+02  0.00000000000E+00 0. -1.
          1    1    1    2  501    0  0.22543627433E+02  0.12768208928E+02  0.37830211010E+01  0.26183077469E+02  0.00000000000E+00 0. -1.
<scales pt_clust_5="13000.00000" pt_clust_6="13000.00000" pt_clust_7="13000.00000" pt_clust_8="13000.00000" pt_clust_9="20.44430" pt_clust_10="13000.00000"></scales>
<clustering>
<clus scale="   20.444">  2  9  1 -1</clus>
<clus scale="   82.110">  5  6 -1 -1</clus>
<clus scale="   88.889">  7  8 -1 -1</clus>
<clus scale="   28.335">  7 10 -1 -1</clus>
<clus scale="  102.461">  1  5  2 -1</clus>
<clus scale="   20.444">  2  5  1 -1</clus>
</clustering>
</event>
<event>
10    4  0.2565852E-005  0.1917970E+03  0.7546771E-02  0.1168442E+00
         21   -1    0    0  503  502  0.00000000000E+00  0.00000000000E+00  0.11669749332E+03  0.11669749332E+03  0.00000000000E+00 0. -1.
          2   -1    0    0  502    0 -0.00000000000E+00 -0.00000000000E+00 -0.93703549367E+03  0.93703549367E+03  0.00000000000E+00 0. -1.
         24    2    1    2    0    0  0.10006735113E+03  0.47363395627E+02 -0.96982321464E+02  0.16804122991E+03  0.81089569400E+02 0.  0.
         23    2    1    2    0    0 -0.48014442069E+02  0.33221418440E+02 -0.52295694695E+03  0.53431324499E+03  0.92723384995E+02 0.  0.
        -11    1    3    3    0    0  0.64524216365E+02  0.47209285847E+02 -0.10463465126E+03  0.13168333764E+03  0.00000000000E+00 0.  1.
         12    1    3    3    0    0  0.35543134769E+02  0.15410978085E+00  0.76523297978E+01  0.36357892271E+02  0.00000000000E+00 0. -1.
        -13    1    4    4    0    0 -0.55285506406E+02 -0.17237652102E+02 -0.30766235971E+03  0.31306509139E+03  0.00000000000E+00 0.  1.
         13    1    4    4    0    0  0.72710643370E+01  0.50459070543E+02 -0.21529458724E+03  0.22124815360E+03  0.00000000000E+00 0. -1.
         21    1    1    2  503  501  0.29807734813E+02 -0.65168737720E+02  0.50070054839E+02  0.87421254980E+02  0.00000000000E+00 0. -1.
          1    1    1    2  501    0 -0.81860643879E+02 -0.15416076348E+02 -0.25046878678E+03  0.26395725710E+03  0.00000000000E+00 0. -1.
<scales pt_clust_5="13000.00000" pt_clust_6="13000.00000" pt_clust_7="13000.00000" pt_clust_8="13000.00000" pt_clust_9="71.66216" pt_clust_10="13000.00000"></scales>
<clustering>
<clus scale="   71.662">  1  9  2 -1</clus>
<clus scale="   81.090">  5  6 -1 -1</clus>
<clus scale="   92.723">  7  8 -1 -1</clus>
<clus scale="   81.466">  7 10 -1 -1</clus>
<clus scale="  146.621">  2  5  1 -1</clus>
<clus scale="   71.662">  1  5  2 -1</clus>
</clustering>
</event>
<event>
10    4  0.2565852E-005  0.3646984E+03  0.7546771E-02  0.1077323E+00
          2   -1    0    0  502    0 -0.00000000000E+00  0.00000000000E+00  0.23495159732E+04  0.23495159732E+04  0.00000000000E+00 0. -1.
         21   -1    0    0  503  502  0.00000000000E+00 -0.00000000000E+00 -0.84278011587E+02  0.84278011587E+02  0.00000000000E+00 0. -1.
         24    2    1    2    0    0 -0.15991195498E+03 -0.38318853088E+01  0.75948962998E+03  0.78047245522E+03  0.82013648929E+02 0.  0.
         23    2    1    2    0    0  0.12099384225E+03  0.10858790719E+03  0.62805564093E+03  0.65467321792E+03  0.87819648820E+02 0.  0.
        -11    1    3    3    0    0 -0.83774322163E+02 -0.39136579059E+02  0.47254606558E+03  0.48150762504E+03  0.00000000000E+00 0.  1.
         12    1    3    3    0    0 -0.76137632822E+02  0.35304693751E+02  0.28694356440E+03  0.29896483018E+03  0.00000000000E+00 0. -1.
        -11    1    4    4    0    0  0.50534420741E+02  0.66171921106E+02  0.46114367869E+03  0.46859998210E+03  0.00000000000E+00 0.  1.
         11    1    4    4    0    0  0.70459421513E+02  0.42415986082E+02  0.16691196223E+03  0.18607323583E+03  0.00000000000E+00 0. -1.
         21    1    1    2  503  501 -0.11132102029E+03  0.75104533960E+02  0.58292643234E+02  0.14639362293E+03  0.00000000000E+00 0. -1.
          1    1    1    2  501    0  0.15023913302E+03 -0.17986055584E+03  0.81940004751E+03  0.85225468875E+03  0.00000000000E+00 0. -1.
<scales pt_clust_5="13000.00000" pt_clust_6="13000.00000" pt_clust_7="13000.00000" pt_clust_8="13000.00000" pt_clust_9="134.28723" pt_clust_10="13000.00000"></scales>
<clustering>
<clus scale="   82.014">  5  6 -1 -1</clus>
<clus scale="   87.820">  7  8 -1 -1</clus>
<clus scale="  134.287">  2  9  1 -1</clus>
<clus scale="  182.310">  7 10 -1 -1</clus>
<clus scale="  206.578">  1  5  2 -1</clus>
<clus scale="  134.287">  2  5  1 -1</clus>
</clustering>
</event>
<event>
10    4  0.2565852E-005  0.4130940E+03  0.7546771E-02  0.1092548E+00
          2   -1    0    0  502    0 -0.00000000000E+00  0.00000000000E+00  0.42410863526E+03  0.42410863526E+03  0.00000000000E+00 0. -1.
         21   -1    0    0  503  502  0.00000000000E+00 -0.00000000000E+00 -0.38998234650E+03  0.38998234650E+03  0.00000000000E+00 0. -1.
         24    2    1    2    0    0 -0.40175593515E+02 -0.32608836299E+02 -0.22117687375E+03  0.24133153451E+03  0.81512487077E+02 0.  0.
         23    2    1    2    0    0 -0.12163428656E+03 -0.11003524925E+03  0.22643106859E+03  0.29421930776E+03  0.91604129197E+02 0.  0.
        -13    1    3    3    0    0 -0.20257245790E+02 -0.42614168713E+02 -0.50146945972E+02  0.68855207301E+02  0.00000000000E+00 0.  1.
         14    1    3    3    0    0 -0.19918347725E+02  0.10005332414E+02 -0.17102992778E+03  0.17247632721E+03  0.00000000000E+00 0. -1.
        -11    1    4    4    0    0 -0.73308303577E+02 -0.79418310194E+01  0.10580468186E+03  0.12896437786E+03  0.00000000000E+00 0. -1.
         11    1    4    4    0    0 -0.48325982985E+02 -0.10209341823E+03  0.12062638673E+03  0.16525492989E+03  0.00000000000E+00 0.  1.
         21    1    1    2  503  501 -0.94680034348E+01  0.30171410402E+02 -0.49849405411E+02  0.59033213656E+02  0.00000000000E+00 0. -1.
          1    1    1    2  501    0  0.17127788351E+03  0.11247267515E+03  0.78721499320E+02  0.21950692584E+03  0.00000000000E+00 0. -1.
<scales pt_clust_5="13000.00000" pt_clust_6="13000.00000" pt_clust_7="13000.00000" pt_clust_8="13000.00000" pt_clust_9="31.62210" pt_clust_10="13000.00000"></scales>
<clustering>
<clus scale="   31.622">  2  9  1 -1</clus>
<clus scale="   81.512">  5  6 -1 -1</clus>
<clus scale="   91.604">  7  8 -1 -1</clus>
<clus scale="   94.683">  1  5  2 -1</clus>
<clus scale="  190.172">  7 10 -1 -1</clus>
<clus scale="   31.622">  2  5  1 -1</clus>
</clustering>
</event>
<event>
10    4  0.3243344E-005  0.4704284E+03  0.7546771E-02  0.1057410E+00
          2   -1    0    0  502    0 -0.00000000000E+00  0.00000000000E+00  0.18222217729E+04  0.18222217729E+04  0.00000000000E+00 0. -1.
         21   -1    0    0  503  502  0.00000000000E+00 -0.00000000000E+00 -0.13005116068E+03  0.13005116068E+03  0.00000000000E+00 0. -1.
         24    2    1    2    0    0 -0.28404775082E+02 -0.14654865783E+03  0.12607511669E+04  0.12719104321E+04  0.77325947198E+02 0.  0.
         23    2    1    2    0    0 -0.39263966288E+02 -0.10533042678E+03  0.37603084735E+03  0.40213062772E+03  0.87599576127E+02 0.  0.
        -13    1    3    3    0    0 -0.20582955401E+02 -0.37106017698E+02  0.15416657221E+03  0.15989948902E+03  0.00000000000E+00 0.  1.
         14    1    3    3    0    0 -0.78218196815E+01 -0.10944264013E+03  0.11065845946E+04  0.11120109430E+04  0.00000000000E+00 0. -1.
        -11    1    4    4    0    0 -0.51829084007E+02 -0.36834341102E+02  0.10921108662E+03  0.12637279800E+03  0.00000000000E+00 0. -1.
         11    1    4    4    0    0  0.12565117719E+02 -0.68496085681E+02  0.26681976073E+03  0.27575782972E+03  0.00000000000E+00 0.  1.
         21    1    1    2  503  501  0.13612411419E+02  0.26555357608E+02 -0.18390158352E+02  0.35052570327E+02  0.00000000000E+00 0. -1.
          1    1    1    2  501    0  0.54056329952E+02  0.22532372700E+03  0.73778756402E+02  0.24317930351E+03  0.00000000000E+00 0. -1.
<scales pt_clust_5="13000.00000" pt_clust_6="13000.00000" pt_clust_7="13000.00000" pt_clust_8="13000.00000" pt_clust_9="29.84099" pt_clust_10="13000.00000"></scales>
<clustering>
<clus scale="   29.841">  2  9  1 -1</clus>
<clus scale="   77.326">  5  6 -1 -1</clus>
<clus scale="   87.600">  7  8 -1 -1</clus>
<clus scale="  166.743">  1  5  2 -1</clus>
<clus scale="  204.739">  7 10 -1 -1</clus>
<clus scale="   29.841">  2  5  1 -1</clus>
</clustering>
</event>
<event>
10    4  0.2565852E-005  0.3670490E+03  0.7546771E-02  0.1111211E+00
         21   -1    0    0  501  502  0.00000000000E+00  0.00000000000E+00  0.30974272188E+03  0.30974272188E+03  0.00000000000E+00 0. -1.
         -1   -1    0    0    0  501 -0.00000000000E+00 -0.00000000000E+00 -0.29421759915E+03  0.29421759915E+03  0.00000000000E+00 0.  1.
         24    2    1    2    0    0  0.13410548537E+02  0.17232595961E+02 -0.70968168264E+02  0.10943298377E+03  0.80388381346E+02 0.  0.
         23    2    1    2    0    0  0.85446328041E+01  0.12383027848E+03  0.15635423717E+03  0.21931096280E+03  0.90794836328E+02 0.  0.
        -11    1    3    3    0    0  0.23774231808E+02  0.44386798843E+02 -0.60093616238E+02  0.78400540318E+02  0.00000000000E+00 0.  1.
         12    1    3    3    0    0 -0.10363683271E+02 -0.27154202882E+02 -0.10874552026E+02  0.31032443456E+02  0.00000000000E+00 0. -1.
        -13    1    4    4    0    0  0.28314847510E+02  0.40489201006E+02  0.11031677033E+02  0.50624143309E+02  0.00000000000E+00 0.  1.
         13    1    4    4    0    0 -0.19770214706E+02  0.83341077477E+02  0.14532256014E+03  0.16868681949E+03  0.00000000000E+00 0. -1.
         21    1    1    2  503  502 -0.74299603606E+02 -0.93078618731E+02  0.55304135388E+02  0.13131111054E+03  0.00000000000E+00 0.  1.
         -2    1    1    2    0  503  0.52344422264E+02 -0.47984255712E+02 -0.12516508157E+03  0.14390526392E+03  0.00000000000E+00 0.  1.
<scales pt_clust_5="13000.00000" pt_clust_6="13000.00000" pt_clust_7="13000.00000" pt_clust_8="13000.00000" pt_clust_9="115.02967" pt_clust_10="13000.00000"></scales>
<clustering>
<clus scale="   80.388">  5  6 -1 -1</clus>
<clus scale="   83.301">  2  5  1 -1</clus>
<clus scale="   90.795">  7  8 -1 -1</clus>
<clus scale="   71.309">  7 10 -1 -1</clus>
<clus scale="  115.030">  1  9  2 -1</clus>
<clus scale="  115.030">  1  5  2 -1</clus>
</clustering>
</event>
<event>
10    4  0.1008253E-004  0.2006660E+03  0.7546771E-02  0.1181140E+00
          2   -1    0    0  502    0 -0.00000000000E+00  0.00000000000E+00  0.86960069516E+03  0.86960069516E+03  0.00000000000E+00 0. -1.
         21   -1    0    0  503  502  0.00000000000E+00 -0.00000000000E+00 -0.42360605910E+03  0.42360605910E+03  0.00000000000E+00 0. -1.
         24    2    1    2    0    0  0.23625541989E+02 -0.44864105645E+02  0.12633358060E+03  0.15866123069E+03  0.81500051087E+02 0.  0.
         23    2    1    2    0    0  0.75748296208E+02  0.78166835536E+01  0.40519424210E+03  0.42364604597E+03  0.97440717952E+02 0.  0.
        -13    1    3    3    0    0 -0.13464586384E+01  0.21813226381E+02  0.48370169649E+02  0.53078273407E+02  0.00000000000E+00 0.  1.
         14    1    3    3    0    0  0.24972000628E+02 -0.66677332026E+02  0.77963410954E+02  0.10558295729E+03  0.00000000000E+00 0. -1.
        -13    1    4    4    0    0 -0.22319647009E+02 -0.91538149662E+01  0.76224927652E+02  0.79951226173E+02  0.00000000000E+00 0.  1.
         13    1    4    4    0    0  0.98067943217E+02  0.16970498520E+02  0.32896931445E+03  0.34369481980E+03  0.00000000000E+00 0. -1.
         21    1    1    2  503  501 -0.68633676519E+02  0.77768265185E+02 -0.38929838462E+03  0.40287928328E+03  0.00000000000E+00 0. -1.
          1    1    1    2  501    0 -0.30740161677E+02 -0.40720843093E+02  0.30376519799E+03  0.30802019432E+03  0.00000000000E+00 0. -1.
<scales pt_clust_5="13000.00000" pt_clust_6="13000.00000" pt_clust_7="13000.00000" pt_clust_8="13000.00000" pt_clust_9="103.26303" pt_clust_10="13000.00000"></scales>
<clustering>
<clus scale="   81.500">  5  6 -1 -1</clus>
<clus scale="   95.985">  1  5  2 -1</clus>
<clus scale="   97.441">  7  8 -1 -1</clus>
<clus scale="   63.121">  7 10 -1 -1</clus>
<clus scale="  103.263">  2  9  1 -1</clus>
<clus scale="  103.263">  2  5  1 -1</clus>
</clustering>
</event>
<event>
10    4  0.2565852E-005  0.3512620E+03  0.7546771E-02  0.1089879E+00
         21   -1    0    0  501  502  0.00000000000E+00  0.00000000000E+00  0.60944208760E+02  0.60944208760E+02  0.00000000000E+00 0. -1.
          2   -1    0    0  503    0 -0.00000000000E+00 -0.00000000000E+00 -0.14803197151E+04  0.14803197151E+04  0.00000000000E+00 0. -1.
         24    2    1    2    0    0  0.54063891097E+02 -0.12530766105E+03 -0.58921022629E+03  0.61043375183E+03  0.82678657278E+02 0.  0.
         23    2    1    2    0    0 -0.16092145129E+03 -0.58330501832E+00 -0.24890056934E+03  0.30948620732E+03  0.89073932068E+02 0.  0.
        -11    1    3    3    0    0 -0.78760013023E+01 -0.83674474534E+02 -0.34398887375E+03  0.35410703798E+03  0.00000000000E+00 0.  1.
         12    1    3    3    0    0  0.61939892400E+02 -0.41633186520E+02 -0.24522135254E+03  0.25632671385E+03  0.00000000000E+00 0. -1.
        -13    1    4    4    0    0 -0.77526772133E+02 -0.33980924185E+02 -0.17006286576E+03  0.18996442277E+03  0.00000000000E+00 0.  1.
         13    1    4    4    0    0 -0.83394679156E+02  0.33397619167E+02 -0.78837703580E+02  0.11952178456E+03  0.00000000000E+00 0. -1.
         21    1    1    2  503  502  0.49451255941E+02 -0.12097222739E+02 -0.58091256736E+02  0.77242239878E+02  0.00000000000E+00 0.  1.
          1    1    1    2  501    0  0.57406304251E+02  0.13798818881E+03 -0.52317345394E+03  0.54410172479E+03  0.00000000000E+00 0. -1.
<scales pt_clust_5="13000.00000" pt_clust_6="13000.00000" pt_clust_7="13000.00000" pt_clust_8="13000.00000" pt_clust_9="50.90942" pt_clust_10="13000.00000"></scales>
<clustering>
<clus scale="   50.909">  1  9  2 -1</clus>
<clus scale="   82.679">  5  6 -1 -1</clus>
<clus scale="   89.074">  7  8 -1 -1</clus>
<clus scale="  151.394">  7 10 -1 -1</clus>
<clus scale="  165.234">  2  5  1 -1</clus>
<clus scale="   50.909">  1  5  2 -1</clus>
</clustering>
</event>
<event>
10    4  0.2565852E-005  0.1606209E+03  0.7546771E-02  0.1197255E+00
         21   -1    0    0  503  502  0.00000000000E+00  0.00000000000E+00  0.12812692388E+04  0.12812692388E+04  0.00000000000E+00 0.  1.
         -3   -1    0    0    0  501 -0.00000000000E+00 -0.00000000000E+00 -0.37029119371E+02  0.37029119371E+02  0.00000000000E+00 0.  1.
         24    2    1    2    0    0  0.94197987700E+02 -0.52967529459E+02  0.59112566541E+03  0.60664325431E+03  0.83112367504E+02 0.  0.
         23    2    1    2    0    0 -0.76606370570E+02  0.43911923983E+01  0.20892614440E+03  0.24000337528E+03  0.89797927306E+02 0.  0.
        -11    1    3    3    0    0  0.95278621948E+02 -0.53092756634E+02  0.37564499930E+03  0.39115984215E+03  0.00000000000E+00 0.  1.
         12    1    3    3    0    0 -0.10806342485E+01  0.12522717428E+00  0.21548066611E+03  0.21548341217E+03  0.00000000000E+00 0. -1.
        -11    1    4    4    0    0 -0.88732465263E+02  0.26583671989E+02  0.15821202246E+03  0.18333353773E+03  0.00000000000E+00 0.  1.
         11    1    4    4    0    0  0.12126094693E+02 -0.22192479591E+02  0.50714121948E+02  0.56669837549E+02  0.00000000000E+00 0. -1.
         21    1    1    2  503  501  0.10186697971E+02  0.75235288483E+02  0.41858537393E+03  0.42541489480E+03  0.00000000000E+00 0.  1.
         -4    1    1    2    0  502 -0.27778315101E+02 -0.26658951422E+02  0.25602935650E+02  0.46236833744E+02  0.00000000000E+00 0.  1.
<scales pt_clust_5="13000.00000" pt_clust_6="13000.00000" pt_clust_7="13000.00000" pt_clust_8="13000.00000" pt_clust_9="75.92179" pt_clust_10="13000.00000"></scales>
<clustering>
<clus scale="   75.922">  1  9  2 -1</clus>
<clus scale="   83.112">  5  6 -1 -1</clus>
<clus scale="   89.798">  7  8 -1 -1</clus>
<clus scale="   36.070">  7 10 -1 -1</clus>
<clus scale="  131.031">  2  5  1 -1</clus>
<clus scale="   75.922">  1  5  2 -1</clus>
</clustering>
</event>
<event>
10    4  0.2565852E-005  0.8206931E+03  0.7546771E-02  0.1016707E+00
         21   -1    0    0  503  502  0.00000000000E+00  0.00000000000E+00  0.27679730844E+03  0.27679730844E+03  0.00000000000E+00 0.  1.
          4   -1    0    0  502    0 -0.00000000000E+00 -0.00000000000E+00 -0.85717068081E+03  0.85717068081E+03  0.00000000000E+00 0. -1.
         24    2    1    2    0    0  0.55552115799E+02 -0.38841720829E+02 -0.66598694477E+02  0.12506046080E+03  0.81302004297E+02 0.  0.
         23    2    1    2    0    0  0.32645729213E+03 -0.17443466520E+03 -0.39478835056E+03  0.54892293276E+03  0.91960471757E+02 0.  0.
        -11    1    3    3    0    0  0.21898754084E+02  0.16934571712E+02  0.51428506682E+01  0.28156421337E+02  0.00000000000E+00 0.  1.
         12    1    3    3    0    0  0.33653361715E+02 -0.55776292541E+02 -0.71741545145E+02  0.96904039462E+02  0.00000000000E+00 0. -1.
        -11    1    4    4    0    0  0.28686518995E+03 -0.17328043115E+03 -0.37992526058E+03  0.50661716181E+03  0.00000000000E+00 0.  1.
         11    1    4    4    0    0  0.39592102182E+02 -0.11542340512E+01 -0.14863089984E+02  0.42305770946E+02  0.00000000000E+00 0. -1.
         21    1    1    2  503  501 -0.29890859695E+02  0.16444225367E+02  0.11508271518E+02  0.36004393545E+02  0.00000000000E+00 0.  1.
          3    1    1    2  501    0 -0.35211854823E+03  0.19683216066E+03 -0.13049459885E+03  0.42398020214E+03  0.00000000000E+00 0. -1.
<scales pt_clust_5="13000.00000" pt_clust_6="13000.00000" pt_clust_7="13000.00000" pt_clust_8="13000.00000" pt_clust_9="34.11563" pt_clust_10="13000.00000"></scales>
<clustering>
<clus scale="   34.116">  1  9  2 -1</clus>
<clus scale="   81.302">  5  6 -1 -1</clus>
<clus scale="   91.960">  7  8 -1 -1</clus>
<clus scale="  103.388">  2  5  1 -1</clus>
<clus scale="  397.268">  7 10 -1 -1</clus>
<clus scale="   34.116">  1  5  2 -1</clus>
</clustering>
</event>
<event>
10    4  0.2565852E-005  0.2264210E+03  0.7546771E-02  0.1171248E+00
          2   -1    0    0  502    0 -0.00000000000E+00  0.00000000000E+00  0.52519936086E+03  0.52519936086E+03  0.00000000000E+00 0. -1.
         21   -1    0    0  503  502  0.00000000000E+00 -0.00000000000E+00 -0.86030014033E+02  0.86030014033E+02  0.00000000000E+00 0. -1.
         24    2    1    2    0    0 -0.12115760162E+02  0.20032662703E+02  0.10768238711E+03  0.13631094589E+03  0.80231404435E+02 0.  0.
         23    2    1    2    0    0 -0.75521423173E+02 -0.11069039405E+03  0.20995021842E+03  0.26431277618E+03  0.88466381994E+02 0.  0.
        -11    1    3    3    0    0 -0.40528244528E+02 -0.80963736386E+01  0.70449918612E+02  0.81677909517E+02  0.00000000000E+00 0.  1.
         12    1    3    3    0    0  0.28412484366E+02  0.28129036342E+02  0.37232468497E+02  0.54633036377E+02  0.00000000000E+00 0. -1.
        -13    1    4    4    0    0 -0.22319600374E+02  0.12670334234E+00  0.15682858660E+01  0.22374989054E+02  0.00000000000E+00 0.  1.
         13    1    4    4    0    0 -0.53201822799E+02 -0.11081709739E+03  0.20838193255E+03  0.24193778712E+03  0.00000000000E+00 0. -1.
         21    1    1    2  503  501  0.14970578980E+02  0.91383184968E+02  0.38569006643E+02  0.10031237712E+03  0.00000000000E+00 0. -1.
          1    1    1    2  501    0  0.72666604355E+02 -0.72545361914E+00  0.82967734656E+02  0.11029327570E+03  0.00000000000E+00 0. -1.
<scales pt_clust_5="13000.00000" pt_clust_6="13000.00000" pt_clust_7="13000.00000" pt_clust_8="13000.00000" pt_clust_9="95.70447" pt_clust_10="13000.00000"></scales>
<clustering>
<clus scale="   80.231">  5  6 -1 -1</clus>
<clus scale="   83.577">  1  5  2 -1</clus>
<clus scale="   88.466">  7  8 -1 -1</clus>
<clus scale="   69.882">  7 10 -1 -1</clus>
<clus scale="   95.704">  2  9  1 -1</clus>
<clus scale="   95.704">  2  5  1 -1</clus>
</clustering>
</event>
<event>
10    4  0.2565852E-005  0.2977776E+03  0.7546771E-02  0.1135605E+00
         21   -1    0    0  503  502  0.00000000000E+00  0.00000000000E+00  0.54683577396E+02  0.54683577396E+02  0.00000000000E+00 0.  1.
          2   -1    0    0  502    0 -0.00000000000E+00 -0.00000000000E+00 -0.11154288887E+04  0.11154288887E+04  0.00000000000E+00 0. -1.
         24    2    1    2    0    0  0.28274516981E+02  0.27567349245E+01 -0.59086204249E+03  0.59700865645E+03  0.80587435308E+02 0.  0.
         23    2    1    2    0    0  0.99038473089E+02  0.60634503143E+02 -0.14790997926E+03  0.20859773462E+03  0.90280068673E+02 0.  0.
        -11    1    3    3    0    0  0.20075331814E+02  0.24238196449E+02 -0.85247704337E+02  0.90871778948E+02  0.00000000000E+00 0.  1.
         12    1    3    3    0    0  0.81991851669E+01 -0.21481461525E+02 -0.50561433815E+03  0.50613687750E+03  0.00000000000E+00 0. -1.
        -13    1    4    4    0    0  0.90900204478E+02  0.34252748875E+02 -0.54907221734E+02  0.11158360533E+03  0.00000000000E+00 0.  1.
         13    1    4    4    0    0  0.81382686113E+01  0.26381754268E+02 -0.93002757524E+02  0.97014129287E+02  0.00000000000E+00 0. -1.
         21    1    1    2  503  501 -0.18397498385E+02  0.95587198077E+01 -0.47576459484E+01  0.21271395491E+02  0.00000000000E+00 0. -1.
          1    1    1    2  501    0 -0.10891549169E+03 -0.72949957875E+02 -0.31721564356E+03  0.34323467949E+03  0.00000000000E+00 0. -1.
<scales pt_clust_5="13000.00000" pt_clust_6="13000.00000" pt_clust_7="13000.00000" pt_clust_8="13000.00000" pt_clust_9="20.73251" pt_clust_10="13000.00000"></scales>
<clustering>
<clus scale="   20.733">  1  9  2 -1</clus>
<clus scale="   80.587">  5  6 -1 -1</clus>
<clus scale="   85.076">  2  5  1 -1</clus>
<clus scale="   90.280">  7  8 -1 -1</clus>
<clus scale="  117.772">  7 10 -1 -1</clus>
<clus scale="   20.733">  1  5  2 -1</clus>
</clustering>
</event>
<event>
10    4  0.2565852E-005  0.6295766E+03  0.7546771E-02  0.9864822E-01
          2   -1    0    0  502    0 -0.00000000000E+00  0.00000000000E+00  0.17262400360E+04  0.17262400360E+04  0.00000000000E+00 0. -1.
         21   -1    0    0  503  502  0.00000000000E+00 -0.00000000000E+00 -0.25252752315E+03  0.25252752315E+03  0.00000000000E+00 0. -1.
         24    2    1    2    0    0  0.49879690559E+03  0.32033078984E+03  0.89163023358E+03  0.10737732259E+04  0.81082052421E+02 0.  0.
         23    2    1    2    0    0 -0.47116105721E+02 -0.88885448219E+02  0.13178434064E+03  0.18696063691E+03  0.86409588538E+02 0.  0.
        -13    1    3    3    0    0  0.21652499556E+03  0.14858450907E+03  0.46657573343E+03  0.53540017283E+03  0.00000000000E+00 0.  1.
         14    1    3    3    0    0  0.28227191002E+03  0.17174628077E+03  0.42505450016E+03  0.53837305305E+03  0.00000000000E+00 0. -1.
        -13    1    4    4    0    0 -0.15929896303E+02 -0.96883528380E+02  0.83297017864E+02  0.12875780696E+03  0.00000000000E+00 0.  1.
         13    1    4    4    0    0 -0.31186209418E+02  0.79980801608E+01  0.48487322774E+02  0.58202829947E+02  0.00000000000E+00 0. -1.
         21    1    1    2  503  501 -0.35099628860E+02  0.24698849357E+02 -0.12533737280E+02  0.44711426681E+02  0.00000000000E+00 0.  1.
          1    1    1    2  501    0 -0.41658117101E+03 -0.25614419098E+03  0.46283167588E+03  0.67332226965E+03  0.00000000000E+00 0. -1.
<scales pt_clust_5="13000.00000" pt_clust_6="13000.00000" pt_clust_7="13000.00000" pt_clust_8="13000.00000" pt_clust_9="42.91873" pt_clust_10="13000.00000"></scales>
<clustering>
<clus scale="   42.919">  2  9  1 -1</clus>
<clus scale="   81.082">  5  6 -1 -1</clus>
<clus scale="   86.410">  7  8 -1 -1</clus>
<clus scale="  497.348">  7 10 -1 -1</clus>
<clus scale="  592.016">  1  5  2 -1</clus>
<clus scale="   42.919">  2  5  1 -1</clus>
</clustering>
</event>
<event>
10    4  0.2565852E-005  0.2179163E+03  0.7546771E-02  0.1172598E+00
         21   -1    0    0  503  502  0.00000000000E+00  0.00000000000E+00  0.95811459846E+02  0.95811459846E+02  0.00000000000E+00 0.  1.
         -1   -1    0    0    0  501 -0.00000000000E+00 -0.00000000000E+00 -0.41813858813E+03  0.41813858813E+03  0.00000000000E+00 0.  1.
         24    2    1    2    0    0 -0.33307012892E+02 -0.12374726438E+00 -0.89000174010E+02  0.12419317799E+03  0.79959627715E+02 0.  0.
         23    2    1    2    0    0 -0.42662405445E+02  0.65267084510E+02 -0.78796337765E+02  0.14456857694E+03  0.92797292166E+02 0.  0.
        -13    1    3    3    0    0 -0.23033751896E+02 -0.36705763168E+02 -0.68398100795E+02  0.80970160976E+02  0.00000000000E+00 0.  1.
         14    1    3    3    0    0 -0.10273260996E+02  0.36582015903E+02 -0.20602073214E+02  0.43223017014E+02  0.00000000000E+00 0. -1.
        -11    1    4    4    0    0  0.11631861397E+02  0.18953499440E+02 -0.69049368479E+02  0.72542061095E+02  0.00000000000E+00 0. -1.
         11    1    4    4    0    0 -0.54294266842E+02  0.46313585070E+02 -0.97469692864E+01  0.72026515841E+02  0.00000000000E+00 0.  1.
         21    1    1    2  503  501 -0.24362762316E+02 -0.63185669935E+02 -0.88590155753E+01  0.68296817127E+02  0.00000000000E+00 0.  1.
         -2    1    1    2    0  502  0.10033218065E+03 -0.19576673111E+01 -0.14567160094E+03  0.17689147593E+03  0.00000000000E+00 0.  1.
<scales pt_clust_5="13000.00000" pt_clust_6="13000.00000" pt_clust_7="13000.00000" pt_clust_8="13000.00000" pt_clust_9="67.71981" pt_clust_10="13000.00000"></scales>
<clustering>
<clus scale="   67.720">  1  9  2 -1</clus>
<clus scale="   79.960">  5  6 -1 -1</clus>
<clus scale="   90.908">  2  5  1 -1</clus>
<clus scale="   92.797">  7  8 -1 -1</clus>
<clus scale="   77.250">  7 10 -1 -1</clus>
<clus scale="   67.720">  1  5  2 -1</clus>
</clustering>
</event>
<event>
10    4  0.2565852E-005  0.2501428E+03  0.7546771E-02  0.1157087E+00
          2   -1    0    0  502    0 -0.00000000000E+00  0.00000000000E+00  0.58499930234E+03  0.58499930234E+03  0.00000000000E+00 0. -1.
         21   -1    0    0  503  502  0.00000000000E+00 -0.00000000000E+00 -0.57698714901E+02  0.57698714901E+02  0.00000000000E+00 0. -1.
         24    2    1    2    0    0  0.41773309594E+02  0.12132929230E+02  0.11734195842E+03  0.14757440717E+03  0.78210313133E+02 0.  0.
         23    2    1    2    0    0  0.58638648217E+02 -0.17611391055E+02  0.63496144315E+02  0.12706937533E+03  0.91467008508E+02 0.  0.
        -11    1    3    3    0    0  0.73406141487E+01  0.40424236051E+02  0.35112331268E+02  0.54045159668E+02  0.00000000000E+00 0.  1.
         12    1    3    3    0    0  0.34432695445E+02 -0.28291306821E+02  0.82229627155E+02  0.93529247507E+02  0.00000000000E+00 0. -1.
        -11    1    4    4    0    0 -0.23688251383E+02  0.57370919777E+01  0.11642289192E+02  0.27010930669E+02  0.00000000000E+00 0.  1.
         11    1    4    4    0    0  0.82326899601E+02 -0.23348483033E+02  0.51853855123E+02  0.10005844467E+03  0.00000000000E+00 0. -1.
         21    1    1    2  503  501 -0.25145298430E+02 -0.81624768196E+01  0.21111237036E+02  0.33831884224E+02  0.00000000000E+00 0. -1.
          1    1    1    2  501    0 -0.75266659381E+02  0.13640938644E+02  0.32535124767E+03  0.33422235051E+03  0.00000000000E+00 0. -1.
<scales pt_clust_5="13000.00000" pt_clust_6="13000.00000" pt_clust_7="13000.00000" pt_clust_8="13000.00000" pt_clust_9="26.43695" pt_clust_10="13000.00000"></scales>
<clustering>
<clus scale="   26.437">  2  9  1 -1</clus>
<clus scale="   78.210">  5  6 -1 -1</clus>
<clus scale="   85.981">  1  5  2 -1</clus>
<clus scale="   91.467">  7  8 -1 -1</clus>
<clus scale="   54.930">  7 10 -1 -1</clus>
<clus scale="   26.437">  2  5  1 -1</clus>
</clustering>
</event>
<event>
10    4  0.2565852E-005  0.1394623E+03  0.7546771E-02  0.1226412E+00
          2   -1    0    0  503    0 -0.00000000000E+00  0.00000000000E+00  0.27745567253E+03  0.27745567253E+03  0.00000000000E+00 0. -1.
         21   -1    0    0  501  502  0.00000000000E+00 -0.00000000000E+00 -0.14015430525E+03  0.14015430525E+03  0.00000000000E+00 0. -1.
         24    2    1    2    0    0 -0.73861207370E+02 -0.34027180800E+02  0.92624072580E+00  0.11452479246E+03  0.80633387497E+02 0.  0.
         23    2    1    2    0    0  0.41831356770E+02  0.12231411433E+02  0.18651116025E+03  0.21104966434E+03  0.88634519705E+02 0.  0.
        -11    1    3    3    0    0  0.54718636037E+01 -0.27700242685E+02 -0.16983228441E+02  0.32949579426E+02  0.00000000000E+00 0.  1.
         12    1    3    3    0    0 -0.79333070973E+02 -0.63269381146E+01  0.17909469166E+02  0.81575213035E+02  0.00000000000E+00 0. -1.
        -13    1    4    4    0    0  0.51402820297E+01 -0.36932278803E+02  0.75944174871E+02  0.84604570880E+02  0.00000000000E+00 0.  1.
         13    1    4    4    0    0  0.36691074740E+02  0.49163690235E+02  0.11056698538E+03  0.12644509346E+03  0.00000000000E+00 0. -1.
         21    1    1    2  503  502  0.59162118287E+01  0.26055855049E+02 -0.58477857487E+02  0.64292837556E+02  0.00000000000E+00 0. -1.
          1    1    1    2  501    0  0.26113638771E+02 -0.42600856817E+01  0.83418237878E+01  0.27742683431E+02  0.00000000000E+00 0. -1.
<scales pt_clust_5="13000.00000" pt_clust_6="13000.00000" pt_clust_7="13000.00000" pt_clust_8="13000.00000" pt_clust_9="26.71908" pt_clust_10="13000.00000"></scales>
<clustering>
<clus scale="   26.719">  2  9  1 -1</clus>
<clus scale="   80.633">  5  6 -1 -1</clus>
<clus scale="   88.635">  7  8 -1 -1</clus>
<clus scale="   26.863">  7 10 -1 -1</clus>
<clus scale="  107.599">  1  5  2 -1</clus>
<clus scale="   26.719">  2  5  1 -1</clus>
</clustering>
</event>
<event>
10    4  0.2565852E-005  0.2319096E+03  0.7546771E-02  0.1134688E+00
         21   -1    0    0  503  502  0.00000000000E+00  0.00000000000E+00  0.85566130016E+02  0.85566130016E+02  0.00000000000E+00 0. -1.
          2   -1    0    0  502    0 -0.00000000000E+00 -0.00000000000E+00 -0.90067798676E+03  0.90067798676E+03  0.00000000000E+00 0. -1.
         24    2    1    2    0    0  0.15280054067E+03 -0.16707112212E+02 -0.55615613285E+03  0.58395733038E+03  0.89829765521E+02 0.  0.
         23    2    1    2    0    0 -0.33449321505E+02  0.61764855173E+01 -0.79980356692E+02  0.12472281366E+03  0.89453433188E+02 0.  0.
        -11    1    3    3    0    0  0.11420516218E+03  0.27606555461E+02 -0.33005962697E+03  0.35034882379E+03  0.00000000000E+00 0.  1.
         12    1    3    3    0    0  0.38595378496E+02 -0.44313667673E+02 -0.22609650588E+03  0.23360850659E+03  0.00000000000E+00 0. -1.
        -13    1    4    4    0    0  0.15748446669E+02  0.35167324326E+02 -0.34499079484E+02  0.51719829446E+02  0.00000000000E+00 0.  1.
         13    1    4    4    0    0 -0.49197768174E+02 -0.28990838809E+02 -0.45481277208E+02  0.73002984217E+02  0.00000000000E+00 0. -1.
         21    1    1    2  503  501  0.30723287764E+02 -0.13007515389E+02  0.10253822736E+02  0.34903534897E+02  0.00000000000E+00 0.  1.
          1    1    1    2  501    0 -0.15007450693E+03  0.23538142083E+02 -0.18922918994E+03  0.24266043783E+03  0.00000000000E+00 0. -1.
<scales pt_clust_5="13000.00000" pt_clust_6="13000.00000" pt_clust_7="13000.00000" pt_clust_8="13000.00000" pt_clust_9="33.36339" pt_clust_10="13000.00000"></scales>
<clustering>
<clus scale="   33.363">  1  9  2 -1</clus>
<clus scale="   89.453">  7  8 -1 -1</clus>
<clus scale="   89.830">  5  6 -1 -1</clus>
<clus scale="  138.223">  7 10 -1 -1</clus>
<clus scale="  184.170">  2  5  1 -1</clus>
<clus scale="   33.363">  1  5  2 -1</clus>
</clustering>
</event>
<event>
10    4  0.2565852E-005  0.2491032E+03  0.7546771E-02  0.1155564E+00
         21   -1    0    0  501  502  0.00000000000E+00  0.00000000000E+00  0.12970371150E+03  0.12970371150E+03  0.00000000000E+00 0.  1.
          2   -1    0    0  503    0 -0.00000000000E+00 -0.00000000000E+00 -0.96708304657E+03  0.96708304657E+03  0.00000000000E+00 0. -1.
         24    2    1    2    0    0 -0.18485375289E+02 -0.47882794193E+02 -0.29042074003E+02  0.10130748776E+03  0.82372895628E+02 0.  0.
         23    2    1    2    0    0  0.76343703475E+02 -0.77346151772E+02 -0.57067557936E+03  0.59125718357E+03  0.11001659872E+03 0.  0.
        -11    1    3    3    0    0  0.56678305907E+01 -0.65302369289E+02 -0.28623553426E+02  0.71525041413E+02  0.00000000000E+00 0.  1.
         12    1    3    3    0    0 -0.24153205880E+02  0.17419575096E+02 -0.41852057729E+00  0.29782446345E+02  0.00000000000E+00 0. -1.
        -11    1    4    4    0    0 -0.22531311500E+02 -0.37330141604E+02 -0.23601930670E+03  0.24001315090E+03  0.00000000000E+00 0.  1.
         11    1    4    4    0    0  0.98875014975E+02 -0.40016010168E+02 -0.33465627265E+03  0.35124403267E+03  0.00000000000E+00 0. -1.
         21    1    1    2  503  502 -0.17655163968E+02  0.40165989630E+02  0.69934745850E+02  0.82558344307E+02  0.00000000000E+00 0.  1.
          1    1    1    2  501    0 -0.40203164218E+02  0.85062956336E+02 -0.30759642756E+03  0.32166374244E+03  0.00000000000E+00 0. -1.
<scales pt_clust_5="13000.00000" pt_clust_6="13000.00000" pt_clust_7="13000.00000" pt_clust_8="13000.00000" pt_clust_9="43.87495" pt_clust_10="13000.00000"></scales>
<clustering>
<clus scale="   43.875">  1  9  2 -1</clus>
<clus scale="   82.373">  5  6 -1 -1</clus>
<clus scale="   90.225">  2  5  1 -1</clus>
<clus scale="  110.017">  7  8 -1 -1</clus>
<clus scale="   98.614">  7 10 -1 -1</clus>
<clus scale="   43.875">  1  5  2 -1</clus>
</clustering>
</event>
<event>
10    4  0.2565852E-005  0.1440997E+03  0.7546771E-02  0.1229603E+00
         -1   -1    0    0    0  501 -0.00000000000E+00  0.00000000000E+00  0.71243183826E+02  0.71243183826E+02  0.00000000000E+00 0.  1.
         21   -1    0    0  503  502  0.00000000000E+00 -0.00000000000E+00 -0.42294703353E+03  0.42294703353E+03  0.00000000000E+00 0. -1.
         24    2    1    2    0    0  0.42245676102E+02  0.50434473370E+01  0.36460698465E+01  0.92867033528E+02  0.82467318258E+02 0.  0.
         23    2    1    2    0    0 -0.43371995075E+02 -0.23011223435E+02 -0.16133239404E+03  0.19201299265E+03  0.91816129393E+02 0.  0.
        -11    1    3    3    0    0  0.45841493744E+02  0.29758643239E+02  0.24912853351E+02  0.60063879813E+02  0.00000000000E+00 0.  1.
         12    1    3    3    0    0 -0.35958176427E+01 -0.24715195902E+02 -0.21266783504E+02  0.32803153714E+02  0.00000000000E+00 0. -1.
        -11    1    4    4    0    0 -0.44854829010E+02  0.22133366531E+02 -0.45238226697E+02  0.67441372719E+02  0.00000000000E+00 0.  1.
         11    1    4    4    0    0  0.14828339346E+01 -0.45144589966E+02 -0.11609416734E+03  0.12457161993E+03  0.00000000000E+00 0. -1.
         21    1    1    2  503  501 -0.19156031530E+02 -0.11376524287E+02 -0.15440211812E+03  0.15600125938E+03  0.00000000000E+00 0. -1.
         -2    1    1    2    0  502  0.20282350503E+02  0.29344300385E+02 -0.39615407386E+02  0.53308931797E+02  0.00000000000E+00 0.  1.
<scales pt_clust_5="13000.00000" pt_clust_6="13000.00000" pt_clust_7="13000.00000" pt_clust_8="13000.00000" pt_clust_9="22.27956" pt_clust_10="13000.00000"></scales>
<clustering>
<clus scale="   22.280">  2  9  1 -1</clus>
<clus scale="   82.467">  5  6 -1 -1</clus>
<clus scale="   91.302">  1  5  2 -1</clus>
<clus scale="   91.816">  7  8 -1 -1</clus>
<clus scale="   38.612">  7 10 -1 -1</clus>
<clus scale="   22.280">  2  5  1 -1</clus>
</clustering>
</event>
<event>
10    4  0.2565852E-005  0.2951926E+03  0.7546771E-02  0.1133430E+00
         -1   -1    0    0    0  501 -0.00000000000E+00  0.00000000000E+00  0.28783522571E+03  0.28783522571E+03  0.00000000000E+00 0.  1.
         21   -1    0    0  503  502  0.00000000000E+00 -0.00000000000E+00 -0.25708724169E+03  0.25708724169E+03  0.00000000000E+00 0.  1.
         24    2    1    2    0    0  0.51958303528E+02  0.45187455558E+01  0.21461922732E+02  0.94550905866E+02  0.75889230500E+02 0.  0.
         23    2    1    2    0    0  0.10185962015E+02  0.30922069791E+02  0.50915780636E+02  0.10977755309E+03  0.91644782843E+02 0.  0.
        -11    1    3    3    0    0  0.15055301526E+02  0.32676998594E+02 -0.11326936409E+02  0.37719329655E+02  0.00000000000E+00 0.  1.
         12    1    3    3    0    0  0.36903002002E+02 -0.28158253039E+02  0.32788859140E+02  0.56831576211E+02  0.00000000000E+00 0. -1.
        -11    1    4    4    0    0  0.42065324189E+02 -0.18369927127E+01  0.48179263235E+02  0.63985212724E+02  0.00000000000E+00 0.  1.
         11    1    4    4    0    0 -0.31879362174E+02  0.32759062504E+02  0.27365174007E+01  0.45792340366E+02  0.00000000000E+00 0. -1.
         21    1    1    2  503  501  0.90782277041E+02  0.98822248624E+02 -0.24102706841E+02  0.13633854600E+03  0.00000000000E+00 0.  1.
         -2    1    1    2    0  502 -0.15292654258E+03 -0.13426306397E+03 -0.17527012511E+02  0.20425546245E+03  0.00000000000E+00 0.  1.
<scales pt_clust_5="13000.00000" pt_clust_6="13000.00000" pt_clust_7="13000.00000" pt_clust_8="13000.00000" pt_clust_9="143.84358" pt_clust_10="13000.00000"></scales>
<clustering>
<clus scale="   75.889">  5  6 -1 -1</clus>
<clus scale="   91.645">  7  8 -1 -1</clus>
<clus scale="   92.083">  1  5  2 -1</clus>
<clus scale="  143.844">  2  9  1 -1</clus>
<clus scale="   92.501">  7 10 -1 -1</clus>
<clus scale="  143.844">  2  5  1 -1</clus>
</clustering>
</event>
<event>
10    4  0.2565852E-005  0.1041312E+04  0.7546771E-02  0.9853771E-01
          2   -1    0    0  503    0 -0.00000000000E+00  0.00000000000E+00  0.79337721394E+03  0.79337721394E+03  0.00000000000E+00 0. -1.
         21   -1    0    0  501  502  0.00000000000E+00 -0.00000000000E+00 -0.53310404801E+03  0.53310404801E+03  0.00000000000E+00 0. -1.
         24    2    1    2    0    0  0.10760770905E+03  0.83915715658E+01  0.15927499901E+03  0.20864719010E+03  0.80717328405E+02 0.  0.
         23    2    1    2    0    0  0.40620716030E+02 -0.44684947968E+03 -0.15633061482E+03  0.48382177152E+03  0.91212638369E+02 0.  0.
        -11    1    3    3    0    0  0.76116792304E+02 -0.91451333975E+01  0.15425374623E+03  0.17225451449E+03  0.00000000000E+00 0.  1.
         12    1    3    3    0    0  0.31490916744E+02  0.17536704963E+02  0.50212527810E+01  0.36392675607E+02  0.00000000000E+00 0. -1.
        -13    1    4    4    0    0  0.23986193803E+02 -0.43218685921E+03 -0.13593754422E+03  0.45369575124E+03  0.00000000000E+00 0. -1.
         13    1    4    4    0    0  0.16634522227E+02 -0.14662620472E+02 -0.20393070604E+02  0.30126020273E+02  0.00000000000E+00 0.  1.
         21    1    1    2  503  502  0.20586245581E+02 -0.74198929205E+01 -0.58276860270E+02  0.62249825389E+02  0.00000000000E+00 0.  1.
          1    1    1    2  501    0 -0.16881467066E+03  0.44587780104E+03  0.31560564202E+03  0.57176247495E+03  0.00000000000E+00 0. -1.
<scales pt_clust_5="13000.00000" pt_clust_6="13000.00000" pt_clust_7="13000.00000" pt_clust_8="13000.00000" pt_clust_9="21.88260" pt_clust_10="13000.00000"></scales>
<clustering>
<clus scale="   21.883">  2  9  1 -1</clus>
<clus scale="   80.717">  5  6 -1 -1</clus>
<clus scale="   91.213">  7  8 -1 -1</clus>
<clus scale="  135.614">  1  5  2 -1</clus>
<clus scale="  457.590">  7 10 -1 -1</clus>
<clus scale="   21.883">  2  5  1 -1</clus>
</clustering>
</event>
<event>
10    4  0.2565852E-005  0.7658212E+03  0.7546771E-02  0.9935666E-01
         21   -1    0    0  503  502  0.00000000000E+00  0.00000000000E+00  0.73988741240E+03  0.73988741240E+03  0.00000000000E+00 0. -1.
          2   -1    0    0  502    0 -0.00000000000E+00 -0.00000000000E+00 -0.13271318997E+04  0.13271318997E+04  0.00000000000E+00 0. -1.
         24    2    1    2    0    0  0.19617523266E+03 -0.15175698711E+03 -0.23623908493E+03  0.35194322465E+03  0.80871645710E+02 0.  0.
         23    2    1    2    0    0 -0.30816043471E+03  0.25142350760E+03 -0.20614999061E+03  0.45734728733E+03  0.92152530626E+02 0.  0.
        -11    1    3    3    0    0  0.11614393881E+03 -0.94012180526E+02 -0.19329261318E+03  0.24431483565E+03  0.00000000000E+00 0.  1.
         12    1    3    3    0    0  0.80031293841E+02 -0.57744806583E+02 -0.42946471757E+02  0.10762838899E+03  0.00000000000E+00 0. -1.
        -13    1    4    4    0    0 -0.21156575144E+03  0.12865316106E+03 -0.93179894498E+02  0.26456416192E+03  0.00000000000E+00 0.  1.
         13    1    4    4    0    0 -0.96594683269E+02  0.12277034655E+03 -0.11297009611E+03  0.19278312541E+03  0.00000000000E+00 0. -1.
         21    1    1    2  503  501 -0.16848248712E+03 -0.17263329176E+03  0.49757105841E+03  0.55296072199E+03  0.00000000000E+00 0. -1.
          1    1    1    2  501    0  0.28046768918E+03  0.72966771264E+02 -0.64242647019E+03  0.70476807815E+03  0.00000000000E+00 0. -1.
<scales pt_clust_5="13000.00000" pt_clust_6="13000.00000" pt_clust_7="13000.00000" pt_clust_8="13000.00000" pt_clust_9="241.22314" pt_clust_10="13000.00000"></scales>
<clustering>
<clus scale="   80.872">  5  6 -1 -1</clus>
<clus scale="   92.153">  7  8 -1 -1</clus>
<clus scale="  241.223">  1  9  2 -1</clus>
<clus scale="  260.440">  7 10 -1 -1</clus>
<clus scale="  261.894">  2  5  1 -1</clus>
<clus scale="  241.223">  1  5  2 -1</clus>
</clustering>
</event>
<event>
10    4  0.2565852E-005  0.4606956E+03  0.7546771E-02  0.1046904E+00
          2   -1    0    0  502    0 -0.00000000000E+00  0.00000000000E+00  0.27269550627E+04  0.27269550627E+04  0.00000000000E+00 0. -1.
         21   -1    0    0  503  502  0.00000000000E+00 -0.00000000000E+00 -0.63678067253E+02  0.63678067253E+02  0.00000000000E+00 0. -1.
         24    2    1    2    0    0  0.21417569698E+03  0.13412079168E+02  0.59626093388E+03  0.63651567878E+03  0.59782898980E+02 0.  0.
         23    2    1    2    0    0  0.55141201801E+02 -0.94987076966E+02  0.43476603888E+03  0.45754620124E+03  0.90906109686E+02 0.  0.
        -13    1    3    3    0    0  0.66834858488E+02  0.27369884739E+02  0.15276908201E+03  0.16898047614E+03  0.00000000000E+00 0.  1.
         14    1    3    3    0    0  0.14734083849E+03 -0.13957805571E+02  0.44349185188E+03  0.46753520264E+03  0.00000000000E+00 0. -1.
        -13    1    4    4    0    0  0.41940968897E+02 -0.53489379104E+01  0.22669134984E+03  0.23060057264E+03  0.00000000000E+00 0.  1.
         13    1    4    4    0    0  0.13200232904E+02 -0.89638139056E+02  0.20807468905E+03  0.22694562861E+03  0.00000000000E+00 0. -1.
         21    1    1    2  503  501  0.39439193740E+02  0.74618553869E+01  0.71866491571E+01  0.40777165359E+02  0.00000000000E+00 0. -1.
          1    1    1    2  501    0 -0.30875609252E+03  0.74113142411E+02  0.16250633736E+04  0.16557940846E+04  0.00000000000E+00 0. -1.
<scales pt_clust_5="13000.00000" pt_clust_6="13000.00000" pt_clust_7="13000.00000" pt_clust_8="13000.00000" pt_clust_9="40.13888" pt_clust_10="13000.00000"></scales>
<clustering>
<clus scale="   40.139">  2  9  1 -1</clus>
<clus scale="   59.783">  5  6 -1 -1</clus>
<clus scale="   90.906">  7  8 -1 -1</clus>
<clus scale="  239.292">  1  5  2 -1</clus>
<clus scale="  149.308">  7 10 -1 -1</clus>
<clus scale="   40.139">  2  5  1 -1</clus>
</clustering>
</event>
<event>
10    4  0.2565852E-005  0.2642035E+03  0.7546771E-02  0.1140959E+00
         21   -1    0    0  503  502  0.00000000000E+00  0.00000000000E+00  0.94124888564E+02  0.94124888564E+02  0.00000000000E+00 0. -1.
          2   -1    0    0  502    0 -0.00000000000E+00 -0.00000000000E+00 -0.54648945885E+03  0.54648945885E+03  0.00000000000E+00 0. -1.
         24    2    1    2    0    0 -0.14583811636E+02 -0.69471024402E+02 -0.27622069252E+03  0.29585163061E+03  0.78685485102E+02 0.  0.
         23    2    1    2    0    0  0.78549799911E+02  0.15569590723E+02  0.10770845986E+02  0.12008705981E+03  0.88839223261E+02 0.  0.
        -11    1    3    3    0    0  0.17481299564E+02 -0.16021659102E+02 -0.16832108580E+02  0.29079361652E+02  0.00000000000E+00 0.  1.
         12    1    3    3    0    0 -0.32065111200E+02 -0.53449365300E+02 -0.25938858394E+03  0.26677226896E+03  0.00000000000E+00 0. -1.
        -11    1    4    4    0    0  0.38741907321E+02 -0.37026223442E+02  0.30822648212E+01  0.53678459010E+02  0.00000000000E+00 0. -1.
         11    1    4    4    0    0  0.39807892590E+02  0.52595814165E+02  0.76885811645E+01  0.66408600802E+02  0.00000000000E+00 0.  1.
         21    1    1    2  503  501 -0.22946322329E+02 -0.79582883246E+01 -0.79352155253E+00  0.24300159216E+02  0.00000000000E+00 0. -1.
          1    1    1    2  501    0 -0.41019665947E+02  0.61859722004E+02 -0.18612120219E+03  0.20037549777E+03  0.00000000000E+00 0. -1.
<scales pt_clust_5="13000.00000" pt_clust_6="13000.00000" pt_clust_7="13000.00000" pt_clust_8="13000.00000" pt_clust_9="24.28720" pt_clust_10="13000.00000"></scales>
<clustering>
<clus scale="   24.287">  1  9  2 -1</clus>
<clus scale="   78.685">  5  6 -1 -1</clus>
<clus scale="   88.839">  7  8 -1 -1</clus>
<clus scale="   74.775">  7 10 -1 -1</clus>
<clus scale="  107.006">  2  5  1 -1</clus>
<clus scale="   24.287">  1  5  2 -1</clus>
</clustering>
</event>
<event>
10    4  0.2565852E-005  0.3203546E+03  0.7546771E-02  0.1106373E+00
         21   -1    0    0  503  502  0.00000000000E+00  0.00000000000E+00  0.10467095796E+03  0.10467095796E+03  0.00000000000E+00 0. -1.
          2   -1    0    0  502    0 -0.00000000000E+00 -0.00000000000E+00 -0.82137034883E+03  0.82137034883E+03  0.00000000000E+00 0. -1.
         24    2    1    2    0    0  0.80496083878E+02  0.73486983839E+02 -0.29498516351E+03  0.32622722415E+03  0.86764040781E+02 0.  0.
         23    2    1    2    0    0  0.90256371927E+02 -0.47069290733E+02 -0.12501858865E+03  0.18648831467E+03  0.93736402729E+02 0.  0.
        -11    1    3    3    0    0 -0.12933184733E+02  0.25730218978E+02 -0.31826211207E+02  0.42921080553E+02  0.00000000000E+00 0.  1.
         12    1    3    3    0    0  0.93429268611E+02  0.47756764860E+02 -0.26315895231E+03  0.28330614360E+03  0.00000000000E+00 0. -1.
        -13    1    4    4    0    0  0.30057319671E+02 -0.22094075374E+01 -0.10435653159E+03  0.10862140504E+03  0.00000000000E+00 0.  1.
         13    1    4    4    0    0  0.60199052257E+02 -0.44859883195E+02 -0.20662057056E+02  0.77866909626E+02  0.00000000000E+00 0. -1.
         21    1    1    2  503  501 -0.57490025390E+01  0.25547346359E+02  0.32323699545E+02  0.41599753466E+02  0.00000000000E+00 0. -1.
          1    1    1    2  501    0 -0.16500345327E+03 -0.51965039465E+02 -0.32901933825E+03  0.37172601450E+03  0.00000000000E+00 0. -1.
<scales pt_clust_5="13000.00000" pt_clust_6="13000.00000" pt_clust_7="13000.00000" pt_clust_8="13000.00000" pt_clust_9="26.18622" pt_clust_10="13000.00000"></scales>
<clustering>
<clus scale="   26.186">  1  9  2 -1</clus>
<clus scale="   86.764">  5  6 -1 -1</clus>
<clus scale="   93.736">  7  8 -1 -1</clus>
<clus scale="  141.765">  2  5  1 -1</clus>
<clus scale="  111.845">  7 10 -1 -1</clus>
<clus scale="   26.186">  1  5  2 -1</clus>
</clustering>
</event>
<event>
10    4  0.2565852E-005  0.1534872E+03  0.7546771E-02  0.1223237E+00
         21   -1    0    0  503  502  0.00000000000E+00  0.00000000000E+00  0.29725619124E+02  0.29725619124E+02  0.00000000000E+00 0.  1.
          2   -1    0    0  502    0 -0.00000000000E+00 -0.00000000000E+00 -0.10870868312E+04  0.10870868312E+04  0.00000000000E+00 0. -1.
         24    2    1    2    0    0  0.29162057110E+02 -0.64462431266E+01 -0.53946970745E+03  0.54633332515E+03  0.80997267135E+02 0.  0.
         23    2    1    2    0    0 -0.52521413976E+02  0.24050586339E+01 -0.37628258030E+03  0.39096411466E+03  0.92195853950E+02 0.  0.
        -11    1    3    3    0    0 -0.14317993493E+02 -0.24285393221E+02 -0.87565360482E+02  0.91991725812E+02  0.00000000000E+00 0.  1.
         12    1    3    3    0    0  0.43480050603E+02  0.17839150094E+02 -0.45190434697E+03  0.45434159934E+03  0.00000000000E+00 0. -1.
        -13    1    4    4    0    0 -0.21201424407E+01 -0.36601789591E+02 -0.81441515663E+02  0.89313529091E+02  0.00000000000E+00 0.  1.
         13    1    4    4    0    0 -0.50401271535E+02  0.39006848225E+02 -0.29484106464E+03  0.30165058557E+03  0.00000000000E+00 0. -1.
         21    1    1    2  503  501 -0.11916315046E+02 -0.29965528763E+02 -0.28670650675E+01  0.32375168577E+02  0.00000000000E+00 0.  1.
          1    1    1    2  501    0  0.35275671911E+02  0.34006713256E+02 -0.13874185931E+03  0.14713984198E+03  0.00000000000E+00 0. -1.
<scales pt_clust_5="13000.00000" pt_clust_6="13000.00000" pt_clust_7="13000.00000" pt_clust_8="13000.00000" pt_clust_9="32.24797" pt_clust_10="13000.00000"></scales>
<clustering>
<clus scale="   32.248">  1  9  2 -1</clus>
<clus scale="   80.997">  5  6 -1 -1</clus>
<clus scale="   86.235">  2  5  1 -1</clus>
<clus scale="   92.196">  7  8 -1 -1</clus>
<clus scale="   43.825">  7 10 -1 -1</clus>
<clus scale="   32.248">  1  5  2 -1</clus>
</clustering>
</event>
<event>
10    4  0.2565852E-005  0.8659581E+03  0.7546771E-02  0.9941009E-01
         21   -1    0    0  501  502  0.00000000000E+00  0.00000000000E+00  0.21001533069E+03  0.21001533069E+03  0.00000000000E+00 0. -1.
          2   -1    0    0  503    0 -0.00000000000E+00 -0.00000000000E+00 -0.22479461604E+04  0.22479461604E+04  0.00000000000E+00 0. -1.
         24    2    1    2    0    0  0.14112149534E+03 -0.56336695572E+02 -0.45233727418E+03  0.48612839323E+03  0.92858523425E+02 0.  0.
         23    2    1    2    0    0  0.13174470472E+03 -0.28791925760E+03 -0.80295764702E+03  0.86824295152E+03  0.94078020027E+02 0.  0.
        -13    1    3    3    0    0  0.70691790470E+02 -0.17363711814E+02 -0.94153158285E+02  0.11901111269E+03  0.00000000000E+00 0.  1.
         14    1    3    3    0    0  0.70429704871E+02 -0.38972983757E+02 -0.35818411590E+03  0.36711728054E+03  0.00000000000E+00 0. -1.
        -11    1    4    4    0    0  0.15622798080E+02 -0.86673065002E+02 -0.13650059031E+03  0.16244600078E+03  0.00000000000E+00 0.  1.
         11    1    4    4    0    0  0.11612190664E+03 -0.20124619259E+03 -0.66645705671E+03  0.70579695074E+03  0.00000000000E+00 0. -1.
         21    1    1    2  503  502  0.20822423306E+03  0.13045239732E+03 -0.18795638161E+03  0.30935862779E+03  0.00000000000E+00 0.  1.
          1    1    1    2  501    0 -0.48109043312E+03  0.21380355585E+03 -0.59467952692E+03  0.79423151856E+03  0.00000000000E+00 0. -1.
<scales pt_clust_5="13000.00000" pt_clust_6="13000.00000" pt_clust_7="13000.00000" pt_clust_8="13000.00000" pt_clust_9="258.81923" pt_clust_10="13000.00000"></scales>
<clustering>
<clus scale="   92.859">  5  6 -1 -1</clus>
<clus scale="   94.078">  7  8 -1 -1</clus>
<clus scale="  178.078">  2  5  1 -1</clus>
<clus scale="  258.819">  1  9  2 -1</clus>
<clus scale="  391.793">  7 10 -1 -1</clus>
<clus scale="  258.819">  1  5  2 -1</clus>
</clustering>
</event>
<event>
10    4  0.2565852E-005  0.4571214E+03  0.7546771E-02  0.1033977E+00
         21   -1    0    0  501  502  0.00000000000E+00  0.00000000000E+00  0.25157679953E+03  0.25157679953E+03  0.00000000000E+00 0. -1.
          2   -1    0    0  503    0 -0.00000000000E+00 -0.00000000000E+00 -0.14023799430E+04  0.14023799430E+04  0.00000000000E+00 0. -1.
         24    2    1    2    0    0  0.20415560909E+03 -0.32925225364E+03 -0.30784653165E+03  0.50140777162E+03  0.80954969840E+02 0.  0.
         23    2    1    2    0    0 -0.71293671922E+01  0.94001913475E+02 -0.47406097284E+03  0.49157713886E+03  0.89594028074E+02 0.  0.
        -13    1    3    3    0    0  0.45690076632E+02 -0.13051545435E+03 -0.78261550951E+02  0.15889221908E+03  0.00000000000E+00 0.  1.
         14    1    3    3    0    0  0.15846553246E+03 -0.19873679929E+03 -0.22958498070E+03  0.34251555254E+03  0.00000000000E+00 0. -1.
        -11    1    4    4    0    0  0.40746597721E+02  0.41811891051E+02 -0.24242032393E+03  0.24935142453E+03  0.00000000000E+00 0.  1.
         11    1    4    4    0    0 -0.47875964914E+02  0.52190022424E+02 -0.23164064891E+03  0.24222571433E+03  0.00000000000E+00 0. -1.
         21    1    1    2  503  502 -0.26913362574E+03 -0.25517341093E+02 -0.12970090594E+03  0.29984390639E+03  0.00000000000E+00 0. -1.
          1    1    1    2  501    0  0.72107383841E+02  0.26076768125E+03 -0.23919473307E+03  0.36112792570E+03  0.00000000000E+00 0. -1.
<scales pt_clust_5="13000.00000" pt_clust_6="13000.00000" pt_clust_7="13000.00000" pt_clust_8="13000.00000" pt_clust_9="270.34061" pt_clust_10="13000.00000"></scales>
<clustering>
<clus scale="   80.955">  5  6 -1 -1</clus>
<clus scale="   89.594">  7  8 -1 -1</clus>
<clus scale="  270.341">  1  9  2 -1</clus>
<clus scale="  252.811">  7 10 -1 -1</clus>
<clus scale="  356.686">  2  5  1 -1</clus>
<clus scale="  270.341">  1  5  2 -1</clus>
</clustering>
</event>
<event>
10    4  0.2565852E-005  0.2405048E+03  0.7546771E-02  0.1148073E+00
          2   -1    0    0  503    0 -0.00000000000E+00  0.00000000000E+00  0.56940016996E+03  0.56940016996E+03  0.00000000000E+00 0. -1.
         21   -1    0    0  501  502  0.00000000000E+00 -0.00000000000E+00 -0.14176541432E+03  0.14176541432E+03  0.00000000000E+00 0. -1.
         24    2    1    2    0    0 -0.18959886615E+02 -0.88050395989E+02  0.39380269703E+03  0.41198765957E+03  0.80875941518E+02 0.  0.
         23    2    1    2    0    0 -0.21277196289E+02 -0.38709798985E+02 -0.17870994609E+02  0.10260352108E+03  0.90867719630E+02 0.  0.
        -11    1    3    3    0    0  0.28922922004E+01 -0.55046294768E+02  0.89439213530E+02  0.10506109098E+03  0.00000000000E+00 0.  1.
         12    1    3    3    0    0 -0.21852178816E+02 -0.33004101220E+02  0.30436348350E+03  0.30692656859E+03  0.00000000000E+00 0. -1.
        -11    1    4    4    0    0  0.10622960549E+02  0.21302560989E+02 -0.24692336906E+02  0.34298074252E+02  0.00000000000E+00 0.  1.
         11    1    4    4    0    0 -0.31900156838E+02 -0.60012359974E+02  0.68213422965E+01  0.68305446830E+02  0.00000000000E+00 0. -1.
         21    1    1    2  503  502 -0.43851923791E+02  0.33610214729E+02 -0.10930664634E+02  0.56321551680E+02  0.00000000000E+00 0. -1.
          1    1    1    2  501    0  0.84089006696E+02  0.93149980245E+02  0.62633717855E+02  0.14025285195E+03  0.00000000000E+00 0. -1.
<scales pt_clust_5="13000.00000" pt_clust_6="13000.00000" pt_clust_7="13000.00000" pt_clust_8="13000.00000" pt_clust_9="55.25068" pt_clust_10="13000.00000"></scales>
<clustering>
<clus scale="   55.251">  2  9  1 -1</clus>
<clus scale="   80.876">  5  6 -1 -1</clus>
<clus scale="   90.868">  7  8 -1 -1</clus>
<clus scale="  119.654">  1  5  2 -1</clus>
<clus scale="   75.421">  7 10 -1 -1</clus>
<clus scale="   55.251">  2  5  1 -1</clus>
</clustering>
</event>
<event>
10    4  0.2565852E-005  0.1532322E+03  0.7546771E-02  0.1219101E+00
         21   -1    0    0  503  502  0.00000000000E+00  0.00000000000E+00  0.30982988381E+02  0.30982988381E+02  0.00000000000E+00 0.  1.
          4   -1    0    0  502    0 -0.00000000000E+00 -0.00000000000E+00 -0.83687269800E+03  0.83687269800E+03  0.00000000000E+00 0. -1.
         24    2    1    2    0    0  0.12436400513E+02 -0.44477623588E+02 -0.28446034892E+03  0.29873742883E+03  0.78698400371E+02 0.  0.
         23    2    1    2    0    0 -0.36890667679E+02  0.11200460617E+02 -0.21633554184E+03  0.23897757217E+03  0.93929982760E+02 0.  0.
        -13    1    3    3    0    0  0.11065986933E+02 -0.55501928196E+02 -0.28164807087E+03  0.28727783751E+03  0.00000000000E+00 0.  1.
         14    1    3    3    0    0  0.13704135793E+01  0.11024304608E+02 -0.28122780509E+01  0.11459591324E+02  0.00000000000E+00 0. -1.
        -11    1    4    4    0    0 -0.47745069028E+02 -0.24482229345E+02 -0.17619617365E+03  0.18418486035E+03  0.00000000000E+00 0. -1.
         11    1    4    4    0    0  0.10854401349E+02  0.35682689962E+02 -0.40139368182E+02  0.54792711829E+02  0.00000000000E+00 0.  1.
         21    1    1    2  503  501  0.40625010582E+02 -0.75540575487E+00 -0.25394706822E+02  0.47915062947E+02  0.00000000000E+00 0.  1.
          3    1    1    2  501    0 -0.16170743416E+02  0.34032568725E+02 -0.27969911204E+03  0.28222562243E+03  0.00000000000E+00 0. -1.
<scales pt_clust_5="13000.00000" pt_clust_6="13000.00000" pt_clust_7="13000.00000" pt_clust_8="13000.00000" pt_clust_9="40.63203" pt_clust_10="13000.00000"></scales>
<clustering>
<clus scale="   40.632">  1  9  2 -1</clus>
<clus scale="   78.698">  5  6 -1 -1</clus>
<clus scale="   93.930">  7  8 -1 -1</clus>
<clus scale="   36.593">  7 10 -1 -1</clus>
<clus scale="   94.513">  2  5  1 -1</clus>
<clus scale="   40.632">  1  5  2 -1</clus>
</clustering>
</event>
<event>
10    4  0.3444262E-005  0.1772506E+03  0.7546771E-02  0.1201582E+00
          2   -1    0    0  503    0 -0.00000000000E+00  0.00000000000E+00  0.63063881072E+03  0.63063881072E+03  0.00000000000E+00 0. -1.
         21   -1    0    0  501  502  0.00000000000E+00 -0.00000000000E+00 -0.27364270462E+03  0.27364270462E+03  0.00000000000E+00 0. -1.
         24    2    1    2    0    0 -0.52251096890E+02  0.25100169255E+02  0.13380003861E+03  0.16873322407E+03  0.84901442576E+02 0.  0.
         23    2    1    2    0    0  0.11987556125E+02  0.47877929869E+02  0.18213789145E+03  0.20972388848E+03  0.91509017188E+02 0.  0.
        -11    1    3    3    0    0 -0.36727627232E+02  0.56082229411E+02  0.99487719006E+02  0.11996641735E+03  0.00000000000E+00 0.  1.
         12    1    3    3    0    0 -0.15523469659E+02 -0.30982060157E+02  0.34312319602E+02  0.48766806726E+02  0.00000000000E+00 0. -1.
        -13    1    4    4    0    0  0.48393254555E+01 -0.27667592823E+02  0.49316466252E+02  0.56754106522E+02  0.00000000000E+00 0.  1.
         13    1    4    4    0    0  0.71482306690E+01  0.75545522692E+02  0.13282142520E+03  0.15296978196E+03  0.00000000000E+00 0. -1.
         21    1    1    2  503  502  0.57169020283E+02 -0.24113606579E+02 -0.23598085129E+03  0.24400148581E+03  0.00000000000E+00 0. -1.
          1    1    1    2  501    0 -0.16905479518E+02 -0.48864492545E+02  0.27703902733E+03  0.28182291697E+03  0.00000000000E+00 0. -1.
<scales pt_clust_5="13000.00000" pt_clust_6="13000.00000" pt_clust_7="13000.00000" pt_clust_8="13000.00000" pt_clust_9="62.04646" pt_clust_10="13000.00000"></scales>
<clustering>
<clus scale="   62.046">  2  9  1 -1</clus>
<clus scale="   84.901">  5  6 -1 -1</clus>
<clus scale="   88.749">  1  5  2 -1</clus>
<clus scale="   91.509">  7  8 -1 -1</clus>
<clus scale="   50.451">  7 10 -1 -1</clus>
<clus scale="   62.046">  2  5  1 -1</clus>
</clustering>
</event>
<event>
10    4  0.2565852E-005  0.3762250E+03  0.7546771E-02  0.1107810E+00
          2   -1    0    0  502    0 -0.00000000000E+00  0.00000000000E+00  0.16130449936E+04  0.16130449936E+04  0.00000000000E+00 0. -1.
         21   -1    0    0  503  502  0.00000000000E+00 -0.00000000000E+00 -0.93756104301E+02  0.93756104301E+02  0.00000000000E+00 0. -1.
         24    2    1    2    0    0 -0.28204463872E+02  0.53698162456E+02  0.23640611653E+03  0.25264918368E+03  0.65305234466E+02 0.  0.
         23    2    1    2    0    0  0.16723369732E+03  0.96759646979E+02  0.51788843187E+03  0.55924702260E+03  0.84966261655E+02 0.  0.
        -11    1    3    3    0    0 -0.37180300589E+02  0.21631417670E+02  0.19410454411E+03  0.19881364899E+03  0.00000000000E+00 0.  1.
         12    1    3    3    0    0  0.89758367170E+01  0.32066744785E+02  0.42301572422E+02  0.53835534689E+02  0.00000000000E+00 0. -1.
        -13    1    4    4    0    0  0.57322354840E+02  0.33867302305E+02  0.83600013697E+02  0.10687286288E+03  0.00000000000E+00 0.  1.
         13    1    4    4    0    0  0.10991134248E+03  0.62892344674E+02  0.43428841818E+03  0.45237415972E+03  0.00000000000E+00 0. -1.
         21    1    1    2  503  501 -0.34518207531E+02 -0.61930932748E+02 -0.37911570995E+02  0.80400462048E+02  0.00000000000E+00 0. -1.
          1    1    1    2  501    0 -0.10451102592E+03 -0.88526876687E+02  0.80290591186E+03  0.81450442954E+03  0.00000000000E+00 0. -1.
<scales pt_clust_5="13000.00000" pt_clust_6="13000.00000" pt_clust_7="13000.00000" pt_clust_8="13000.00000" pt_clust_9="70.90097" pt_clust_10="13000.00000"></scales>
<clustering>
<clus scale="   65.305">  5  6 -1 -1</clus>
<clus scale="   70.901">  2  9  1 -1</clus>
<clus scale="   84.360">  1  5  2 -1</clus>
<clus scale="   84.966">  7  8 -1 -1</clus>
<clus scale="  153.299">  7 10 -1 -1</clus>
<clus scale="   70.901">  2  5  1 -1</clus>
</clustering>
</event>
<event>
10    4  0.2565852E-005  0.2508694E+03  0.7546771E-02  0.1140339E+00
         21   -1    0    0  503  502  0.00000000000E+00  0.00000000000E+00  0.60669614504E+02  0.60669614504E+02  0.00000000000E+00 0. -1.
          2   -1    0    0  502    0 -0.00000000000E+00 -0.00000000000E+00 -0.11622129168E+04  0.11622129168E+04  0.00000000000E+00 0. -1.
         24    2    1    2    0    0 -0.10760785355E+03 -0.59987954846E+02 -0.37424133483E+03  0.40367977779E+03  0.87879357243E+02 0.  0.
         23    2    1    2    0    0 -0.42775687194E+00 -0.10038399754E+03 -0.39737426221E+03  0.42221083992E+03  0.10138322909E+03 0.  0.
        -11    1    3    3    0    0 -0.25585954679E+02 -0.25839083931E+02 -0.27104887416E+02  0.45353878082E+02  0.00000000000E+00 0.  1.
         12    1    3    3    0    0 -0.82021898871E+02 -0.34148870915E+02 -0.34713644741E+03  0.35832589971E+03  0.00000000000E+00 0. -1.
        -13    1    4    4    0    0  0.42323351193E+02 -0.51097387689E+02 -0.28166991778E+03  0.28937890675E+03  0.00000000000E+00 0.  1.
         13    1    4    4    0    0 -0.42751108065E+02 -0.49286609855E+02 -0.11570434443E+03  0.13283193318E+03  0.00000000000E+00 0. -1.
         21    1    1    2  503  501  0.49581561357E+02  0.80662142145E+02 -0.66700409510E+02  0.11581734339E+03  0.00000000000E+00 0. -1.
          1    1    1    2  501    0  0.58454049065E+02  0.79709810246E+02 -0.26322729575E+03  0.28117457020E+03  0.00000000000E+00 0. -1.
<scales pt_clust_5="13000.00000" pt_clust_6="13000.00000" pt_clust_7="13000.00000" pt_clust_8="13000.00000" pt_clust_9="94.68217" pt_clust_10="13000.00000"></scales>
<clustering>
<clus scale="   87.879">  5  6 -1 -1</clus>
<clus scale="   94.682">  1  9  2 -1</clus>
<clus scale="  101.383">  7  8 -1 -1</clus>
<clus scale="  122.311">  7 10 -1 -1</clus>
<clus scale="  126.870">  2  5  1 -1</clus>
<clus scale="   94.682">  1  5  2 -1</clus>
</clustering>
</event>
<event>
10    4  0.2565852E-005  0.4862886E+03  0.7546771E-02  0.1054576E+00
         21   -1    0    0  503  502  0.00000000000E+00  0.00000000000E+00  0.13241675097E+03  0.13241675097E+03  0.00000000000E+00 0.  1.
          2   -1    0    0  502    0 -0.00000000000E+00 -0.00000000000E+00 -0.11716837696E+04  0.11716837696E+04  0.00000000000E+00 0. -1.
         24    2    1    2    0    0 -0.13896697133E+03  0.12653676303E+02 -0.14422870741E+03  0.21680627920E+03  0.82043330094E+02 0.  0.
         23    2    1    2    0    0  0.27361295967E+02  0.39051320484E+01  0.80191708612E+01  0.10456146665E+03  0.10052314477E+03 0.  0.
        -11    1    3    3    0    0 -0.58407949955E+02 -0.20728710965E+02 -0.10332578423E+03  0.12048811461E+03  0.00000000000E+00 0.  1.
         12    1    3    3    0    0 -0.80559021374E+02  0.33382387268E+02 -0.40902923189E+02  0.96318164589E+02  0.00000000000E+00 0. -1.
        -11    1    4    4    0    0  0.47107963968E+02 -0.32603536672E+02  0.21084731442E+02  0.61046840808E+02  0.00000000000E+00 0.  1.
         11    1    4    4    0    0 -0.19746668001E+02  0.36508668720E+02 -0.13065560581E+02  0.43514625842E+02  0.00000000000E+00 0. -1.
         21    1    1    2  503  501 -0.25130693975E+01  0.21512895026E+02  0.32728126572E+02  0.39246024501E+02  0.00000000000E+00 0.  1.
          1    1    1    2  501    0  0.11411874476E+03 -0.38071703378E+02 -0.93578560860E+03  0.94348675018E+03  0.00000000000E+00 0. -1.
<scales pt_clust_5="13000.00000" pt_clust_6="13000.00000" pt_clust_7="13000.00000" pt_clust_8="13000.00000" pt_clust_9="21.65918" pt_clust_10="13000.00000"></scales>
<clustering>
<clus scale="   21.659">  1  9  2 -1</clus>
<clus scale="   82.043">  5  6 -1 -1</clus>
<clus scale="  100.523">  7  8 -1 -1</clus>
<clus scale="  119.937">  7 10 -1 -1</clus>
<clus scale="  163.515">  2  5  1 -1</clus>
<clus scale="   21.659">  1  5  2 -1</clus>
</clustering>
</event>
<event>
10    4  0.2565852E-005  0.3323900E+03  0.7546771E-02  0.1110812E+00
          2   -1    0    0  503    0 -0.00000000000E+00  0.00000000000E+00  0.43330616595E+03  0.43330616595E+03  0.00000000000E+00 0. -1.
         21   -1    0    0  501  502  0.00000000000E+00 -0.00000000000E+00 -0.25243356281E+03  0.25243356281E+03  0.00000000000E+00 0. -1.
         24    2    1    2    0    0  0.76991625321E+02 -0.18349248498E+01  0.18862461240E+03  0.21946287060E+03  0.81569785159E+02 0.  0.
         23    2    1    2    0    0  0.59969180935E+02  0.17766045675E+02  0.13856715994E+03  0.17778593878E+03  0.92168580179E+02 0.  0.
        -13    1    3    3    0    0  0.52700424036E+01  0.31814461702E+02  0.43871323605E+02  0.54448382484E+02  0.00000000000E+00 0.  1.
         14    1    3    3    0    0  0.71721582918E+02 -0.33649386552E+02  0.14475328880E+03  0.16501448812E+03  0.00000000000E+00 0. -1.
        -13    1    4    4    0    0  0.41717280692E+02  0.51876097484E+02  0.57512930990E+02  0.87972712983E+02  0.00000000000E+00 0. -1.
         13    1    4    4    0    0  0.18251900243E+02 -0.34110051810E+02  0.81054228947E+02  0.89813225792E+02  0.00000000000E+00 0.  1.
         21    1    1    2  503  502  0.14770503993E+02  0.55307717029E+02 -0.98928726729E+02  0.11429787541E+03  0.00000000000E+00 0. -1.
          1    1    1    2  501    0 -0.15173131025E+03 -0.71238837854E+02 -0.47390442471E+02  0.17419304397E+03  0.00000000000E+00 0. -1.
<scales pt_clust_5="13000.00000" pt_clust_6="13000.00000" pt_clust_7="13000.00000" pt_clust_8="13000.00000" pt_clust_9="57.24606" pt_clust_10="13000.00000"></scales>
<clustering>
<clus scale="   57.246">  2  9  1 -1</clus>
<clus scale="   81.570">  5  6 -1 -1</clus>
<clus scale="   92.169">  7  8 -1 -1</clus>
<clus scale="  113.315">  1  5  2 -1</clus>
<clus scale="  124.575">  7 10 -1 -1</clus>
<clus scale="   57.246">  2  5  1 -1</clus>
</clustering>
</event>
<event>
10    4  0.2565852E-005  0.4543951E+03  0.7546771E-02  0.1041606E+00
          2   -1    0    0  502    0 -0.00000000000E+00  0.00000000000E+00  0.87024469121E+03  0.87024469121E+03  0.00000000000E+00 0. -1.
         21   -1    0    0  503  502  0.00000000000E+00 -0.00000000000E+00 -0.37728255784E+03  0.37728255784E+03  0.00000000000E+00 0. -1.
         24    2    1    2    0    0 -0.10189917382E+03  0.23813986918E+03  0.14759021990E+03  0.30936333725E+03  0.82636326759E+02 0.  0.
         23    2    1    2    0    0  0.96026300336E+02 -0.23663611491E+03  0.13823432375E+03  0.30465722437E+03  0.92138997502E+02 0.  0.
        -11    1    3    3    0    0 -0.65807233770E+02  0.21352656810E+03  0.14335907999E+03  0.26547318719E+03  0.00000000000E+00 0.  1.
         12    1    3    3    0    0 -0.36091940052E+02  0.24613301084E+02  0.42311399123E+01  0.43890150056E+02  0.00000000000E+00 0. -1.
        -13    1    4    4    0    0 -0.78192974030E+01 -0.88547451040E+02  0.29704160605E+02  0.93723687800E+02  0.00000000000E+00 0.  1.
         13    1    4    4    0    0  0.10384559774E+03 -0.14808866387E+03  0.10853016315E+03  0.21093353657E+03  0.00000000000E+00 0. -1.
         21    1    1    2  503  501 -0.65858974225E+02  0.12902702290E+02 -0.20459673132E+03  0.21532233205E+03  0.00000000000E+00 0. -1.
          1    1    1    2  501    0  0.71731847711E+02 -0.14406456560E+02  0.41173432104E+03  0.41818435539E+03  0.00000000000E+00 0. -1.
<scales pt_clust_5="13000.00000" pt_clust_6="13000.00000" pt_clust_7="13000.00000" pt_clust_8="13000.00000" pt_clust_9="67.11098" pt_clust_10="13000.00000"></scales>
<clustering>
<clus scale="   67.111">  2  9  1 -1</clus>
<clus scale="   82.636">  5  6 -1 -1</clus>
<clus scale="   92.139">  7  8 -1 -1</clus>
<clus scale="   71.871">  7 10 -1 -1</clus>
<clus scale="  290.576">  1  5  2 -1</clus>
<clus scale="   67.111">  2  5  1 -1</clus>
</clustering>
</event>
<event>
10    4  0.2565852E-005  0.1691572E+03  0.7546771E-02  0.1192821E+00
         21   -1    0    0  503  502  0.00000000000E+00  0.00000000000E+00  0.60664196524E+03  0.60664196524E+03  0.00000000000E+00 0. -1.
         -1   -1    0    0    0  501 -0.00000000000E+00 -0.00000000000E+00 -0.48311483263E+02  0.48311483263E+02  0.00000000000E+00 0.  1.
         24    2    1    2    0    0  0.70647749792E+02 -0.70710522635E+01  0.12491567398E+03  0.17495770635E+03  0.99825693460E+02 0.  0.
         23    2    1    2    0    0 -0.74964796064E+02 -0.11717052788E+02  0.27375400649E+03  0.29853260004E+03  0.91779339958E+02 0.  0.
        -13    1    3    3    0    0  0.73820741906E+02 -0.43505428538E+02  0.82425209943E+02  0.11889549816E+03  0.00000000000E+00 0.  1.
         14    1    3    3    0    0 -0.31729921145E+01  0.36434376274E+02  0.42490464032E+02  0.56062208190E+02  0.00000000000E+00 0. -1.
        -13    1    4    4    0    0 -0.96089686954E+02 -0.13421111049E+02  0.20955087654E+03  0.23092190026E+03  0.00000000000E+00 0. -1.
         13    1    4    4    0    0  0.21124890890E+02  0.17040582612E+01  0.64203129947E+02  0.67610699779E+02  0.00000000000E+00 0.  1.
         21    1    1    2  503  501  0.19042806194E+01 -0.28349899781E+02  0.10716732027E+03  0.11087009352E+03  0.00000000000E+00 0. -1.
         -2    1    1    2    0  502  0.24127656528E+01  0.47138004833E+02  0.52493481243E+02  0.70593048600E+02  0.00000000000E+00 0.  1.
<scales pt_clust_5="13000.00000" pt_clust_6="13000.00000" pt_clust_7="13000.00000" pt_clust_8="13000.00000" pt_clust_9="28.41378" pt_clust_10="13000.00000"></scales>
<clustering>
<clus scale="   28.414">  1  9  2 -1</clus>
<clus scale="   91.779">  7  8 -1 -1</clus>
<clus scale="   43.712">  7 10 -1 -1</clus>
<clus scale="   99.826">  5  6 -1 -1</clus>
<clus scale="  123.618">  2  5  1 -1</clus>
<clus scale="   28.414">  1  5  2 -1</clus>
</clustering>
</event>
<event>
10    4  0.2565852E-005  0.2205841E+03  0.7546771E-02  0.1168761E+00
          2   -1    0    0  503    0 -0.00000000000E+00  0.00000000000E+00  0.96128427878E+03  0.96128427878E+03  0.00000000000E+00 0. -1.
         21   -1    0    0  501  502  0.00000000000E+00 -0.00000000000E+00 -0.14278782302E+03  0.14278782302E+03  0.00000000000E+00 0.  1.
         24    2    1    2    0    0 -0.21578856194E+02  0.56903195471E+02  0.13020832383E+03  0.16264699444E+03  0.76132887225E+02 0.  0.
         23    2    1    2    0    0  0.95870384951E+02 -0.89543448662E+01  0.32016601824E+03  0.34602386322E+03  0.89190378868E+02 0.  0.
        -13    1    3    3    0    0 -0.11352498423E+02  0.31777543767E+02  0.13123160946E+03  0.13550065251E+03  0.00000000000E+00 0.  1.
         14    1    3    3    0    0 -0.10226357771E+02  0.25125651704E+02 -0.10232856347E+01  0.27146341932E+02  0.00000000000E+00 0. -1.
        -11    1    4    4    0    0 -0.10025334757E+02 -0.22333863764E+02  0.62678272762E+02  0.67289484201E+02  0.00000000000E+00 0. -1.
         11    1    4    4    0    0  0.10589571971E+03  0.13379518898E+02  0.25748774547E+03  0.27873437902E+03  0.00000000000E+00 0.  1.
         21    1    1    2  503  502 -0.20241626261E+02 -0.16647209916E+02 -0.11007011225E+03  0.11314717249E+03  0.00000000000E+00 0.  1.
          1    1    1    2  501    0 -0.54049902496E+02 -0.31301640689E+02  0.47819222594E+03  0.48225407165E+03  0.00000000000E+00 0. -1.
<scales pt_clust_5="13000.00000" pt_clust_6="13000.00000" pt_clust_7="13000.00000" pt_clust_8="13000.00000" pt_clust_9="26.20788" pt_clust_10="13000.00000"></scales>
<clustering>
<clus scale="   26.208">  2  9  1 -1</clus>
<clus scale="   76.133">  5  6 -1 -1</clus>
<clus scale="   89.190">  7  8 -1 -1</clus>
<clus scale="   64.144">  7 10 -1 -1</clus>
<clus scale="   95.680">  1  5  2 -1</clus>
<clus scale="   26.208">  2  5  1 -1</clus>
</clustering>
</event>
<event>
10    4  0.2565852E-005  0.4016215E+03  0.7546771E-02  0.1097414E+00
          2   -1    0    0  503    0 -0.00000000000E+00  0.00000000000E+00  0.65125940427E+03  0.65125940427E+03  0.00000000000E+00 0. -1.
         21   -1    0    0  501  502  0.00000000000E+00 -0.00000000000E+00 -0.12269356762E+03  0.12269356762E+03  0.00000000000E+00 0. -1.
         24    2    1    2    0    0  0.45422677595E+01 -0.31650833531E+02  0.30720493679E+02  0.94184794237E+02  0.83094038740E+02 0.  0.
         23    2    1    2    0    0  0.49322232721E+02 -0.15612911474E+03  0.27976279434E+03  0.33777631596E+03  0.94955965674E+02 0.  0.
        -11    1    3    3    0    0 -0.69052774936E+01 -0.32800900016E+02  0.56646265857E+02  0.65820827514E+02  0.00000000000E+00 0.  1.
         12    1    3    3    0    0  0.11447545253E+02  0.11500664844E+01 -0.25925772178E+02  0.28363966723E+02  0.00000000000E+00 0. -1.
        -11    1    4    4    0    0 -0.21894819331E+02 -0.37198184015E+02  0.11274359902E+03  0.12072368089E+03  0.00000000000E+00 0.  1.
         11    1    4    4    0    0  0.71217052051E+02 -0.11893093072E+03  0.16701919532E+03  0.21705263507E+03  0.00000000000E+00 0. -1.
         21    1    1    2  503  502  0.20872192614E+02 -0.95431895386E+01 -0.15132518943E+02  0.27490253194E+02  0.00000000000E+00 0.  1.
          1    1    1    2  501    0 -0.74736693095E+02  0.19732313781E+03  0.23321506757E+03  0.31450160851E+03  0.00000000000E+00 0. -1.
<scales pt_clust_5="13000.00000" pt_clust_6="13000.00000" pt_clust_7="13000.00000" pt_clust_8="13000.00000" pt_clust_9="22.95040" pt_clust_10="13000.00000"></scales>
<clustering>
<clus scale="   22.950">  2  9  1 -1</clus>
<clus scale="   83.094">  5  6 -1 -1</clus>
<clus scale="   90.703">  1  5  2 -1</clus>
<clus scale="   94.956">  7  8 -1 -1</clus>
<clus scale="  188.382">  7 10 -1 -1</clus>
<clus scale="   22.950">  2  5  1 -1</clus>
</clustering>
</event>
<event>
10    4  0.2565852E-005  0.1494695E+03  0.7546771E-02  0.1219990E+00
         21   -1    0    0  503  502  0.00000000000E+00  0.00000000000E+00  0.42455766033E+02  0.42455766033E+02  0.00000000000E+00 0. -1.
          2   -1    0    0  502    0 -0.00000000000E+00 -0.00000000000E+00 -0.67207520617E+03  0.67207520617E+03  0.00000000000E+00 0. -1.
         24    2    1    2    0    0 -0.29184094551E+02 -0.49255249919E+02 -0.36406752068E+03  0.37745033870E+03  0.81521822552E+02 0.  0.
         23    2    1    2    0    0  0.12209425814E+02  0.83025776609E+02 -0.18391964498E+03  0.22165165541E+03  0.90888232895E+02 0.  0.
        -13    1    3    3    0    0 -0.20916136509E+02  0.19778368114E+02 -0.13633305600E+03  0.13933904969E+03  0.00000000000E+00 0.  1.
         14    1    3    3    0    0 -0.82679580425E+01 -0.69033618033E+02 -0.22773446468E+03  0.23811128901E+03  0.00000000000E+00 0. -1.
        -11    1    4    4    0    0 -0.32121169404E+02  0.22748655597E+02 -0.26779204501E+02  0.47606687020E+02  0.00000000000E+00 0.  1.
         11    1    4    4    0    0  0.44330595218E+02  0.60277121012E+02 -0.15714044048E+03  0.17404496839E+03  0.00000000000E+00 0. -1.
         21    1    1    2  503  501  0.24118729378E+02 -0.14915483068E+02  0.29178788743E+01  0.28507871879E+02  0.00000000000E+00 0. -1.
          1    1    1    2  501    0 -0.71440606407E+01 -0.18855043621E+02 -0.84550153354E+02  0.86921106209E+02  0.00000000000E+00 0. -1.
<scales pt_clust_5="13000.00000" pt_clust_6="13000.00000" pt_clust_7="13000.00000" pt_clust_8="13000.00000" pt_clust_9="28.35815" pt_clust_10="13000.00000"></scales>
<clustering>
<clus scale="   28.358">  1  9  2 -1</clus>
<clus scale="   81.522">  5  6 -1 -1</clus>
<clus scale="   90.888">  7  8 -1 -1</clus>
<clus scale="   20.440">  7 10 -1 -1</clus>
<clus scale="   99.947">  2  5  1 -1</clus>
<clus scale="   28.358">  1  5  2 -1</clus>
</clustering>
</event>
<event>
10    4  0.2565852E-005  0.4274368E+03  0.7546771E-02  0.1039046E+00
         21   -1    0    0  501  502  0.00000000000E+00  0.00000000000E+00  0.26706678737E+03  0.26706678737E+03  0.00000000000E+00 0.  1.
          2   -1    0    0  503    0 -0.00000000000E+00 -0.00000000000E+00 -0.83851300922E+03  0.83851300922E+03  0.00000000000E+00 0. -1.
         24    2    1    2    0    0 -0.28016700161E+03 -0.24419658793E+03 -0.13748021188E+03  0.40489686972E+03  0.83157345434E+02 0.  0.
         23    2    1    2    0    0  0.49860860893E+02  0.28326004580E+02 -0.64701573355E+02  0.12461941747E+03  0.89750975656E+02 0.  0.
        -13    1    3    3    0    0 -0.18994255308E+03 -0.12508800445E+03 -0.54074659534E+02  0.23377179284E+03  0.00000000000E+00 0.  1.
         14    1    3    3    0    0 -0.90224448533E+02 -0.11910858348E+03 -0.83405552344E+02  0.17112507687E+03  0.00000000000E+00 0. -1.
        -11    1    4    4    0    0  0.72278619078E+02  0.29204229180E+02 -0.30486544763E+02  0.83704929301E+02  0.00000000000E+00 0.  1.
         11    1    4    4    0    0 -0.22417758185E+02 -0.87822459966E+00 -0.34215028591E+02  0.40914488167E+02  0.00000000000E+00 0. -1.
         21    1    1    2  503  502 -0.15673824106E+02  0.31403939227E+02  0.46938173003E+02  0.58609455261E+02  0.00000000000E+00 0. -1.
          1    1    1    2  501    0  0.24597996482E+03  0.18446664413E+03 -0.41620260962E+03  0.51745405414E+03  0.00000000000E+00 0. -1.
<scales pt_clust_5="13000.00000" pt_clust_6="13000.00000" pt_clust_7="13000.00000" pt_clust_8="13000.00000" pt_clust_9="35.09809" pt_clust_10="13000.00000"></scales>
<clustering>
<clus scale="   35.098">  1  9  2 -1</clus>
<clus scale="   83.157">  5  6 -1 -1</clus>
<clus scale="   89.751">  7  8 -1 -1</clus>
<clus scale="  309.061">  7 10 -1 -1</clus>
<clus scale="  376.072">  2  5  1 -1</clus>
<clus scale="   35.098">  1  5  2 -1</clus>
</clustering>
</event>
<event>
10    4  0.2565852E-005  0.1832969E+03  0.7546771E-02  0.1190787E+00
         21   -1    0    0  503  502  0.00000000000E+00  0.00000000000E+00  0.40219511603E+02  0.40219511603E+02  0.00000000000E+00 0.  1.
          2   -1    0    0  502    0 -0.00000000000E+00 -0.00000000000E+00 -0.22589533065E+04  0.22589533065E+04  0.00000000000E+00 0. -1.
         24    2    1    2    0    0  0.32671285841E+02  0.58272559491E+02 -0.17861148394E+04  0.17891145450E+04  0.79129839775E+02 0.  0.
         23    2    1    2    0    0  0.12796161857E+02  0.32721948134E+02 -0.17899006503E+03  0.20463996446E+03  0.92766394917E+02 0.  0.
        -13    1    3    3    0    0 -0.57554332633E+01  0.22530471600E+02 -0.12341221167E+03  0.12558392076E+03  0.00000000000E+00 0.  1.
         14    1    3    3    0    0  0.38426719104E+02  0.35742087891E+02 -0.16627026277E+04  0.16635306242E+04  0.00000000000E+00 0. -1.
        -11    1    4    4    0    0 -0.94338969652E+00  0.59995137868E+02 -0.73842093166E+02  0.95147050795E+02  0.00000000000E+00 0.  1.
         11    1    4    4    0    0  0.13739551553E+02 -0.27273189734E+02 -0.10514797186E+03  0.10949291366E+03  0.00000000000E+00 0. -1.
         21    1    1    2  503  501 -0.98416227616E+01 -0.37301607435E+02  0.49839241974E+01  0.38898675507E+02  0.00000000000E+00 0.  1.
          1    1    1    2  501    0 -0.35625824936E+02 -0.53692900191E+02 -0.25861281469E+03  0.26651963315E+03  0.00000000000E+00 0. -1.
<scales pt_clust_5="13000.00000" pt_clust_6="13000.00000" pt_clust_7="13000.00000" pt_clust_8="13000.00000" pt_clust_9="38.57807" pt_clust_10="13000.00000"></scales>
<clustering>
<clus scale="   38.578">  1  9  2 -1</clus>
<clus scale="   79.130">  5  6 -1 -1</clus>
<clus scale="   92.766">  7  8 -1 -1</clus>
<clus scale="   72.387">  7 10 -1 -1</clus>
<clus scale="  101.613">  2  5  1 -1</clus>
<clus scale="   38.578">  1  5  2 -1</clus>
</clustering>
</event>
<event>
10    4  0.2565852E-005  0.1808683E+03  0.7546771E-02  0.1202414E+00
          2   -1    0    0  503    0 -0.00000000000E+00  0.00000000000E+00  0.47590523383E+03  0.47590523383E+03  0.00000000000E+00 0. -1.
         21   -1    0    0  501  502  0.00000000000E+00 -0.00000000000E+00 -0.78713448351E+02  0.78713448351E+02  0.00000000000E+00 0.  1.
         24    2    1    2    0    0 -0.15075357285E+01 -0.18643514350E+02  0.22134253448E+03  0.23603117155E+03  0.79801898991E+02 0.  0.
         23    2    1    2    0    0 -0.21246805565E+02 -0.57243087635E+02  0.12121693713E+03  0.16067261817E+03  0.85988060533E+02 0.  0.
        -13    1    3    3    0    0 -0.34029786009E+02 -0.49029187618E+01  0.17173472018E+03  0.17514245363E+03  0.00000000000E+00 0.  1.
         14    1    3    3    0    0  0.32522250281E+02 -0.13740595588E+02  0.49607814299E+02  0.60888717920E+02  0.00000000000E+00 0. -1.
        -11    1    4    4    0    0 -0.58618531260E+01 -0.75318930318E+02  0.11223724148E+03  0.13529412759E+03  0.00000000000E+00 0.  1.
         11    1    4    4    0    0 -0.15384952439E+02  0.18075842682E+02  0.89796956568E+01  0.25378490584E+02  0.00000000000E+00 0. -1.
         21    1    1    2  503  502  0.24156547575E+02 -0.98400838991E+00 -0.33274451573E+02  0.41130234508E+02  0.00000000000E+00 0.  1.
          1    1    1    2  501    0 -0.14022062813E+01  0.76870610375E+02  0.87906765441E+02  0.11678465795E+03  0.00000000000E+00 0. -1.
<scales pt_clust_5="13000.00000" pt_clust_6="13000.00000" pt_clust_7="13000.00000" pt_clust_8="13000.00000" pt_clust_9="24.17658" pt_clust_10="13000.00000"></scales>
<clustering>
<clus scale="   24.177">  2  9  1 -1</clus>
<clus scale="   79.802">  5  6 -1 -1</clus>
<clus scale="   82.037">  1  5  2 -1</clus>
<clus scale="   85.988">  7  8 -1 -1</clus>
<clus scale="   69.014">  7 10 -1 -1</clus>
<clus scale="   24.177">  2  5  1 -1</clus>
</clustering>
</event>
<event>
10    4  0.2565852E-005  0.2899329E+03  0.7546771E-02  0.1138740E+00
         21   -1    0    0  501  502  0.00000000000E+00  0.00000000000E+00  0.68916759792E+02  0.68916759792E+02  0.00000000000E+00 0. -1.
          2   -1    0    0  503    0 -0.00000000000E+00 -0.00000000000E+00 -0.71109676251E+03  0.71109676251E+03  0.00000000000E+00 0. -1.
         24    2    1    2    0    0  0.24066045384E+02 -0.50065058114E+01 -0.14989396201E+03  0.17205074233E+03  0.80802341848E+02 0.  0.
         23    2    1    2    0    0 -0.13178916947E+03 -0.18466598836E+02 -0.42726428267E+03  0.45686060093E+03  0.91964346215E+02 0.  0.
        -11    1    3    3    0    0  0.32760705090E+02 -0.14258776408E+02 -0.15447492688E+03  0.15855308113E+03  0.00000000000E+00 0.  1.
         12    1    3    3    0    0 -0.86946597056E+01  0.92522705971E+01  0.45809648702E+01  0.13497661195E+02  0.00000000000E+00 0. -1.
        -13    1    4    4    0    0 -0.34918931003E+02  0.14868248967E+02 -0.35657149381E+02  0.52075223203E+02  0.00000000000E+00 0.  1.
         13    1    4    4    0    0 -0.96870238468E+02 -0.33334847803E+02 -0.39160713329E+03  0.40478537773E+03  0.00000000000E+00 0. -1.
         21    1    1    2  503  502  0.16302542104E+02  0.38728470870E+02 -0.95696700515E+01  0.43095776126E+02  0.00000000000E+00 0.  1.
          1    1    1    2  501    0  0.91420581983E+02 -0.15255366223E+02 -0.55452087988E+02  0.10800640292E+03  0.00000000000E+00 0. -1.
<scales pt_clust_5="13000.00000" pt_clust_6="13000.00000" pt_clust_7="13000.00000" pt_clust_8="13000.00000" pt_clust_9="42.01984" pt_clust_10="13000.00000"></scales>
<clustering>
<clus scale="   42.020">  1  9  2 -1</clus>
<clus scale="   80.802">  5  6 -1 -1</clus>
<clus scale="   85.424">  2  5  1 -1</clus>
<clus scale="   91.964">  7  8 -1 -1</clus>
<clus scale="  105.570">  7 10 -1 -1</clus>
<clus scale="   42.020">  1  5  2 -1</clus>
</clustering>
</event>
<event>
10    4  0.2565852E-005  0.6261382E+03  0.7546771E-02  0.1033136E+00
         21   -1    0    0  503  502  0.00000000000E+00  0.00000000000E+00  0.98665092385E+03  0.98665092385E+03  0.00000000000E+00 0.  1.
         -3   -1    0    0    0  501 -0.00000000000E+00 -0.00000000000E+00 -0.16385325523E+03  0.16385325523E+03  0.00000000000E+00 0.  1.
         24    2    1    2    0    0 -0.97841137228E+02 -0.57591066759E+02  0.16579461406E+03  0.21668040125E+03  0.81073566142E+02 0.  0.
         23    2    1    2    0    0  0.23067495054E+03  0.28826354204E+03  0.31261964993E+03  0.49234577085E+03  0.91468628907E+02 0.  0.
        -13    1    3    3    0    0 -0.50381716038E+02 -0.36938921946E+02  0.15012102195E+03  0.16260111469E+03  0.00000000000E+00 0.  1.
         14    1    3    3    0    0 -0.47459421190E+02 -0.20652144814E+02  0.15673592112E+02  0.54079286560E+02  0.00000000000E+00 0. -1.
        -11    1    4    4    0    0  0.12403205759E+03  0.21332630546E+03  0.23434913672E+03  0.34031100745E+03  0.00000000000E+00 0.  1.
         11    1    4    4    0    0  0.10664289295E+03  0.74937236580E+02  0.78270513214E+02  0.15203476340E+03  0.00000000000E+00 0. -1.
         21    1    1    2  503  501 -0.63504038816E+01 -0.20696842354E+02  0.71300107195E+02  0.74514375787E+02  0.00000000000E+00 0. -1.
         -4    1    1    2    0  502 -0.12648340943E+03 -0.20997563292E+03  0.27308329743E+03  0.36696363119E+03  0.00000000000E+00 0.  1.
<scales pt_clust_5="13000.00000" pt_clust_6="13000.00000" pt_clust_7="13000.00000" pt_clust_8="13000.00000" pt_clust_9="21.64918" pt_clust_10="13000.00000"></scales>
<clustering>
<clus scale="   21.649">  1  9  2 -1</clus>
<clus scale="   81.074">  5  6 -1 -1</clus>
<clus scale="   91.469">  7  8 -1 -1</clus>
<clus scale="  142.275">  2  5  1 -1</clus>
<clus scale="  291.529">  7 10 -1 -1</clus>
<clus scale="   21.649">  1  5  2 -1</clus>
</clustering>
</event>
<event>
10    4  0.2565852E-005  0.4252111E+03  0.7546771E-02  0.1082993E+00
          2   -1    0    0  503    0 -0.00000000000E+00  0.00000000000E+00  0.81887282505E+02  0.81887282505E+02  0.00000000000E+00 0. -1.
         21   -1    0    0  501  502  0.00000000000E+00 -0.00000000000E+00 -0.11755869340E+04  0.11755869340E+04  0.00000000000E+00 0. -1.
         24    2    1    2    0    0  0.35973596889E+02 -0.45590093694E+02 -0.23930608725E+03  0.26450049664E+03  0.96543011220E+02 0.  0.
         23    2    1    2    0    0 -0.11682501706E+03  0.14036423382E+03 -0.19117362878E+03  0.27835447876E+03  0.87084193493E+02 0.  0.
        -13    1    3    3    0    0  0.33123432851E+02  0.31288652554E+01 -0.17901454197E+02  0.37781128411E+02  0.00000000000E+00 0.  1.
         14    1    3    3    0    0  0.28501640378E+01 -0.48718958949E+02 -0.22140463305E+03  0.22671936823E+03  0.00000000000E+00 0. -1.
        -13    1    4    4    0    0  0.48651959001E+00  0.49196377028E+02 -0.75261713869E+02  0.89915770522E+02  0.00000000000E+00 0. -1.
         13    1    4    4    0    0 -0.11731153665E+03  0.91167856788E+02 -0.11591191491E+03  0.18843870824E+03  0.00000000000E+00 0.  1.
         21    1    1    2  503  502 -0.55495299271E+02 -0.25971178802E+02 -0.40505039360E+02  0.73449905263E+02  0.00000000000E+00 0. -1.
          1    1    1    2  501    0  0.13634671944E+03 -0.68802961321E+02 -0.62271489608E+03  0.64116933581E+03  0.00000000000E+00 0. -1.
<scales pt_clust_5="13000.00000" pt_clust_6="13000.00000" pt_clust_7="13000.00000" pt_clust_8="13000.00000" pt_clust_9="61.27181" pt_clust_10="13000.00000"></scales>
<clustering>
<clus scale="   61.272">  2  9  1 -1</clus>
<clus scale="   87.084">  7  8 -1 -1</clus>
<clus scale="   96.543">  5  6 -1 -1</clus>
<clus scale="  111.882">  1  5  2 -1</clus>
<clus scale="  147.978">  7 10 -1 -1</clus>
<clus scale="   61.272">  2  5  1 -1</clus>
</clustering>
</event>
<event>
10    4  0.2565852E-005  0.1936500E+03  0.7546771E-02  0.1185174E+00
         21   -1    0    0  501  502  0.00000000000E+00  0.00000000000E+00  0.61041028401E+02  0.61041028401E+02  0.00000000000E+00 0.  1.
          2   -1    0    0  503    0 -0.00000000000E+00 -0.00000000000E+00 -0.90782173655E+03  0.90782173655E+03  0.00000000000E+00 0. -1.
         24    2    1    2    0    0 -0.26956318330E+02  0.37277633568E+02 -0.58411599743E+03  0.59248279431E+03  0.87909601480E+02 0.  0.
         23    2    1    2    0    0 -0.71411431155E+01  0.25270335656E+01 -0.28726765278E+03  0.29926956397E+03  0.83559474381E+02 0.  0.
        -13    1    3    3    0    0  0.66710363412E+01 -0.22619926651E+02 -0.71596234529E+02  0.75380266690E+02  0.00000000000E+00 0.  1.
         14    1    3    3    0    0 -0.33627354671E+02  0.59897560219E+02 -0.51251976290E+03  0.51710252762E+03  0.00000000000E+00 0. -1.
        -11    1    4    4    0    0 -0.40557977114E+02  0.20760627686E+02 -0.16840989539E+03  0.17446445494E+03  0.00000000000E+00 0. -1.
         11    1    4    4    0    0  0.33416833999E+02 -0.18233594121E+02 -0.11885775739E+03  0.12480510903E+03  0.00000000000E+00 0.  1.
         21    1    1    2  503  502 -0.93381050893E+00 -0.37966419893E+02  0.13751262366E+02  0.40390818984E+02  0.00000000000E+00 0.  1.
          1    1    1    2  501    0  0.35031271955E+02 -0.18382472411E+01  0.10851679702E+02  0.36719587689E+02  0.00000000000E+00 0. -1.
<scales pt_clust_5="13000.00000" pt_clust_6="13000.00000" pt_clust_7="13000.00000" pt_clust_8="13000.00000" pt_clust_9="37.97790" pt_clust_10="13000.00000"></scales>
<clustering>
<clus scale="   37.978">  1  9  2 -1</clus>
<clus scale="   83.559">  7  8 -1 -1</clus>
<clus scale="   44.605">  7 10 -1 -1</clus>
<clus scale="   87.910">  5  6 -1 -1</clus>
<clus scale="   97.590">  2  5  1 -1</clus>
<clus scale="   37.978">  1  5  2 -1</clus>
</clustering>
</event>
<event>
10    4  0.2565852E-005  0.4690837E+03  0.7546771E-02  0.1038043E+00
          2   -1    0    0  502    0 -0.00000000000E+00  0.00000000000E+00  0.12895347804E+04  0.12895347804E+04  0.00000000000E+00 0. -1.
         21   -1    0    0  503  502  0.00000000000E+00 -0.00000000000E+00 -0.17795101088E+03  0.17795101088E+03  0.00000000000E+00 0.  1.
         24    2    1    2    0    0 -0.15888091560E+03 -0.23386010390E+03  0.78656945698E+02  0.30430493879E+03  0.80503957206E+02 0.  0.
         23    2    1    2    0    0 -0.56917408210E+02 -0.41534299430E+02  0.31418728438E+03  0.33487411599E+03  0.91990947949E+02 0.  0.
        -13    1    3    3    0    0 -0.13201510553E+03 -0.22517868641E+03  0.53415498810E+02  0.26643318940E+03  0.00000000000E+00 0.  1.
         14    1    3    3    0    0 -0.26865810071E+02 -0.86814174864E+01  0.25241446889E+02  0.37871749384E+02  0.00000000000E+00 0. -1.
        -13    1    4    4    0    0  0.17420330468E+02 -0.29295022182E+02  0.52791241802E+02  0.62837739052E+02  0.00000000000E+00 0. -1.
         13    1    4    4    0    0 -0.74337738678E+02 -0.12239277249E+02  0.26139604258E+03  0.27203637693E+03  0.00000000000E+00 0.  1.
         21    1    1    2  503  501 -0.20621660778E+02  0.16829636960E+02 -0.22356803736E+01  0.26711193163E+02  0.00000000000E+00 0. -1.
          1    1    1    2  501    0  0.23641998459E+03  0.25856476637E+03  0.72097521978E+03  0.80159554331E+03  0.00000000000E+00 0. -1.
<scales pt_clust_5="13000.00000" pt_clust_6="13000.00000" pt_clust_7="13000.00000" pt_clust_8="13000.00000" pt_clust_9="26.61747" pt_clust_10="13000.00000"></scales>
<clustering>
<clus scale="   26.617">  2  9  1 -1</clus>
<clus scale="   80.504">  5  6 -1 -1</clus>
<clus scale="   91.991">  7  8 -1 -1</clus>
<clus scale="  292.988">  1  5  2 -1</clus>
<clus scale="  154.043">  7 10 -1 -1</clus>
<clus scale="   26.617">  2  5  1 -1</clus>
</clustering>
</event>
<event>
10    4  0.2565852E-005  0.2418810E+03  0.7546771E-02  0.1134983E+00
         21   -1    0    0  503  502  0.00000000000E+00  0.00000000000E+00  0.11038918447E+03  0.11038918447E+03  0.00000000000E+00 0. -1.
          2   -1    0    0  502    0 -0.00000000000E+00 -0.00000000000E+00 -0.18706159575E+04  0.18706159575E+04  0.00000000000E+00 0. -1.
         24    2    1    2    0    0  0.13884847134E+03 -0.30032134590E+02 -0.17085448926E+04  0.17161829090E+04  0.77312999338E+02 0.  0.
         23    2    1    2    0    0 -0.32091726552E+01 -0.15607642507E+02  0.20448416972E+02  0.92291830585E+02  0.88576221089E+02 0.  0.
        -13    1    3    3    0    0  0.18029870541E+02 -0.12827190880E+02 -0.78009934283E+02  0.81087378207E+02  0.00000000000E+00 0.  1.
         14    1    3    3    0    0  0.12081860080E+03 -0.17204943710E+02 -0.16305349583E+04  0.16350955308E+04  0.00000000000E+00 0. -1.
        -13    1    4    4    0    0 -0.35656862789E+02  0.13234705274E+02 -0.99257710138E+01  0.39307635618E+02  0.00000000000E+00 0.  1.
         13    1    4    4    0    0  0.32447690134E+02 -0.28842347781E+02  0.30374187986E+02  0.52984194967E+02  0.00000000000E+00 0. -1.
         21    1    1    2  503  501 -0.12689136911E+02  0.19275344817E+02  0.68091021987E+01  0.24060693799E+02  0.00000000000E+00 0. -1.
          1    1    1    2  501    0 -0.12295016178E+03  0.26364432280E+02 -0.78939399605E+02  0.14846970863E+03  0.00000000000E+00 0. -1.
<scales pt_clust_5="13000.00000" pt_clust_6="13000.00000" pt_clust_7="13000.00000" pt_clust_8="13000.00000" pt_clust_9="23.07711" pt_clust_10="13000.00000"></scales>
<clustering>
<clus scale="   23.077">  1  9  2 -1</clus>
<clus scale="   77.313">  5  6 -1 -1</clus>
<clus scale="   88.576">  7  8 -1 -1</clus>
<clus scale="  131.901">  7 10 -1 -1</clus>
<clus scale="  161.154">  2  5  1 -1</clus>
<clus scale="   23.077">  1  5  2 -1</clus>
</clustering>
</event>
<event>
10    4  0.2565852E-005  0.2765663E+03  0.7546771E-02  0.1116542E+00
         21   -1    0    0  501  502  0.00000000000E+00  0.00000000000E+00  0.81959439728E+02  0.81959439728E+02  0.00000000000E+00 0. -1.
          2   -1    0    0  503    0 -0.00000000000E+00 -0.00000000000E+00 -0.10295199595E+04  0.10295199595E+04  0.00000000000E+00 0. -1.
         24    2    1    2    0    0  0.17099080297E+03 -0.20541610341E+02 -0.14061501818E+03  0.23672864037E+03  0.81289934051E+02 0.  0.
         23    2    1    2    0    0 -0.15075529678E+02  0.68345992144E+02 -0.31666390578E+03  0.33692454879E+03  0.91343725119E+02 0.  0.
        -13    1    3    3    0    0  0.77948859657E+02  0.15315726290E+02 -0.10318638387E+03  0.13022298572E+03  0.00000000000E+00 0.  1.
         14    1    3    3    0    0  0.93041943312E+02 -0.35857336631E+02 -0.37428634305E+02  0.10650565465E+03  0.00000000000E+00 0. -1.
        -11    1    4    4    0    0  0.10981609637E+02 -0.19503242613E+02 -0.82145972939E+02  0.85140666504E+02  0.00000000000E+00 0. -1.
         11    1    4    4    0    0 -0.26057139316E+02  0.87849234757E+02 -0.23451793284E+03  0.25178388229E+03  0.00000000000E+00 0.  1.
         21    1    1    2  503  502 -0.33431315482E+02  0.49820989948E+02 -0.91812247860E+02  0.10967804134E+03  0.00000000000E+00 0. -1.
          1    1    1    2  501    0 -0.12248395781E+03 -0.97625371751E+02 -0.39846934798E+03  0.42814816875E+03  0.00000000000E+00 0. -1.
<scales pt_clust_5="13000.00000" pt_clust_6="13000.00000" pt_clust_7="13000.00000" pt_clust_8="13000.00000" pt_clust_9="59.99820" pt_clust_10="13000.00000"></scales>
<clustering>
<clus scale="   59.998">  1  9  2 -1</clus>
<clus scale="   81.290">  5  6 -1 -1</clus>
<clus scale="   91.344">  7  8 -1 -1</clus>
<clus scale="  156.106">  7 10 -1 -1</clus>
<clus scale="  170.165">  2  5  1 -1</clus>
<clus scale="   59.998">  1  5  2 -1</clus>
</clustering>
</event>
<event>
10    4  0.2565852E-005  0.8911854E+03  0.7546771E-02  0.1005094E+00
          2   -1    0    0  503    0 -0.00000000000E+00  0.00000000000E+00  0.40397586853E+03  0.40397586853E+03  0.00000000000E+00 0. -1.
         21   -1    0    0  501  502  0.00000000000E+00 -0.00000000000E+00 -0.84526262720E+03  0.84526262720E+03  0.00000000000E+00 0. -1.
         24    2    1    2    0    0 -0.77585231808E+02 -0.15957326689E+02 -0.23947295771E+03  0.26546538033E+03  0.82767543235E+02 0.  0.
         23    2    1    2    0    0 -0.34087944465E+03 -0.85395476230E+02 -0.25845983004E+03  0.44456399285E+03  0.85699923274E+02 0.  0.
        -13    1    3    3    0    0 -0.66789214985E+02  0.16821446436E+02 -0.20669857071E+03  0.21787165816E+03  0.00000000000E+00 0.  1.
         14    1    3    3    0    0 -0.10796016822E+02 -0.32778773125E+02 -0.32774386999E+02  0.47593722169E+02  0.00000000000E+00 0. -1.
        -11    1    4    4    0    0 -0.29195598130E+03 -0.40219333534E+02 -0.20245210879E+03  0.35755103993E+03  0.00000000000E+00 0. -1.
         11    1    4    4    0    0 -0.48923463353E+02 -0.45176142696E+02 -0.56007721255E+02  0.87012952918E+02  0.00000000000E+00 0.  1.
         21    1    1    2  503  502 -0.72561125789E+01  0.19124454381E+02 -0.81591568904E+02  0.84116467124E+02  0.00000000000E+00 0.  1.
          1    1    1    2  501    0  0.42572078904E+03  0.82228348538E+02  0.13823759798E+03  0.45509265542E+03  0.00000000000E+00 0. -1.
<scales pt_clust_5="13000.00000" pt_clust_6="13000.00000" pt_clust_7="13000.00000" pt_clust_8="13000.00000" pt_clust_9="20.45473" pt_clust_10="13000.00000"></scales>
<clustering>
<clus scale="   20.455">  2  9  1 -1</clus>
<clus scale="   82.768">  5  6 -1 -1</clus>
<clus scale="   85.700">  7  8 -1 -1</clus>
<clus scale="  115.504">  1  5  2 -1</clus>
<clus scale="  372.032">  7 10 -1 -1</clus>
<clus scale="   20.455">  2  5  1 -1</clus>
</clustering>
</event>
<event>
10    4  0.2565852E-005  0.2256849E+03  0.7546771E-02  0.1140947E+00
         21   -1    0    0  501  502  0.00000000000E+00  0.00000000000E+00  0.16804095791E+03  0.16804095791E+03  0.00000000000E+00 0.  1.
          2   -1    0    0  503    0 -0.00000000000E+00 -0.00000000000E+00 -0.44246787606E+03  0.44246787606E+03  0.00000000000E+00 0. -1.
         24    2    1    2    0    0 -0.34534291608E+02  0.13525186442E+03 -0.53753780134E+02  0.17011511761E+03  0.81018517851E+02 0.  0.
         23    2    1    2    0    0  0.30430973683E+02 -0.93126393900E+02 -0.26593022818E+03  0.29777749496E+03  0.91400114049E+02 0.  0.
        -13    1    3    3    0    0 -0.27764532463E+02  0.14412866995E+03 -0.58470379408E+02  0.15799597473E+03  0.00000000000E+00 0.  1.
         14    1    3    3    0    0 -0.67697591447E+01 -0.88768055304E+01  0.47165992742E+01  0.12119142875E+02  0.00000000000E+00 0. -1.
        -13    1    4    4    0    0 -0.15542620516E+02 -0.58629491506E+02 -0.65508004894E+02  0.89276475244E+02  0.00000000000E+00 0.  1.
         13    1    4    4    0    0  0.45973594199E+02 -0.34496902394E+02 -0.20042222328E+03  0.20850101972E+03  0.00000000000E+00 0. -1.
         21    1    1    2  503  502  0.17209152176E+02  0.24176970876E+02  0.65629520996E+02  0.72027181435E+02  0.00000000000E+00 0.  1.
          1    1    1    2  501    0 -0.13105834251E+02 -0.66302441391E+02 -0.20372430834E+02  0.70589039970E+02  0.00000000000E+00 0. -1.
<scales pt_clust_5="13000.00000" pt_clust_6="13000.00000" pt_clust_7="13000.00000" pt_clust_8="13000.00000" pt_clust_9="29.67627" pt_clust_10="13000.00000"></scales>
<clustering>
<clus scale="   29.676">  1  9  2 -1</clus>
<clus scale="   81.019">  5  6 -1 -1</clus>
<clus scale="   91.400">  7  8 -1 -1</clus>
<clus scale="   60.817">  7 10 -1 -1</clus>
<clus scale="  171.729">  2  5  1 -1</clus>
<clus scale="   29.676">  1  5  2 -1</clus>
</clustering>
</event>
<event>
10    4  0.2565852E-005  0.5813864E+03  0.7546771E-02  0.1045835E+00
          2   -1    0    0  502    0 -0.00000000000E+00  0.00000000000E+00  0.29594656964E+04  0.29594656964E+04  0.00000000000E+00 0. -1.
         21   -1    0    0  503  502  0.00000000000E+00 -0.00000000000E+00 -0.49576012185E+02  0.49576012185E+02  0.00000000000E+00 0. -1.
         24    2    1    2    0    0  0.95403452111E+02 -0.89938140164E-01  0.59363070598E+03  0.60661720650E+03  0.80530698337E+02 0.  0.
         23    2    1    2    0    0  0.18812292443E+02  0.24112797576E+03  0.67568240200E+03  0.72340855137E+03  0.90975935171E+02 0.  0.
        -11    1    3    3    0    0  0.38411739809E+02 -0.39059526116E+02  0.30171637922E+03  0.30664944452E+03  0.00000000000E+00 0.  1.
         12    1    3    3    0    0  0.56991712302E+02  0.38969587976E+02  0.29191432676E+03  0.29996776198E+03  0.00000000000E+00 0. -1.
        -11    1    4    4    0    0 -0.26845870482E+02  0.25679226638E+02  0.12209692641E+03  0.12762359845E+03  0.00000000000E+00 0.  1.
         11    1    4    4    0    0  0.45658162925E+02  0.21544874913E+03  0.55358547559E+03  0.59578495292E+03  0.00000000000E+00 0. -1.
         21    1    1    2  503  501 -0.18344446441E+02  0.24447054022E+02  0.26525500098E+02  0.40469486296E+02  0.00000000000E+00 0.  1.
          1    1    1    2  501    0 -0.95871298113E+02 -0.26548509164E+03  0.16140510762E+04  0.16385464645E+04  0.00000000000E+00 0. -1.
<scales pt_clust_5="13000.00000" pt_clust_6="13000.00000" pt_clust_7="13000.00000" pt_clust_8="13000.00000" pt_clust_9="30.56431" pt_clust_10="13000.00000"></scales>
<clustering>
<clus scale="   30.564">  2  9  1 -1</clus>
<clus scale="   80.531">  5  6 -1 -1</clus>
<clus scale="   90.976">  7  8 -1 -1</clus>
<clus scale="  122.779">  1  5  2 -1</clus>
<clus scale="  259.044">  7 10 -1 -1</clus>
<clus scale="   30.564">  2  5  1 -1</clus>
</clustering>
</event>
<event>
10    4  0.2565852E-005  0.1391224E+04  0.7546771E-02  0.9485225E-01
          2   -1    0    0  502    0 -0.00000000000E+00  0.00000000000E+00  0.15768329455E+04  0.15768329455E+04  0.00000000000E+00 0. -1.
         21   -1    0    0  503  502  0.00000000000E+00 -0.00000000000E+00 -0.46605732738E+03  0.46605732738E+03  0.00000000000E+00 0. -1.
         24    2    1    2    0    0 -0.15533441894E+03 -0.77209619122E+02  0.12757266931E+03  0.22956904404E+03  0.79605609292E+02 0.  0.
         23    2    1    2    0    0  0.53725757116E+03 -0.17858719955E+03 -0.31950664682E+02  0.57441443214E+03  0.91607910478E+02 0.  0.
        -13    1    3    3    0    0 -0.87746743412E+01 -0.35896673791E+02  0.13632858508E+02  0.39388081067E+02  0.00000000000E+00 0.  1.
         14    1    3    3    0    0 -0.14655974460E+03 -0.41312945331E+02  0.11393981080E+03  0.19018096297E+03  0.00000000000E+00 0. -1.
        -13    1    4    4    0    0  0.67884446109E+02  0.53271695164E+01  0.87615044636E+01  0.68654502541E+02  0.00000000000E+00 0.  1.
         13    1    4    4    0    0  0.46937312505E+03 -0.18391436907E+03 -0.40712169145E+02  0.50575992959E+03  0.00000000000E+00 0. -1.
         21    1    1    2  503  501 -0.24371601348E+02 -0.76742525138E+02 -0.29512533172E+02  0.85757680304E+02  0.00000000000E+00 0. -1.
          1    1    1    2  501    0 -0.35755155087E+03  0.33253934381E+03  0.10446661467E+04  0.11531491164E+04  0.00000000000E+00 0. -1.
<scales pt_clust_5="13000.00000" pt_clust_6="13000.00000" pt_clust_7="13000.00000" pt_clust_8="13000.00000" pt_clust_9="80.51950" pt_clust_10="13000.00000"></scales>
<clustering>
<clus scale="   79.606">  5  6 -1 -1</clus>
<clus scale="   80.520">  2  9  1 -1</clus>
<clus scale="   91.608">  7  8 -1 -1</clus>
<clus scale="  197.366">  1  5  2 -1</clus>
<clus scale="  547.682">  7 10 -1 -1</clus>
<clus scale="   80.520">  2  5  1 -1</clus>
</clustering>
</event>
<event>
10    4  0.2565852E-005  0.1903685E+03  0.7546771E-02  0.1172668E+00
         21   -1    0    0  503  502  0.00000000000E+00  0.00000000000E+00  0.12092738567E+03  0.12092738567E+03  0.00000000000E+00 0.  1.
         -1   -1    0    0    0  501 -0.00000000000E+00 -0.00000000000E+00 -0.60336439067E+03  0.60336439067E+03  0.00000000000E+00 0.  1.
         24    2    1    2    0    0  0.24418717941E+01  0.69770561902E+02 -0.25875455768E+02  0.10986780600E+03  0.80792954761E+02 0.  0.
         23    2    1    2    0    0  0.62548721240E+02 -0.82806245160E+02 -0.30768645869E+03  0.33851192106E+03  0.95656401109E+02 0.  0.
        -13    1    3    3    0    0  0.37320225315E+02  0.59396504524E+02 -0.13520661964E+02  0.71439150801E+02  0.00000000000E+00 0.  1.
         14    1    3    3    0    0 -0.34878353520E+02  0.10374057377E+02 -0.12354793804E+02  0.38428655203E+02  0.00000000000E+00 0. -1.
        -11    1    4    4    0    0 -0.22226224606E+02 -0.28885844972E+01 -0.75161916092E+02  0.78432535412E+02  0.00000000000E+00 0. -1.
         11    1    4    4    0    0  0.84774945846E+02 -0.79917660663E+02 -0.23252454260E+03  0.26007938565E+03  0.00000000000E+00 0.  1.
         21    1    1    2  503  501 -0.27135479312E+02  0.56734085665E+02  0.42560038536E+02  0.75937129218E+02  0.00000000000E+00 0.  1.
         -2    1    1    2    0  502 -0.37855113722E+02 -0.43698402406E+02 -0.19143512908E+03  0.19997492006E+03  0.00000000000E+00 0.  1.
<scales pt_clust_5="13000.00000" pt_clust_6="13000.00000" pt_clust_7="13000.00000" pt_clust_8="13000.00000" pt_clust_9="62.88951" pt_clust_10="13000.00000"></scales>
<clustering>
<clus scale="   62.890">  1  9  2 -1</clus>
<clus scale="   80.793">  5  6 -1 -1</clus>
<clus scale="   95.656">  7  8 -1 -1</clus>
<clus scale="   56.218">  7 10 -1 -1</clus>
<clus scale="  136.144">  2  5  1 -1</clus>
<clus scale="   62.890">  1  5  2 -1</clus>
</clustering>
</event>
<event>
10    4  0.2565852E-005  0.5851551E+03  0.7546771E-02  0.1052520E+00
         21   -1    0    0  501  502  0.00000000000E+00  0.00000000000E+00  0.53998718096E+03  0.53998718096E+03  0.00000000000E+00 0.  1.
          2   -1    0    0  503    0 -0.00000000000E+00 -0.00000000000E+00 -0.20398883903E+04  0.20398883903E+04  0.00000000000E+00 0. -1.
         24    2    1    2    0    0 -0.57582721718E+02 -0.15701376899E+02 -0.28248888238E+03  0.29949309386E+03  0.79585435363E+02 0.  0.
         23    2    1    2    0    0 -0.16669374900E+03  0.20573036774E+03 -0.10133106912E+04  0.10509998904E+04  0.87695054592E+02 0.  0.
        -13    1    3    3    0    0 -0.43379170955E+02 -0.19672060166E+02 -0.28061227512E+03  0.28462605533E+03  0.00000000000E+00 0.  1.
         14    1    3    3    0    0 -0.14203550763E+02  0.39706832670E+01 -0.18766072651E+01  0.14867038532E+02  0.00000000000E+00 0. -1.
        -13    1    4    4    0    0 -0.99591260490E+02  0.13725096623E+03 -0.47841670239E+03  0.50758131174E+03  0.00000000000E+00 0.  1.
         13    1    4    4    0    0 -0.67102488507E+02  0.68479401507E+02 -0.53489398883E+03  0.54341857871E+03  0.00000000000E+00 0. -1.
         21    1    1    2  503  502  0.21668477208E+03  0.84952373367E+02  0.45726425970E+03  0.51308849080E+03  0.00000000000E+00 0.  1.
          1    1    1    2  501    0  0.75916986304E+01 -0.27498136421E+03 -0.66136589545E+03  0.71629409618E+03  0.00000000000E+00 0. -1.
<scales pt_clust_5="13000.00000" pt_clust_6="13000.00000" pt_clust_7="13000.00000" pt_clust_8="13000.00000" pt_clust_9="231.79572" pt_clust_10="13000.00000"></scales>
<clustering>
<clus scale="   79.585">  5  6 -1 -1</clus>
<clus scale="   87.695">  7  8 -1 -1</clus>
<clus scale="   99.479">  2  5  1 -1</clus>
<clus scale="  231.796">  1  9  2 -1</clus>
<clus scale="  256.467">  7 10 -1 -1</clus>
<clus scale="  231.796">  1  5  2 -1</clus>
</clustering>
</event>
<event>
10    4  0.2565852E-005  0.1812611E+03  0.7546771E-02  0.1201975E+00
          2   -1    0    0  502    0 -0.00000000000E+00  0.00000000000E+00  0.72589337614E+02  0.72589337614E+02  0.00000000000E+00 0. -1.
         21   -1    0    0  503  502  0.00000000000E+00 -0.00000000000E+00 -0.56253603734E+03  0.56253603734E+03  0.00000000000E+00 0. -1.
         24    2    1    2    0    0 -0.37266824251E+01 -0.29846091910E+01 -0.12199199980E+03  0.14449779743E+03  0.77296632491E+02 0.  0.
         23    2    1    2    0    0 -0.13568459284E+01 -0.73838502825E+01  0.63870987457E+01  0.94718802195E+02  0.94204533771E+02 0.  0.
        -13    1    3    3    0    0  0.28272960694E+02  0.16893210896E+01 -0.13666653765E+02  0.31448235837E+02  0.00000000000E+00 0.  1.
         14    1    3    3    0    0 -0.31999643119E+02 -0.46739302806E+01 -0.10832534603E+03  0.11304956159E+03  0.00000000000E+00 0. -1.
        -11    1    4    4    0    0 -0.32779773190E+02 -0.38211879071E+02  0.85698077422E+00  0.50352712425E+02  0.00000000000E+00 0. -1.
         11    1    4    4    0    0  0.31422927261E+02  0.30828028789E+02  0.55301179715E+01  0.44366089770E+02  0.00000000000E+00 0.  1.
         21    1    1    2  503  501 -0.41013965537E+02 -0.27674150885E+02 -0.27920958310E+03  0.28355950926E+03  0.00000000000E+00 0. -1.
          1    1    1    2  501    0  0.46097493891E+02  0.38042610359E+02 -0.95132215578E+02  0.11234926607E+03  0.00000000000E+00 0. -1.
<scales pt_clust_5="13000.00000" pt_clust_6="13000.00000" pt_clust_7="13000.00000" pt_clust_8="13000.00000" pt_clust_9="49.47731" pt_clust_10="13000.00000"></scales>
<clustering>
<clus scale="   49.477">  2  9  1 -1</clus>
<clus scale="   77.297">  5  6 -1 -1</clus>
<clus scale="   82.283">  1  5  2 -1</clus>
<clus scale="   94.205">  7  8 -1 -1</clus>
<clus scale="   38.906">  7 10 -1 -1</clus>
<clus scale="   49.477">  2  5  1 -1</clus>
</clustering>
</event>
<event>
10    4  0.2565852E-005  0.1964769E+03  0.7546771E-02  0.1187793E+00
         21   -1    0    0  503  502  0.00000000000E+00  0.00000000000E+00  0.50393843824E+02  0.50393843824E+02  0.00000000000E+00 0.  1.
         -3   -1    0    0    0  501 -0.00000000000E+00 -0.00000000000E+00 -0.54107368213E+03  0.54107368213E+03  0.00000000000E+00 0.  1.
         24    2    1    2    0    0  0.12809718732E+02  0.27104683250E+02 -0.13980261066E+03  0.16458191802E+03  0.81508803466E+02 0.  0.
         23    2    1    2    0    0 -0.15990125573E+02  0.54753617757E+02 -0.25674962102E+03  0.27777965194E+03  0.89372950971E+02 0.  0.
        -11    1    3    3    0    0  0.21858461126E+02 -0.44766543601E+01 -0.14245133794E+01  0.22357593686E+02  0.00000000000E+00 0.  1.
         12    1    3    3    0    0 -0.90487423940E+01  0.31581337610E+02 -0.13837809728E+03  0.14222432433E+03  0.00000000000E+00 0. -1.
        -11    1    4    4    0    0 -0.29833584388E+02  0.17379815493E+02 -0.24998817741E+02  0.42626771312E+02  0.00000000000E+00 0.  1.
         11    1    4    4    0    0  0.13843458815E+02  0.37373802264E+02 -0.23175080328E+03  0.23515288063E+03  0.00000000000E+00 0. -1.
         21    1    1    2  503  501  0.24179190572E+02 -0.17454962326E+01 -0.69594743749E+00  0.24252100046E+02  0.00000000000E+00 0. -1.
         -4    1    1    2    0  502 -0.20998783731E+02 -0.80112804775E+02 -0.93431659183E+02  0.12485385595E+03  0.00000000000E+00 0.  1.
<scales pt_clust_5="13000.00000" pt_clust_6="13000.00000" pt_clust_7="13000.00000" pt_clust_8="13000.00000" pt_clust_9="24.24211" pt_clust_10="13000.00000"></scales>
<clustering>
<clus scale="   24.242">  1  9  2 -1</clus>
<clus scale="   81.509">  5  6 -1 -1</clus>
<clus scale="   88.155">  2  5  1 -1</clus>
<clus scale="   89.373">  7  8 -1 -1</clus>
<clus scale="   73.200">  7 10 -1 -1</clus>
<clus scale="   24.242">  1  5  2 -1</clus>
</clustering>
</event>
<event>
10    4  0.2565852E-005  0.1864301E+03  0.7546771E-02  0.1178496E+00
         21   -1    0    0  501  502  0.00000000000E+00  0.00000000000E+00  0.12999820623E+03  0.12999820623E+03  0.00000000000E+00 0. -1.
          2   -1    0    0  503    0 -0.00000000000E+00 -0.00000000000E+00 -0.91896176790E+03  0.91896176790E+03  0.00000000000E+00 0. -1.
         24    2    1    2    0    0  0.82556866606E+02  0.50930514964E+02 -0.81050720298E+03  0.82028195093E+03  0.80814598658E+02 0.  0.
         23    2    1    2    0    0 -0.65725166058E+02 -0.72818651550E+01 -0.25518178694E+02  0.11327636271E+03  0.88360250626E+02 0.  0.
        -11    1    3    3    0    0 -0.45416965994E+01  0.29895475042E+02 -0.11047623308E+03  0.11453979445E+03  0.00000000000E+00 0.  1.
         12    1    3    3    0    0  0.87098563206E+02  0.21035039922E+02 -0.70003096990E+03  0.70574215648E+03  0.00000000000E+00 0. -1.
        -13    1    4    4    0    0 -0.22666679847E+02 -0.46434317153E+02 -0.17361501373E+02  0.54510053336E+02  0.00000000000E+00 0.  1.
         13    1    4    4    0    0 -0.43058486211E+02  0.39152451998E+02 -0.81566773209E+01  0.58766309371E+02  0.00000000000E+00 0. -1.
         21    1    1    2  503  502  0.19556231644E+02  0.15647420415E+02 -0.84130349724E+01  0.26420959847E+02  0.00000000000E+00 0. -1.
          1    1    1    2  501    0 -0.36387932193E+02 -0.59296070225E+02  0.55474854976E+02  0.88980700649E+02  0.00000000000E+00 0. -1.
<scales pt_clust_5="13000.00000" pt_clust_6="13000.00000" pt_clust_7="13000.00000" pt_clust_8="13000.00000" pt_clust_9="25.04572" pt_clust_10="13000.00000"></scales>
<clustering>
<clus scale="   25.046">  1  9  2 -1</clus>
<clus scale="   80.815">  5  6 -1 -1</clus>
<clus scale="   88.360">  7  8 -1 -1</clus>
<clus scale="   55.734">  7 10 -1 -1</clus>
<clus scale="  127.029">  2  5  1 -1</clus>
<clus scale="   25.046">  1  5  2 -1</clus>
</clustering>
</event>
<event>
10    4  0.2565852E-005  0.4623598E+03  0.7546771E-02  0.1076411E+00
          2   -1    0    0  503    0 -0.00000000000E+00  0.00000000000E+00  0.71993796542E+03  0.71993796542E+03  0.00000000000E+00 0. -1.
         21   -1    0    0  501  502  0.00000000000E+00 -0.00000000000E+00 -0.13351146468E+03  0.13351146468E+03  0.00000000000E+00 0. -1.
         24    2    1    2    0    0  0.15094517266E+02 -0.61261373034E+02  0.12504502388E+03  0.16439199042E+03  0.86067811870E+02 0.  0.
         23    2    1    2    0    0 -0.15615762403E+02 -0.15557559177E+03  0.14765062207E+02  0.18197174161E+03  0.91913496798E+02 0.  0.
        -13    1    3    3    0    0 -0.65241574551E+01 -0.78670459782E+02  0.93878855118E+02  0.12265743072E+03  0.00000000000E+00 0.  1.
         14    1    3    3    0    0  0.21618674721E+02  0.17409086748E+02  0.31166168759E+02  0.41734559698E+02  0.00000000000E+00 0. -1.
        -11    1    4    4    0    0 -0.32032160753E+02 -0.12337593151E+02 -0.98468336113E+01  0.35710441882E+02  0.00000000000E+00 0.  1.
         11    1    4    4    0    0  0.16416398349E+02 -0.14323799862E+03  0.24611895818E+02  0.14626129973E+03  0.00000000000E+00 0. -1.
         21    1    1    2  503  502  0.29896664472E+02  0.40633751720E+02  0.45274411105E+02  0.67784103050E+02  0.00000000000E+00 0. -1.
          1    1    1    2  501    0 -0.29375419334E+02  0.17620321309E+03  0.40134200355E+03  0.43930159501E+03  0.00000000000E+00 0. -1.
<scales pt_clust_5="13000.00000" pt_clust_6="13000.00000" pt_clust_7="13000.00000" pt_clust_8="13000.00000" pt_clust_9="50.44712" pt_clust_10="13000.00000"></scales>
<clustering>
<clus scale="   50.447">  2  9  1 -1</clus>
<clus scale="   86.068">  5  6 -1 -1</clus>
<clus scale="   91.913">  7  8 -1 -1</clus>
<clus scale="  103.916">  1  5  2 -1</clus>
<clus scale="  139.526">  7 10 -1 -1</clus>
<clus scale="   50.447">  2  5  1 -1</clus>
</clustering>
</event>
<event>
10    4  0.2565852E-005  0.3332895E+03  0.7546771E-02  0.1087041E+00
         21   -1    0    0  501  502  0.00000000000E+00  0.00000000000E+00  0.44545450029E+03  0.44545450029E+03  0.00000000000E+00 0.  1.
         -1   -1    0    0    0  501 -0.00000000000E+00 -0.00000000000E+00 -0.26995100143E+03  0.26995100143E+03  0.00000000000E+00 0.  1.
         24    2    1    2    0    0 -0.84469942281E+02 -0.15653075663E+03  0.18765614933E+03  0.27061662466E+03  0.79884155127E+02 0.  0.
         23    2    1    2    0    0  0.20916795768E+03  0.58081950325E+02 -0.54320228630E+02  0.24145628754E+03  0.90695667354E+02 0.  0.
        -11    1    3    3    0    0 -0.57117743522E+02 -0.10834414601E+03  0.71246901860E+02  0.14169337184E+03  0.00000000000E+00 0.  1.
         12    1    3    3    0    0 -0.27352198759E+02 -0.48186610620E+02  0.11640924747E+03  0.12892325282E+03  0.00000000000E+00 0. -1.
        -11    1    4    4    0    0  0.18352276303E+03  0.31969017856E+02 -0.73347214453E+02  0.20020598523E+03  0.00000000000E+00 0.  1.
         11    1    4    4    0    0  0.25645194655E+02  0.26112932469E+02  0.19026985824E+02  0.41250302309E+02  0.00000000000E+00 0. -1.
         21    1    1    2  503  502 -0.62234699039E+02  0.14097838004E+02  0.70024357320E+02  0.94738151866E+02  0.00000000000E+00 0.  1.
         -2    1    1    2    0  503 -0.62463316363E+02  0.84350968300E+02 -0.27856779163E+02  0.10859443766E+03  0.00000000000E+00 0.  1.
<scales pt_clust_5="13000.00000" pt_clust_6="13000.00000" pt_clust_7="13000.00000" pt_clust_8="13000.00000" pt_clust_9="63.81149" pt_clust_10="13000.00000"></scales>
<clustering>
<clus scale="   63.811">  1  9  2 -1</clus>
<clus scale="   79.884">  5  6 -1 -1</clus>
<clus scale="   90.696">  7  8 -1 -1</clus>
<clus scale="  110.435">  7 10 -1 -1</clus>
<clus scale="  208.543">  2  5  1 -1</clus>
<clus scale="   63.811">  1  5  2 -1</clus>
</clustering>
</event>
<event>
10    4  0.2565852E-005  0.2908701E+03  0.7546771E-02  0.1111145E+00
         21   -1    0    0  503  502  0.00000000000E+00  0.00000000000E+00  0.11432025810E+03  0.11432025810E+03  0.00000000000E+00 0. -1.
          2   -1    0    0  502    0 -0.00000000000E+00 -0.00000000000E+00 -0.11568996676E+04  0.11568996676E+04  0.00000000000E+00 0. -1.
         24    2    1    2    0    0 -0.11532044996E+03 -0.42297763926E+02 -0.70429988728E+02  0.16300129459E+03  0.80753524478E+02 0.  0.
         23    2    1    2    0    0  0.21178820276E+03  0.43301475681E+02 -0.77985601233E+03  0.81442227750E+03  0.91536798635E+02 0.  0.
        -11    1    3    3    0    0 -0.34680328582E+02 -0.46425620728E+02 -0.56742912957E+02  0.81103770698E+02  0.00000000000E+00 0.  1.
         12    1    3    3    0    0 -0.80640121375E+02  0.41278568020E+01 -0.13687075770E+02  0.81897523896E+02  0.00000000000E+00 0. -1.
        -13    1    4    4    0    0  0.13948856134E+03  0.57670613055E+02 -0.62425494274E+03  0.64224387260E+03  0.00000000000E+00 0. -1.
         13    1    4    4    0    0  0.72299641422E+02 -0.14369137374E+02 -0.15560106959E+03  0.17217840490E+03  0.00000000000E+00 0.  1.
         21    1    1    2  503  501 -0.35154387844E+02 -0.61130822934E+01  0.39936260048E+02  0.53554697520E+02  0.00000000000E+00 0. -1.
          1    1    1    2  501    0 -0.61313364958E+02  0.51093705378E+01 -0.23222966854E+03  0.24024165613E+03  0.00000000000E+00 0. -1.
<scales pt_clust_5="13000.00000" pt_clust_6="13000.00000" pt_clust_7="13000.00000" pt_clust_8="13000.00000" pt_clust_9="35.68194" pt_clust_10="13000.00000"></scales>
<clustering>
<clus scale="   35.682">  1  9  2 -1</clus>
<clus scale="   80.754">  5  6 -1 -1</clus>
<clus scale="   91.537">  7  8 -1 -1</clus>
<clus scale="   63.575">  7 10 -1 -1</clus>
<clus scale="  167.673">  2  5  1 -1</clus>
<clus scale="   35.682">  1  5  2 -1</clus>
</clustering>
</event>
<event>
10    4  0.2565852E-005  0.1778274E+03  0.7546771E-02  0.1200445E+00
          2   -1    0    0  503    0 -0.00000000000E+00  0.00000000000E+00  0.21487431802E+03  0.21487431802E+03  0.00000000000E+00 0. -1.
         21   -1    0    0  501  502  0.00000000000E+00 -0.00000000000E+00 -0.30140314469E+03  0.30140314469E+03  0.00000000000E+00 0. -1.
         24    2    1    2    0    0  0.20797749952E+02  0.79607035198E+02  0.87212702776E+02  0.13089611107E+03  0.52515806296E+02 0.  0.
         23    2    1    2    0    0  0.63581386727E+02 -0.18277571793E+02 -0.31040895181E+02  0.11729700138E+03  0.91751768326E+02 0.  0.
        -11    1    3    3    0    0  0.36947652854E+02  0.38447028777E+02  0.45161023532E+02  0.69877185974E+02  0.00000000000E+00 0.  1.
         12    1    3    3    0    0 -0.16149902901E+02  0.41160006421E+02  0.42051679244E+02  0.61018925093E+02  0.00000000000E+00 0. -1.
        -13    1    4    4    0    0 -0.82682114625E+01  0.23386046585E+02  0.72462286695E+01  0.25841407190E+02  0.00000000000E+00 0.  1.
         13    1    4    4    0    0  0.71849598189E+02 -0.41663618378E+02 -0.38287123851E+02  0.91455594192E+02  0.00000000000E+00 0. -1.
         21    1    1    2  503  502 -0.70961152498E+02 -0.30643493159E+02 -0.19285935927E+03  0.20777208979E+03  0.00000000000E+00 0. -1.
          1    1    1    2  501    0 -0.13417984181E+02 -0.30685970246E+02  0.50158725006E+02  0.60312260475E+02  0.00000000000E+00 0. -1.
<scales pt_clust_5="13000.00000" pt_clust_6="13000.00000" pt_clust_7="13000.00000" pt_clust_8="13000.00000" pt_clust_9="77.29495" pt_clust_10="13000.00000"></scales>
<clustering>
<clus scale="   52.516">  5  6 -1 -1</clus>
<clus scale="   77.295">  2  9  1 -1</clus>
<clus scale="   90.082">  1  5  2 -1</clus>
<clus scale="   91.752">  7  8 -1 -1</clus>
<clus scale="   16.818">  7 10 -1 -1</clus>
<clus scale="   77.295">  2  5  1 -1</clus>
</clustering>
</event>
<event>
10    4  0.2565852E-005  0.2156274E+03  0.7546771E-02  0.1144704E+00
         21   -1    0    0  501  502  0.00000000000E+00  0.00000000000E+00  0.11659561361E+04  0.11659561361E+04  0.00000000000E+00 0. -1.
          4   -1    0    0  503    0 -0.00000000000E+00 -0.00000000000E+00 -0.47050074254E+02  0.47050074254E+02  0.00000000000E+00 0. -1.
         24    2    1    2    0    0  0.66930522644E+02 -0.14120065940E+03  0.22962235014E+03  0.28928157396E+03  0.80870787504E+02 0.  0.
         23    2    1    2    0    0 -0.47578278503E+01  0.68291998420E+02  0.36896841925E+03  0.38606757898E+03  0.90686532421E+02 0.  0.
        -13    1    3    3    0    0  0.35740264991E+02 -0.16944272931E+02  0.97640136502E+02  0.10534738337E+03  0.00000000000E+00 0.  1.
         14    1    3    3    0    0  0.31190257653E+02 -0.12425638646E+03  0.13198221364E+03  0.18393419059E+03  0.00000000000E+00 0. -1.
        -11    1    4    4    0    0  0.37897127410E+02  0.33054817489E+02  0.10575626776E+03  0.11710337910E+03  0.00000000000E+00 0. -1.
         11    1    4    4    0    0 -0.42654955260E+02  0.35237180931E+02  0.26321215148E+03  0.26896419988E+03  0.00000000000E+00 0.  1.
         21    1    1    2  503  502 -0.34770229002E+01 -0.22386126500E+02  0.66856233667E+02  0.70590256608E+02  0.00000000000E+00 0. -1.
          3    1    1    2  501    0 -0.58695671894E+02  0.95294787476E+02  0.45345905884E+03  0.46706680086E+03  0.00000000000E+00 0. -1.
<scales pt_clust_5="13000.00000" pt_clust_6="13000.00000" pt_clust_7="13000.00000" pt_clust_8="13000.00000" pt_clust_9="22.65454" pt_clust_10="13000.00000"></scales>
<clustering>
<clus scale="   22.655">  1  9  2 -1</clus>
<clus scale="   80.871">  5  6 -1 -1</clus>
<clus scale="   90.687">  7  8 -1 -1</clus>
<clus scale="  104.872">  7 10 -1 -1</clus>
<clus scale="  179.919">  2  5  1 -1</clus>
<clus scale="   22.655">  1  5  2 -1</clus>
</clustering>
</event>
<event>
10    4  0.2565852E-005  0.1644925E+03  0.7546771E-02  0.1212820E+00
         21   -1    0    0  501  502  0.00000000000E+00  0.00000000000E+00  0.17880701285E+03  0.17880701285E+03  0.00000000000E+00 0.  1.
          2   -1    0    0  503    0 -0.00000000000E+00 -0.00000000000E+00 -0.49543638902E+03  0.49543638902E+03  0.00000000000E+00 0. -1.
         24    2    1    2    0    0  0.63908687366E+01 -0.10876773634E+02 -0.18839336484E+02  0.84160383406E+02  0.81048763889E+02 0.  0.
         23    2    1    2    0    0 -0.62090656823E+02  0.45566224381E+02 -0.37894167291E+03  0.39404100142E+03  0.75762714178E+02 0.  0.
        -13    1    3    3    0    0 -0.36022001266E+02  0.55555259076E+01 -0.10362806758E+02  0.37892429418E+02  0.00000000000E+00 0.  1.
         14    1    3    3    0    0  0.42412870002E+02 -0.16432299541E+02 -0.84765297254E+01  0.46267953988E+02  0.00000000000E+00 0. -1.
        -11    1    4    4    0    0 -0.59623901335E+02 -0.27102765234E+01 -0.21201409564E+03  0.22025515195E+03  0.00000000000E+00 0. -1.
         11    1    4    4    0    0 -0.24667554884E+01  0.48276500905E+02 -0.16692757727E+03  0.17378584947E+03  0.00000000000E+00 0.  1.
         21    1    1    2  503  502  0.14061960865E+02 -0.25542684620E+02  0.12882759601E+03  0.13208602112E+03  0.00000000000E+00 0.  1.
          1    1    1    2  501    0  0.41637827222E+02 -0.91467661277E+01 -0.47675962787E+02  0.63955995919E+02  0.00000000000E+00 0. -1.
<scales pt_clust_5="13000.00000" pt_clust_6="13000.00000" pt_clust_7="13000.00000" pt_clust_8="13000.00000" pt_clust_9="29.15763" pt_clust_10="13000.00000"></scales>
<clustering>
<clus scale="   29.158">  1  9  2 -1</clus>
<clus scale="   75.763">  7  8 -1 -1</clus>
<clus scale="   46.014">  7 10 -1 -1</clus>
<clus scale="   81.049">  5  6 -1 -1</clus>
<clus scale="   87.251">  2  5  1 -1</clus>
<clus scale="   29.158">  1  5  2 -1</clus>
</clustering>
</event>
<event>
10    4  0.2565852E-005  0.1461722E+03  0.7546771E-02  0.1232435E+00
         21   -1    0    0  501  502  0.00000000000E+00  0.00000000000E+00  0.14556705031E+03  0.14556705031E+03  0.00000000000E+00 0.  1.
          2   -1    0    0  503    0 -0.00000000000E+00 -0.00000000000E+00 -0.24983503018E+03  0.24983503018E+03  0.00000000000E+00 0. -1.
         24    2    1    2    0    0 -0.82703105694E+01  0.28465446732E+02 -0.13520197758E+03  0.15926892746E+03  0.78792999802E+02 0.  0.
         23    2    1    2    0    0 -0.66861752093E+01  0.56146555434E+01 -0.14825975067E+02  0.93156361478E+02  0.91553639203E+02 0.  0.
        -11    1    3    3    0    0 -0.38390287590E+02  0.19829267070E+02 -0.11268097649E+03  0.12068146700E+03  0.00000000000E+00 0.  1.
         12    1    3    3    0    0  0.30119977021E+02  0.86361796621E+01 -0.22521001093E+02  0.38587460465E+02  0.00000000000E+00 0. -1.
        -13    1    4    4    0    0 -0.29744636876E+02 -0.32443037731E+02  0.52733754372E+01  0.44329477874E+02  0.00000000000E+00 0.  1.
         13    1    4    4    0    0  0.23058461667E+02  0.38057693274E+02 -0.20099350504E+02  0.48826883604E+02  0.00000000000E+00 0. -1.
         21    1    1    2  503  502 -0.40639879163E+02 -0.60180700937E+02  0.35042089995E+02  0.80630419910E+02  0.00000000000E+00 0.  1.
          1    1    1    2  501    0  0.55596364941E+02  0.26100598662E+02  0.10717882785E+02  0.62346371640E+02  0.00000000000E+00 0. -1.
<scales pt_clust_5="13000.00000" pt_clust_6="13000.00000" pt_clust_7="13000.00000" pt_clust_8="13000.00000" pt_clust_9="72.61760" pt_clust_10="13000.00000"></scales>
<clustering>
<clus scale="   72.618">  1  9  2 -1</clus>
<clus scale="   78.793">  5  6 -1 -1</clus>
<clus scale="   82.514">  2  5  1 -1</clus>
<clus scale="   91.554">  7  8 -1 -1</clus>
<clus scale="   35.793">  7 10 -1 -1</clus>
<clus scale="   72.618">  1  5  2 -1</clus>
</clustering>
</event>
<event>
10    4  0.2565852E-005  0.2023265E+03  0.7546771E-02  0.1176802E+00
         21   -1    0    0  501  502  0.00000000000E+00  0.00000000000E+00  0.36883424038E+02  0.36883424038E+02  0.00000000000E+00 0.  1.
          2   -1    0    0  503    0 -0.00000000000E+00 -0.00000000000E+00 -0.80587089469E+03  0.80587089469E+03  0.00000000000E+00 0. -1.
         24    2    1    2    0    0  0.61024089862E+02 -0.36142844859E+02 -0.36043655865E+03  0.37593718258E+03  0.79899985331E+02 0.  0.
         23    2    1    2    0    0 -0.64146267182E+01  0.37004819094E+02 -0.75207544249E+02  0.12466348164E+03  0.92055987691E+02 0.  0.
        -13    1    3    3    0    0  0.68552250918E+02  0.56456565564E+00 -0.25437598372E+03  0.26345183797E+03  0.00000000000E+00 0.  1.
         14    1    3    3    0    0 -0.75281610562E+01 -0.36707410515E+02 -0.10606057493E+03  0.11248534461E+03  0.00000000000E+00 0. -1.
        -11    1    4    4    0    0  0.38376924333E+01 -0.22164080536E+02 -0.57980243557E+02  0.62190698599E+02  0.00000000000E+00 0. -1.
         11    1    4    4    0    0 -0.10252319152E+02  0.59168899631E+02 -0.17227300692E+02  0.62472783039E+02  0.00000000000E+00 0.  1.
         21    1    1    2  503  502 -0.15822912194E+02  0.21791324452E+02 -0.69894177798E+02  0.74902753366E+02  0.00000000000E+00 0.  1.
          1    1    1    2  501    0 -0.38786550950E+02 -0.22653298688E+02 -0.26344918995E+03  0.26725090114E+03  0.00000000000E+00 0. -1.
<scales pt_clust_5="13000.00000" pt_clust_6="13000.00000" pt_clust_7="13000.00000" pt_clust_8="13000.00000" pt_clust_9="26.93004" pt_clust_10="13000.00000"></scales>
<clustering>
<clus scale="   26.930">  1  9  2 -1</clus>
<clus scale="   79.900">  5  6 -1 -1</clus>
<clus scale="   92.056">  7  8 -1 -1</clus>
<clus scale="   45.090">  7 10 -1 -1</clus>
<clus scale="  103.250">  2  5  1 -1</clus>
<clus scale="   26.930">  1  5  2 -1</clus>
</clustering>
</event>
<event>
10    4  0.2565852E-005  0.2623574E+03  0.7546771E-02  0.1152851E+00
         21   -1    0    0  501  502  0.00000000000E+00  0.00000000000E+00  0.17344188041E+03  0.17344188041E+03  0.00000000000E+00 0. -1.
          2   -1    0    0  503    0 -0.00000000000E+00 -0.00000000000E+00 -0.42084416878E+03  0.42084416878E+03  0.00000000000E+00 0. -1.
         24    2    1    2    0    0 -0.15688920157E+02 -0.12301907003E+02 -0.29233421466E+03  0.30375201240E+03  0.80053187626E+02 0.  0.
         23    2    1    2    0    0  0.35014820453E+02 -0.73873685869E+02 -0.58755361839E+02  0.13752210538E+03  0.93684458731E+02 0.  0.
        -13    1    3    3    0    0 -0.17417488043E+02  0.29723675330E+02 -0.77105469346E+02  0.84451874863E+02  0.00000000000E+00 0.  1.
         14    1    3    3    0    0  0.17285678859E+01 -0.42025582333E+02 -0.21522874531E+03  0.21930013754E+03  0.00000000000E+00 0. -1.
        -13    1    4    4    0    0  0.16187868772E+02 -0.29571847182E+02  0.24278054477E+02  0.41544736975E+02  0.00000000000E+00 0.  1.
         13    1    4    4    0    0  0.18826951681E+02 -0.44301838687E+02 -0.83033416316E+02  0.95977368404E+02  0.00000000000E+00 0. -1.
         21    1    1    2  503  502  0.11047943915E+02  0.21356608614E+02 -0.33161941710E+01  0.24272596483E+02  0.00000000000E+00 0.  1.
          1    1    1    2  501    0 -0.30373844211E+02  0.64818984258E+02  0.10700348230E+03  0.12873933493E+03  0.00000000000E+00 0. -1.
<scales pt_clust_5="13000.00000" pt_clust_6="13000.00000" pt_clust_7="13000.00000" pt_clust_8="13000.00000" pt_clust_9="24.04500" pt_clust_10="13000.00000"></scales>
<clustering>
<clus scale="   24.045">  1  9  2 -1</clus>
<clus scale="   80.053">  5  6 -1 -1</clus>
<clus scale="   82.317">  2  5  1 -1</clus>
<clus scale="   93.684">  7  8 -1 -1</clus>
<clus scale="   81.980">  7 10 -1 -1</clus>
<clus scale="   24.045">  1  5  2 -1</clus>
</clustering>
</event>
<event>
10    4  0.2565852E-005  0.1861221E+03  0.7546771E-02  0.1174613E+00
          2   -1    0    0  503    0 -0.00000000000E+00  0.00000000000E+00  0.74863984696E+03  0.74863984696E+03  0.00000000000E+00 0. -1.
         21   -1    0    0  501  502  0.00000000000E+00 -0.00000000000E+00 -0.51736202404E+03  0.51736202404E+03  0.00000000000E+00 0. -1.
         24    2    1    2    0    0  0.11691962480E+03 -0.14755117046E+02  0.11479726027E+03  0.17464761058E+03  0.58612837969E+02 0.  0.
         23    2    1    2    0    0 -0.51883777955E+02  0.35709397525E+02  0.26741726410E+03  0.28960972768E+03  0.91622670476E+02 0.  0.
        -13    1    3    3    0    0  0.74244635706E+02 -0.22398848605E+02  0.10442260530E+03  0.13006942318E+03  0.00000000000E+00 0.  1.
         14    1    3    3    0    0  0.42674989092E+02  0.76437315593E+01  0.10374654975E+02  0.44578187401E+02  0.00000000000E+00 0. -1.
        -13    1    4    4    0    0 -0.77200914760E+02  0.16146447176E+02  0.18000491499E+03  0.19652597389E+03  0.00000000000E+00 0. -1.
         13    1    4    4    0    0  0.25317136804E+02  0.19562950349E+02  0.87412349110E+02  0.93083753788E+02  0.00000000000E+00 0.  1.
         21    1    1    2  503  502 -0.17648300150E+02 -0.84507743913E+02 -0.46750077458E+03  0.47540508570E+03  0.00000000000E+00 0. -1.
          1    1    1    2  501    0 -0.47387546693E+02  0.63553463434E+02  0.31656407312E+03  0.32633944703E+03  0.00000000000E+00 0. -1.
<scales pt_clust_5="13000.00000" pt_clust_6="13000.00000" pt_clust_7="13000.00000" pt_clust_8="13000.00000" pt_clust_9="86.33088" pt_clust_10="13000.00000"></scales>
<clustering>
<clus scale="   58.613">  5  6 -1 -1</clus>
<clus scale="   86.331">  2  9  1 -1</clus>
<clus scale="   91.623">  7  8 -1 -1</clus>
<clus scale="   73.509">  7 10 -1 -1</clus>
<clus scale="  139.376">  1  5  2 -1</clus>
<clus scale="   86.331">  2  5  1 -1</clus>
</clustering>
</event>
<event>
10    4  0.2565852E-005  0.3159736E+03  0.7546771E-02  0.1116568E+00
          2   -1    0    0  502    0 -0.00000000000E+00  0.00000000000E+00  0.61068428864E+03  0.61068428864E+03  0.00000000000E+00 0. -1.
         21   -1    0    0  503  502  0.00000000000E+00 -0.00000000000E+00 -0.71193738928E+03  0.71193738928E+03  0.00000000000E+00 0.  1.
         24    2    1    2    0    0 -0.49690741232E+02 -0.62477226327E+02  0.17619402669E+03  0.20987695912E+03  0.81433588606E+02 0.  0.
         23    2    1    2    0    0  0.82531513841E+02 -0.41523659274E+02  0.75049763579E+01  0.12956020564E+03  0.90519926862E+02 0.  0.
        -11    1    3    3    0    0 -0.15722649066E+02  0.16586428363E+02  0.15567539073E+02  0.27652478592E+02  0.00000000000E+00 0.  1.
         12    1    3    3    0    0 -0.33968092166E+02 -0.79063654690E+02  0.16062648762E+03  0.18222448053E+03  0.00000000000E+00 0. -1.
        -11    1    4    4    0    0  0.93381306918E+02 -0.11483153872E+02 -0.72768904775E+01  0.94365695248E+02  0.00000000000E+00 0.  1.
         11    1    4    4    0    0 -0.10849793077E+02 -0.30040505402E+02  0.14781866835E+02  0.35194510392E+02  0.00000000000E+00 0. -1.
         21    1    1    2  503  501 -0.88535584135E+02  0.80807722842E+02 -0.62572971777E+03  0.63710761840E+03  0.00000000000E+00 0.  1.
          1    1    1    2  501    0  0.55694811526E+02  0.23193162759E+02  0.34077761407E+03  0.34607689475E+03  0.00000000000E+00 0. -1.
<scales pt_clust_5="13000.00000" pt_clust_6="13000.00000" pt_clust_7="13000.00000" pt_clust_8="13000.00000" pt_clust_9="119.79955" pt_clust_10="13000.00000"></scales>
<clustering>
<clus scale="   81.434">  5  6 -1 -1</clus>
<clus scale="   90.520">  7  8 -1 -1</clus>
<clus scale="   60.331">  7 10 -1 -1</clus>
<clus scale="  114.035">  1  5  2 -1</clus>
<clus scale="  119.800">  2  9  1 -1</clus>
<clus scale="  119.800">  2  5  1 -1</clus>
</clustering>
</event>
<event>
10    4  0.2565852E-005  0.5373550E+03  0.7546771E-02  0.1033216E+00
         21   -1    0    0  503  502  0.00000000000E+00  0.00000000000E+00  0.80101174436E+02  0.80101174436E+02  0.00000000000E+00 0. -1.
          2   -1    0    0  502    0 -0.00000000000E+00 -0.00000000000E+00 -0.22790762937E+04  0.22790762937E+04  0.00000000000E+00 0. -1.
         24    2    1    2    0    0  0.19962478465E+03 -0.82019406610E+02 -0.67542654291E+03  0.71352502046E+03  0.79622247182E+02 0.  0.
         23    2    1    2    0    0  0.15160700082E+03 -0.34482016461E+02 -0.46528961127E+03  0.49871148486E+03  0.89694094706E+02 0.  0.
        -13    1    3    3    0    0  0.32484989814E+02  0.13850959119E+02 -0.14329994530E+03  0.14758725539E+03  0.00000000000E+00 0.  1.
         14    1    3    3    0    0  0.16713979484E+03 -0.95870365729E+02 -0.53212659762E+03  0.56593776507E+03  0.00000000000E+00 0. -1.
        -13    1    4    4    0    0  0.13642576275E+03  0.45901136028E+01 -0.33134334581E+03  0.35835941552E+03  0.00000000000E+00 0. -1.
         13    1    4    4    0    0  0.15181238070E+02 -0.39072130064E+02 -0.13394626546E+03  0.14035206934E+03  0.00000000000E+00 0.  1.
         21    1    1    2  503  501 -0.13875776488E+02  0.18130046947E+02  0.80597168058E+01  0.24211460312E+02  0.00000000000E+00 0. -1.
          1    1    1    2  501    0 -0.33735600898E+03  0.98371376124E+02 -0.10663186819E+04  0.11227295025E+04  0.00000000000E+00 0. -1.
<scales pt_clust_5="13000.00000" pt_clust_6="13000.00000" pt_clust_7="13000.00000" pt_clust_8="13000.00000" pt_clust_9="22.83059" pt_clust_10="13000.00000"></scales>
<clustering>
<clus scale="   22.831">  1  9  2 -1</clus>
<clus scale="   79.622">  5  6 -1 -1</clus>
<clus scale="   89.694">  7  8 -1 -1</clus>
<clus scale="  224.561">  2  5  1 -1</clus>
<clus scale="  210.893">  7 10 -1 -1</clus>
<clus scale="   22.831">  1  5  2 -1</clus>
</clustering>
</event>
<event>
10    4  0.2565852E-005  0.3947593E+03  0.7546771E-02  0.1095994E+00
         21   -1    0    0  501  502  0.00000000000E+00  0.00000000000E+00  0.11194034796E+03  0.11194034796E+03  0.00000000000E+00 0. -1.
          4   -1    0    0  503    0 -0.00000000000E+00 -0.00000000000E+00 -0.66742166412E+03  0.66742166412E+03  0.00000000000E+00 0. -1.
         24    2    1    2    0    0  0.14888714615E+00  0.55848956429E+02 -0.21782070857E+03  0.23954998682E+03  0.82578489966E+02 0.  0.
         23    2    1    2    0    0 -0.26113289028E+02  0.14250608024E+03 -0.25099698745E+03  0.30391923428E+03  0.91528828695E+02 0.  0.
        -11    1    3    3    0    0  0.28760258293E+02  0.22330379093E+02 -0.31681385966E+02  0.48264982174E+02  0.00000000000E+00 0.  1.
         12    1    3    3    0    0 -0.28611371147E+02  0.33518577336E+02 -0.18613932260E+03  0.19128500465E+03  0.00000000000E+00 0. -1.
        -11    1    4    4    0    0 -0.13913768987E+02  0.82450369193E+02 -0.58885089534E+02  0.10226979083E+03  0.00000000000E+00 0. -1.
         11    1    4    4    0    0 -0.12199520041E+02  0.60055711048E+02 -0.19211189792E+03  0.20164944344E+03  0.00000000000E+00 0.  1.
         21    1    1    2  503  502 -0.22798111291E+02 -0.10140331543E+02 -0.89530119693E+01  0.26509180025E+02  0.00000000000E+00 0. -1.
          3    1    1    2  501    0  0.48762513173E+02 -0.18821470513E+03 -0.77710608165E+02  0.20938361096E+03  0.00000000000E+00 0. -1.
<scales pt_clust_5="13000.00000" pt_clust_6="13000.00000" pt_clust_7="13000.00000" pt_clust_8="13000.00000" pt_clust_9="24.95156" pt_clust_10="13000.00000"></scales>
<clustering>
<clus scale="   24.952">  1  9  2 -1</clus>
<clus scale="   82.578">  5  6 -1 -1</clus>
<clus scale="   91.529">  7  8 -1 -1</clus>
<clus scale="   99.122">  2  5  1 -1</clus>
<clus scale="  178.070">  7 10 -1 -1</clus>
<clus scale="   24.952">  1  5  2 -1</clus>
</clustering>
</event>
<event>
10    4  0.2565852E-005  0.2193571E+03  0.7546771E-02  0.1166704E+00
          2   -1    0    0  503    0 -0.00000000000E+00  0.00000000000E+00  0.22514694298E+03  0.22514694298E+03  0.00000000000E+00 0. -1.
         21   -1    0    0  501  502  0.00000000000E+00 -0.00000000000E+00 -0.25114880135E+03  0.25114880135E+03  0.00000000000E+00 0. -1.
         24    2    1    2    0    0 -0.59795353775E+02  0.32512897336E+02  0.30762277909E+02  0.10929022541E+03  0.79783850502E+02 0.  0.
         23    2    1    2    0    0  0.20137222653E+02  0.15930375064E+02 -0.37053650211E+02  0.10109356965E+03  0.90485646628E+02 0.  0.
        -11    1    3    3    0    0  0.51291065247E+01  0.30851765888E+02  0.31432317250E+02  0.44341061781E+02  0.00000000000E+00 0.  1.
         12    1    3    3    0    0 -0.64924460300E+02  0.16611314476E+01 -0.67003934060E+00  0.64949163625E+02  0.00000000000E+00 0. -1.
        -11    1    4    4    0    0 -0.30979946678E+02  0.23990563035E+02 -0.28942159389E+02  0.48712963377E+02  0.00000000000E+00 0.  1.
         11    1    4    4    0    0  0.51117169332E+02 -0.80601879704E+01 -0.81114908224E+01  0.52380606277E+02  0.00000000000E+00 0. -1.
         21    1    1    2  503  502  0.22342761027E+02  0.10870954869E+02 -0.13384128994E+03  0.13612812906E+03  0.00000000000E+00 0. -1.
          1    1    1    2  501    0  0.17315370095E+02 -0.59314227269E+02  0.11413080387E+03  0.12978382022E+03  0.00000000000E+00 0. -1.
<scales pt_clust_5="13000.00000" pt_clust_6="13000.00000" pt_clust_7="13000.00000" pt_clust_8="13000.00000" pt_clust_9="24.84706" pt_clust_10="13000.00000"></scales>
<clustering>
<clus scale="   24.847">  2  9  1 -1</clus>
<clus scale="   79.784">  5  6 -1 -1</clus>
<clus scale="   90.486">  7  8 -1 -1</clus>
<clus scale="   61.531">  7 10 -1 -1</clus>
<clus scale="  102.002">  1  5  2 -1</clus>
<clus scale="   24.847">  2  5  1 -1</clus>
</clustering>
</event>
<event>
10    4  0.2565852E-005  0.2127096E+03  0.7546771E-02  0.1182188E+00
          4   -1    0    0  502    0 -0.00000000000E+00  0.00000000000E+00  0.10540080876E+03  0.10540080876E+03  0.00000000000E+00 0. -1.
         21   -1    0    0  503  502  0.00000000000E+00 -0.00000000000E+00 -0.36513608971E+03  0.36513608971E+03  0.00000000000E+00 0.  1.
         24    2    1    2    0    0  0.12812627225E+02 -0.15705976317E+02 -0.10466115668E+03  0.13192922888E+03  0.77720799058E+02 0.  0.
         23    2    1    2    0    0  0.88989882561E+02  0.10038521443E+02 -0.34424849227E+02  0.13279825550E+03  0.91816857428E+02 0.  0.
        -11    1    3    3    0    0  0.10318148414E+02 -0.47245684875E+02 -0.57401336084E+02  0.75056860514E+02  0.00000000000E+00 0.  1.
         12    1    3    3    0    0  0.24944788115E+01  0.31539708558E+02 -0.47259820597E+02  0.56872368364E+02  0.00000000000E+00 0. -1.
        -11    1    4    4    0    0  0.52414168229E+02  0.13709871547E+02  0.27520853419E+02  0.60766791769E+02  0.00000000000E+00 0.  1.
         11    1    4    4    0    0  0.36575714332E+02 -0.36713501043E+01 -0.61945702647E+02  0.72031463728E+02  0.00000000000E+00 0. -1.
         21    1    1    2  503  501 -0.19409876699E+02  0.75485478999E+01 -0.12161936431E+03  0.12338960112E+03  0.00000000000E+00 0.  1.
          3    1    1    2  501    0 -0.82392633087E+02 -0.18810930255E+01  0.97008927613E+00  0.82419812977E+02  0.00000000000E+00 0. -1.
<scales pt_clust_5="13000.00000" pt_clust_6="13000.00000" pt_clust_7="13000.00000" pt_clust_8="13000.00000" pt_clust_9="20.82604" pt_clust_10="13000.00000"></scales>
<clustering>
<clus scale="   20.826">  2  9  1 -1</clus>
<clus scale="   77.721">  5  6 -1 -1</clus>
<clus scale="   78.717">  1  5  2 -1</clus>
<clus scale="   91.817">  7  8 -1 -1</clus>
<clus scale="   84.252">  7 10 -1 -1</clus>
<clus scale="   20.826">  2  5  1 -1</clus>
</clustering>
</event>
<event>
10    4  0.2565852E-005  0.6045710E+03  0.7546771E-02  0.1023224E+00
         21   -1    0    0  503  502  0.00000000000E+00  0.00000000000E+00  0.64251358199E+03  0.64251358199E+03  0.00000000000E+00 0.  1.
          2   -1    0    0  502    0 -0.00000000000E+00 -0.00000000000E+00 -0.80815572383E+03  0.80815572383E+03  0.00000000000E+00 0. -1.
         24    2    1    2    0    0 -0.17700470404E+02 -0.19666614077E+03 -0.32722173190E+03  0.39007067676E+03  0.78039691587E+02 0.  0.
         23    2    1    2    0    0 -0.15307816506E+03  0.64516669654E+02  0.13654485135E+03  0.23279812054E+03  0.89191609565E+02 0.  0.
        -11    1    3    3    0    0 -0.28784703378E+02 -0.21498640781E+02 -0.43138276713E+02  0.56139661753E+02  0.00000000000E+00 0.  1.
         12    1    3    3    0    0  0.11084232974E+02 -0.17516749999E+03 -0.28408345518E+03  0.33393101500E+03  0.00000000000E+00 0. -1.
        -11    1    4    4    0    0 -0.53881951566E+02  0.31698558535E+02  0.21304387821E+01  0.62550796055E+02  0.00000000000E+00 0.  1.
         11    1    4    4    0    0 -0.99196213493E+02  0.32818111119E+02  0.13441441257E+03  0.17024732449E+03  0.00000000000E+00 0. -1.
         21    1    1    2  503  501  0.26823237732E+03  0.31693784120E+03  0.27803018318E+03  0.49969889552E+03  0.00000000000E+00 0.  1.
          1    1    1    2  501    0 -0.97453741860E+02 -0.18478837008E+03 -0.25299544447E+03  0.32810161299E+03  0.00000000000E+00 0. -1.
<scales pt_clust_5="13000.00000" pt_clust_6="13000.00000" pt_clust_7="13000.00000" pt_clust_8="13000.00000" pt_clust_9="376.41706" pt_clust_10="13000.00000"></scales>
<clustering>
<clus scale="   78.040">  5  6 -1 -1</clus>
<clus scale="   89.192">  7  8 -1 -1</clus>
<clus scale="  208.912">  7 10 -1 -1</clus>
<clus scale="  212.323">  2  5  1 -1</clus>
<clus scale="  376.417">  1  9  2 -1</clus>
<clus scale="  376.417">  1  5  2 -1</clus>
</clustering>
</event>
<event>
10    4  0.2565852E-005  0.5166788E+03  0.7546771E-02  0.1049440E+00
          2   -1    0    0  503    0 -0.00000000000E+00  0.00000000000E+00  0.41862039954E+03  0.41862039954E+03  0.00000000000E+00 0. -1.
         21   -1    0    0  501  502  0.00000000000E+00 -0.00000000000E+00 -0.52016481076E+03  0.52016481076E+03  0.00000000000E+00 0.  1.
         24    2    1    2    0    0  0.12239012723E+03  0.38229012572E+02  0.88502254373E+02  0.17644756424E+03  0.82826887240E+02 0.  0.
         23    2    1    2    0    0  0.11339635894E+03  0.13752376482E+03 -0.15534705388E+03  0.25316972025E+03  0.90502375605E+02 0.  0.
        -13    1    3    3    0    0  0.10769527229E+03 -0.41271882687E+01  0.64326942046E+02  0.12551199476E+03  0.00000000000E+00 0.  1.
         14    1    3    3    0    0  0.14694854942E+02  0.42356200841E+02  0.24175312327E+02  0.50935569473E+02  0.00000000000E+00 0. -1.
        -13    1    4    4    0    0  0.70614556963E+02  0.33385228827E+02 -0.10231199043E+03  0.12871958881E+03  0.00000000000E+00 0.  1.
         13    1    4    4    0    0  0.42781801976E+02  0.10413853599E+03 -0.53035063455E+02  0.12445013143E+03  0.00000000000E+00 0. -1.
         21    1    1    2  503  502  0.96274224632E+02 -0.11615103599E+03  0.54166370191E+02  0.16029281066E+03  0.00000000000E+00 0. -1.
          1    1    1    2  501    0 -0.33206071080E+03 -0.59601741401E+02 -0.88865981900E+02  0.34887511516E+03  0.00000000000E+00 0. -1.
<scales pt_clust_5="13000.00000" pt_clust_6="13000.00000" pt_clust_7="13000.00000" pt_clust_8="13000.00000" pt_clust_9="150.86356" pt_clust_10="13000.00000"></scales>
<clustering>
<clus scale="   82.827">  5  6 -1 -1</clus>
<clus scale="   90.502">  7  8 -1 -1</clus>
<clus scale="  150.864">  2  9  1 -1</clus>
<clus scale="  157.751">  1  5  2 -1</clus>
<clus scale="  234.607">  7 10 -1 -1</clus>
<clus scale="  150.864">  2  5  1 -1</clus>
</clustering>
</event>
<event>
10    4  0.2565852E-005  0.1477039E+03  0.7546771E-02  0.1212399E+00
         21   -1    0    0  503  502  0.00000000000E+00  0.00000000000E+00  0.96702959195E+02  0.96702959195E+02  0.00000000000E+00 0. -1.
          4   -1    0    0  502    0 -0.00000000000E+00 -0.00000000000E+00 -0.41505106865E+03  0.41505106865E+03  0.00000000000E+00 0. -1.
         24    2    1    2    0    0  0.20025754088E+02 -0.11380769345E+03 -0.13320182194E+03  0.19361794573E+03  0.79949744358E+02 0.  0.
         23    2    1    2    0    0  0.12200169095E+01  0.53387959224E+02 -0.13555593069E+03  0.17206195682E+03  0.91532202025E+02 0.  0.
        -13    1    3    3    0    0  0.22682309697E+02 -0.16879317310E+02  0.71452528930E+00  0.28282663814E+02  0.00000000000E+00 0.  1.
         14    1    3    3    0    0 -0.26565556089E+01 -0.96928376140E+02 -0.13391634723E+03  0.16533528191E+03  0.00000000000E+00 0. -1.
        -13    1    4    4    0    0  0.61989607882E+01 -0.20662273743E+02 -0.69275595679E+02  0.72556631866E+02  0.00000000000E+00 0. -1.
         13    1    4    4    0    0 -0.49789438787E+01  0.74050232967E+02 -0.66280335009E+02  0.99505324950E+02  0.00000000000E+00 0.  1.
         21    1    1    2  503  501 -0.15107532365E+02  0.37810585719E+02  0.37824161213E+02  0.55574680369E+02  0.00000000000E+00 0. -1.
          3    1    1    2  501    0 -0.61382386322E+01  0.22609148507E+02 -0.87414518037E+02  0.90499444934E+02  0.00000000000E+00 0. -1.
<scales pt_clust_5="13000.00000" pt_clust_6="13000.00000" pt_clust_7="13000.00000" pt_clust_8="13000.00000" pt_clust_9="40.71705" pt_clust_10="13000.00000"></scales>
<clustering>
<clus scale="   40.717">  1  9  2 -1</clus>
<clus scale="   79.950">  5  6 -1 -1</clus>
<clus scale="   91.532">  7  8 -1 -1</clus>
<clus scale="   24.676">  7 10 -1 -1</clus>
<clus scale="  121.596">  2  5  1 -1</clus>
<clus scale="   40.717">  1  5  2 -1</clus>
</clustering>
</event>
<event>
10    4  0.4039883E-005  0.3308896E+03  0.7546771E-02  0.1119908E+00
         21   -1    0    0  501  502  0.00000000000E+00  0.00000000000E+00  0.21821026379E+03  0.21821026379E+03  0.00000000000E+00 0.  1.
          2   -1    0    0  503    0 -0.00000000000E+00 -0.00000000000E+00 -0.20841989649E+04  0.20841989649E+04  0.00000000000E+00 0. -1.
         24    2    1    2    0    0 -0.19415368585E+02  0.36671513575E+02 -0.11894782646E+04  0.11929782642E+04  0.81343962941E+02 0.  0.
         23    2    1    2    0    0 -0.12824805731E+03 -0.45154367480E+02 -0.67372496948E+03  0.69361143864E+03  0.93300654884E+02 0.  0.
        -13    1    3    3    0    0  0.18458235527E+02 -0.10455901614E+02 -0.12523766289E+03  0.12702166958E+03  0.00000000000E+00 0.  1.
         14    1    3    3    0    0 -0.37873604112E+02  0.47127415188E+02 -0.10642406017E+04  0.10659565946E+04  0.00000000000E+00 0. -1.
        -11    1    4    4    0    0  0.13386484507E+02 -0.14967928554E+02 -0.80919482328E+02  0.83373853653E+02  0.00000000000E+00 0.  1.
         11    1    4    4    0    0 -0.14163454182E+03 -0.30186438926E+02 -0.59280548715E+03  0.61023758498E+03  0.00000000000E+00 0. -1.
         21    1    1    2  503  502  0.20630435574E+03  0.10614862543E+03  0.10888992544E+03  0.25629286713E+03  0.00000000000E+00 0.  1.
          1    1    1    2  501    0 -0.58640929845E+02 -0.97665771524E+02 -0.11167539244E+03  0.15952665877E+03  0.00000000000E+00 0. -1.
<scales pt_clust_5="13000.00000" pt_clust_6="13000.00000" pt_clust_7="13000.00000" pt_clust_8="13000.00000" pt_clust_9="231.99595" pt_clust_10="13000.00000"></scales>
<clustering>
<clus scale="   81.344">  5  6 -1 -1</clus>
<clus scale="   91.316">  2  5  1 -1</clus>
<clus scale="   93.301">  7  8 -1 -1</clus>
<clus scale="  110.793">  7 10 -1 -1</clus>
<clus scale="  231.996">  1  9  2 -1</clus>
<clus scale="  231.996">  1  5  2 -1</clus>
</clustering>
</event>
<event>
10    4  0.2565852E-005  0.3118609E+03  0.7546771E-02  0.1111546E+00
          2   -1    0    0  503    0 -0.00000000000E+00  0.00000000000E+00  0.77847243412E+03  0.77847243412E+03  0.00000000000E+00 0. -1.
         21   -1    0    0  501  502  0.00000000000E+00 -0.00000000000E+00 -0.15291044303E+03  0.15291044303E+03  0.00000000000E+00 0. -1.
         24    2    1    2    0    0 -0.59433936597E+02 -0.10810707141E+03  0.28914358225E+03  0.32442884845E+03  0.80190615662E+02 0.  0.
         23    2    1    2    0    0 -0.30782149484E+02 -0.40791290233E+02  0.37153321045E+03  0.38601725164E+03  0.91438077428E+02 0.  0.
        -11    1    3    3    0    0 -0.57218562967E+02 -0.22736851836E+02  0.12888195423E+03  0.14283377229E+03  0.00000000000E+00 0.  1.
         12    1    3    3    0    0 -0.22153736299E+01 -0.85370219569E+02  0.16026162802E+03  0.18159507616E+03  0.00000000000E+00 0. -1.
        -11    1    4    4    0    0 -0.60409215018E+02 -0.44300115701E+02  0.26708804235E+03  0.27739465726E+03  0.00000000000E+00 0. -1.
         11    1    4    4    0    0  0.29627065535E+02  0.35088254674E+01  0.10444516810E+03  0.10862259437E+03  0.00000000000E+00 0.  1.
         21    1    1    2  503  502  0.22478984682E+02  0.52815072861E+02 -0.77086058268E+02  0.96109297432E+02  0.00000000000E+00 0. -1.
          1    1    1    2  501    0  0.67737101398E+02  0.96083288778E+02  0.41971256647E+02  0.12482747964E+03  0.00000000000E+00 0. -1.
<scales pt_clust_5="13000.00000" pt_clust_6="13000.00000" pt_clust_7="13000.00000" pt_clust_8="13000.00000" pt_clust_9="57.39980" pt_clust_10="13000.00000"></scales>
<clustering>
<clus scale="   57.400">  2  9  1 -1</clus>
<clus scale="   80.191">  5  6 -1 -1</clus>
<clus scale="   91.438">  7  8 -1 -1</clus>
<clus scale="  134.663">  1  5  2 -1</clus>
<clus scale="  121.300">  7 10 -1 -1</clus>
<clus scale="   57.400">  2  5  1 -1</clus>
</clustering>
</event>
<event>
10    4  0.2565852E-005  0.1885903E+03  0.7546771E-02  0.1187172E+00
          2   -1    0    0  502    0 -0.00000000000E+00  0.00000000000E+00  0.39282143545E+03  0.39282143545E+03  0.00000000000E+00 0. -1.
         21   -1    0    0  503  502  0.00000000000E+00 -0.00000000000E+00 -0.21436222926E+03  0.21436222926E+03  0.00000000000E+00 0. -1.
         24    2    1    2    0    0 -0.33700008461E+02  0.86384103847E+02  0.65965625104E+02  0.13968748997E+03  0.81013746935E+02 0.  0.
         23    2    1    2    0    0  0.36910099702E+01  0.15416894402E+02  0.67339129182E+02  0.11763502113E+03  0.95142712226E+02 0.  0.
        -11    1    3    3    0    0 -0.46137130363E+02  0.12655128482E+02  0.19550779187E+02  0.51681912134E+02  0.00000000000E+00 0.  1.
         12    1    3    3    0    0  0.12437121902E+02  0.73728975365E+02  0.46414845917E+02  0.88005577841E+02  0.00000000000E+00 0. -1.
        -13    1    4    4    0    0 -0.22592939726E+02  0.32330864786E+02  0.75630863279E+02  0.85298025906E+02  0.00000000000E+00 0.  1.
         13    1    4    4    0    0  0.26283949696E+02 -0.16913970384E+02 -0.82917340965E+01  0.32336995224E+02  0.00000000000E+00 0. -1.
         21    1    1    2  503  501  0.74481682057E+02 -0.48873379067E+02 -0.13225396736E+03  0.15945921117E+03  0.00000000000E+00 0. -1.
          1    1    1    2  501    0 -0.44472683566E+02 -0.52927619182E+02  0.17740841926E+03  0.19040194243E+03  0.00000000000E+00 0. -1.
<scales pt_clust_5="13000.00000" pt_clust_6="13000.00000" pt_clust_7="13000.00000" pt_clust_8="13000.00000" pt_clust_9="89.08495" pt_clust_10="13000.00000"></scales>
<clustering>
<clus scale="   81.014">  5  6 -1 -1</clus>
<clus scale="   89.085">  2  9  1 -1</clus>
<clus scale="   95.143">  7  8 -1 -1</clus>
<clus scale="   68.651">  7 10 -1 -1</clus>
<clus scale="  101.066">  1  5  2 -1</clus>
<clus scale="   89.085">  2  5  1 -1</clus>
</clustering>
</event>
<event>
10    4  0.3832004E-005  0.2006040E+03  0.7546771E-02  0.1179191E+00
         21   -1    0    0  503  502  0.00000000000E+00  0.00000000000E+00  0.18929977690E+03  0.18929977690E+03  0.00000000000E+00 0. -1.
          2   -1    0    0  502    0 -0.00000000000E+00 -0.00000000000E+00 -0.49362800474E+03  0.49362800474E+03  0.00000000000E+00 0. -1.
         24    2    1    2    0    0  0.41211721894E+02  0.42089246081E+02 -0.45125483911E+02  0.10922234942E+03  0.80145503042E+02 0.  0.
         23    2    1    2    0    0 -0.17494838464E+02 -0.33759587358E+01 -0.31484205850E+03  0.32828835215E+03  0.91270224563E+02 0.  0.
        -11    1    3    3    0    0  0.37076488701E+02  0.65452848275E+02 -0.29443913416E+02  0.80781714509E+02  0.00000000000E+00 0.  1.
         12    1    3    3    0    0  0.41352331933E+01 -0.23363602194E+02 -0.15681570496E+02  0.28440634913E+02  0.00000000000E+00 0. -1.
        -13    1    4    4    0    0  0.30349082082E+02  0.21991699009E+02 -0.10208497663E+03  0.10874761636E+03  0.00000000000E+00 0.  1.
         13    1    4    4    0    0 -0.47843920546E+02 -0.25367657745E+02 -0.21275708186E+03  0.21954073580E+03  0.00000000000E+00 0. -1.
         21    1    1    2  503  501 -0.63050700788E+02  0.32706896686E+02  0.12141018899E+03  0.14066117428E+03  0.00000000000E+00 0. -1.
          1    1    1    2  501    0  0.39333817358E+02 -0.71420184032E+02 -0.65770874420E+02  0.10475590579E+03  0.00000000000E+00 0. -1.
<scales pt_clust_5="13000.00000" pt_clust_6="13000.00000" pt_clust_7="13000.00000" pt_clust_8="13000.00000" pt_clust_9="71.02909" pt_clust_10="13000.00000"></scales>
<clustering>
<clus scale="   71.029">  1  9  2 -1</clus>
<clus scale="   80.146">  5  6 -1 -1</clus>
<clus scale="   91.270">  7  8 -1 -1</clus>
<clus scale="   63.169">  7 10 -1 -1</clus>
<clus scale="  100.377">  2  5  1 -1</clus>
<clus scale="   71.029">  1  5  2 -1</clus>
</clustering>
</event>
<event>
10    4  0.2565852E-005  0.1968033E+03  0.7546771E-02  0.1171059E+00
          2   -1    0    0  503    0 -0.00000000000E+00  0.00000000000E+00  0.29536460819E+03  0.29536460819E+03  0.00000000000E+00 0. -1.
         21   -1    0    0  501  502  0.00000000000E+00 -0.00000000000E+00 -0.36392524601E+03  0.36392524601E+03  0.00000000000E+00 0.  1.
         24    2    1    2    0    0  0.88784187741E+02 -0.46260986204E+02 -0.14756130095E+03  0.19522698362E+03  0.79476579927E+02 0.  0.
         23    2    1    2    0    0 -0.18927546573E+02 -0.21051452765E+02  0.92410214770E+02  0.13195339369E+03  0.89836710927E+02 0.  0.
        -13    1    3    3    0    0  0.28361437502E+02 -0.13581198852E+02 -0.11497157762E+03  0.11919431094E+03  0.00000000000E+00 0.  1.
         14    1    3    3    0    0  0.60422750239E+02 -0.32679787352E+02 -0.32589723326E+02  0.76032672676E+02  0.00000000000E+00 0. -1.
        -11    1    4    4    0    0 -0.10139058235E+02  0.32365394295E+02  0.59818609069E+02  0.68764709268E+02  0.00000000000E+00 0. -1.
         11    1    4    4    0    0 -0.87884883371E+01 -0.53416847060E+02  0.32591605701E+02  0.63188684424E+02  0.00000000000E+00 0.  1.
         21    1    1    2  503  502 -0.96926232563E+02  0.11368800689E+03 -0.13363035894E+03  0.20044133880E+03  0.00000000000E+00 0.  1.
          1    1    1    2  501    0  0.27069591395E+02 -0.46375567921E+02  0.12022080731E+03  0.13166813809E+03  0.00000000000E+00 0. -1.
<scales pt_clust_5="13000.00000" pt_clust_6="13000.00000" pt_clust_7="13000.00000" pt_clust_8="13000.00000" pt_clust_9="138.05753" pt_clust_10="13000.00000"></scales>
<clustering>
<clus scale="   79.477">  5  6 -1 -1</clus>
<clus scale="   89.837">  7  8 -1 -1</clus>
<clus scale="   53.698">  7 10 -1 -1</clus>
<clus scale="  127.825">  1  5  2 -1</clus>
<clus scale="  138.058">  2  9  1 -1</clus>
<clus scale="  138.058">  2  5  1 -1</clus>
</clustering>
</event>
<event>
10    4  0.2565852E-005  0.4008472E+03  0.7546771E-02  0.1076259E+00
          2   -1    0    0  503    0 -0.00000000000E+00  0.00000000000E+00  0.10784234930E+04  0.10784234930E+04  0.00000000000E+00 0. -1.
         21   -1    0    0  501  502  0.00000000000E+00 -0.00000000000E+00 -0.11478776918E+03  0.11478776918E+03  0.00000000000E+00 0. -1.
         24    2    1    2    0    0  0.45625348134E+02  0.13939884662E+03  0.13376355506E+03  0.21468640812E+03  0.81754842911E+02 0.  0.
         23    2    1    2    0    0  0.20157105587E+02  0.30251492367E+02  0.32622729091E+02  0.10434514130E+03  0.92207398633E+02 0.  0.
        -11    1    3    3    0    0  0.59253019685E+02  0.12413439040E+03  0.84726929031E+02  0.16155160081E+03  0.00000000000E+00 0.  1.
         12    1    3    3    0    0 -0.13627671551E+02  0.15264456214E+02  0.49036626027E+02  0.53134807307E+02  0.00000000000E+00 0. -1.
        -13    1    4    4    0    0  0.43006724877E+02 -0.10566454702E+02  0.36524464216E+02  0.57404397357E+02  0.00000000000E+00 0.  1.
         13    1    4    4    0    0 -0.22849619289E+02  0.40817947069E+02 -0.39017351249E+01  0.46940743939E+02  0.00000000000E+00 0. -1.
         21    1    1    2  503  502  0.10632886911E+02 -0.23787325883E+02 -0.24697348421E+02  0.35900615257E+02  0.00000000000E+00 0. -1.
          1    1    1    2  501    0 -0.76415340632E+02 -0.14586301310E+03  0.82194678810E+03  0.83827909752E+03  0.00000000000E+00 0. -1.
<scales pt_clust_5="13000.00000" pt_clust_6="13000.00000" pt_clust_7="13000.00000" pt_clust_8="13000.00000" pt_clust_9="26.05562" pt_clust_10="13000.00000"></scales>
<clustering>
<clus scale="   26.056">  2  9  1 -1</clus>
<clus scale="   81.755">  5  6 -1 -1</clus>
<clus scale="   92.207">  7  8 -1 -1</clus>
<clus scale="  160.131">  1  5  2 -1</clus>
<clus scale="   41.339">  7 10 -1 -1</clus>
<clus scale="   26.056">  2  5  1 -1</clus>
</clustering>
</event>
<event>
10    4  0.2565852E-005  0.4406563E+03  0.7546771E-02  0.1078863E+00
         -1   -1    0    0    0  501 -0.00000000000E+00  0.00000000000E+00  0.15574431251E+03  0.15574431251E+03  0.00000000000E+00 0.  1.
         21   -1    0    0  501  502  0.00000000000E+00 -0.00000000000E+00 -0.72432757892E+03  0.72432757892E+03  0.00000000000E+00 0.  1.
         24    2    1    2    0    0 -0.20158309164E+02 -0.28120313985E+02 -0.53368299685E+01  0.11129634472E+03  0.10564698343E+03 0.  0.
         23    2    1    2    0    0  0.68962871790E+02 -0.12989469927E+03 -0.49003928908E+03  0.51972947355E+03  0.91387691977E+02 0.  0.
        -13    1    3    3    0    0 -0.60686163168E+02 -0.12535397348E+02  0.14371202173E+02  0.63611933146E+02  0.00000000000E+00 0.  1.
         14    1    3    3    0    0  0.40527854004E+02 -0.15584916637E+02 -0.19708032141E+02  0.47684411579E+02  0.00000000000E+00 0. -1.
        -11    1    4    4    0    0  0.28839209352E+02 -0.22024624032E+01 -0.34953101870E+02  0.45368162482E+02  0.00000000000E+00 0. -1.
         11    1    4    4    0    0  0.40123662438E+02 -0.12769223686E+03 -0.45508618721E+03  0.47436131106E+03  0.00000000000E+00 0.  1.
         21    1    1    2  503  502 -0.72788175570E+02  0.99809325667E+01 -0.66237463846E+02  0.98919862183E+02  0.00000000000E+00 0. -1.
         -2    1    1    2    0  503  0.23983612943E+02  0.14803408068E+03 -0.69696835121E+01  0.15012621098E+03  0.00000000000E+00 0.  1.
<scales pt_clust_5="13000.00000" pt_clust_6="13000.00000" pt_clust_7="13000.00000" pt_clust_8="13000.00000" pt_clust_9="73.46930" pt_clust_10="13000.00000"></scales>
<clustering>
<clus scale="   73.469">  2  9  1 -1</clus>
<clus scale="   91.388">  7  8 -1 -1</clus>
<clus scale="  105.647">  5  6 -1 -1</clus>
<clus scale="  112.333">  1  5  2 -1</clus>
<clus scale="  129.358">  7 10 -1 -1</clus>
<clus scale="   73.469">  2  5  1 -1</clus>
</clustering>
</event>
<event>
10    4  0.2565852E-005  0.7191355E+03  0.7546771E-02  0.9848607E-01
          2   -1    0    0  503    0 -0.00000000000E+00  0.00000000000E+00  0.35577757259E+04  0.35577757259E+04  0.00000000000E+00 0. -1.
         21   -1    0    0  501  502  0.00000000000E+00 -0.00000000000E+00 -0.18188859987E+03  0.18188859987E+03  0.00000000000E+00 0. -1.
         24    2    1    2    0    0  0.39304573109E+03 -0.16622935208E+03  0.16699907728E+04  0.17254944827E+04  0.79654784423E+02 0.  0.
         23    2    1    2    0    0  0.15755088459E+03  0.13948446092E+02  0.46413361093E+03  0.49909655656E+03  0.93061934129E+02 0.  0.
        -13    1    3    3    0    0  0.50592476825E+02 -0.52298840791E+02  0.25200238648E+03  0.26229748426E+03  0.00000000000E+00 0.  1.
         14    1    3    3    0    0  0.34245325427E+03 -0.11393051129E+03  0.14179883863E+04  0.14631969985E+04  0.00000000000E+00 0. -1.
        -11    1    4    4    0    0  0.39661300398E+02  0.17454800517E+02  0.25794350444E+03  0.26155791002E+03  0.00000000000E+00 0.  1.
         11    1    4    4    0    0  0.11788958420E+03 -0.35063544255E+01  0.20619010649E+03  0.23753864653E+03  0.00000000000E+00 0. -1.
         21    1    1    2  503  502 -0.59526596250E+02 -0.39471936857E+01 -0.78041457099E+02  0.98231690534E+02  0.00000000000E+00 0. -1.
          1    1    1    2  501    0 -0.49107001944E+03  0.15622809967E+03  0.13198041995E+04  0.14168415960E+04  0.00000000000E+00 0. -1.
<scales pt_clust_5="13000.00000" pt_clust_6="13000.00000" pt_clust_7="13000.00000" pt_clust_8="13000.00000" pt_clust_9="59.65732" pt_clust_10="13000.00000"></scales>
<clustering>
<clus scale="   59.657">  2  9  1 -1</clus>
<clus scale="   79.655">  5  6 -1 -1</clus>
<clus scale="   93.062">  7  8 -1 -1</clus>
<clus scale="  418.701">  1  5  2 -1</clus>
<clus scale="  231.752">  7 10 -1 -1</clus>
<clus scale="   59.657">  2  5  1 -1</clus>
</clustering>
</event>
<event>
10    4  0.2565852E-005  0.6498987E+03  0.7546771E-02  0.1043417E+00
         21   -1    0    0  501  502  0.00000000000E+00  0.00000000000E+00  0.15643811093E+03  0.15643811093E+03  0.00000000000E+00 0. -1.
          2   -1    0    0  503    0 -0.00000000000E+00 -0.00000000000E+00 -0.23018667852E+04  0.23018667852E+04  0.00000000000E+00 0. -1.
         24    2    1    2    0    0 -0.29335265542E+02  0.32052544415E+02 -0.27984559152E+03  0.29445096443E+03  0.80621907413E+02 0.  0.
         23    2    1    2    0    0 -0.22131315538E+03  0.13424044133E+03 -0.12945550296E+04  0.13234269759E+04  0.92661897025E+02 0.  0.
        -11    1    3    3    0    0  0.27228894712E+01 -0.24600313668E+02 -0.53814527978E+02  0.59233377255E+02  0.00000000000E+00 0.  1.
         12    1    3    3    0    0 -0.32058155014E+02  0.56652858083E+02 -0.22603106354E+03  0.23521758718E+03  0.00000000000E+00 0. -1.
        -11    1    4    4    0    0 -0.84921843087E+02  0.91616573501E+02 -0.75526631548E+03  0.76552761105E+03  0.00000000000E+00 0.  1.
         11    1    4    4    0    0 -0.13639131229E+03  0.42623867825E+02 -0.53928871412E+03  0.55789936490E+03  0.00000000000E+00 0. -1.
         21    1    1    2  503  502  0.28267676041E+02  0.77941939338E+02  0.76950550143E+02  0.11311672990E+03  0.00000000000E+00 0. -1.
          1    1    1    2  501    0  0.22238074488E+03 -0.24423492508E+03 -0.64797860332E+03  0.72731022589E+03  0.00000000000E+00 0. -1.
<scales pt_clust_5="13000.00000" pt_clust_6="13000.00000" pt_clust_7="13000.00000" pt_clust_8="13000.00000" pt_clust_9="82.90963" pt_clust_10="13000.00000"></scales>
<clustering>
<clus scale="   80.622">  5  6 -1 -1</clus>
<clus scale="   82.910">  1  9  2 -1</clus>
<clus scale="   92.662">  7  8 -1 -1</clus>
<clus scale="   94.244">  2  5  1 -1</clus>
<clus scale="  294.500">  7 10 -1 -1</clus>
<clus scale="   82.910">  1  5  2 -1</clus>
</clustering>
</event>
<event>
10    4  0.2565852E-005  0.2900483E+03  0.7546771E-02  0.1109562E+00
          4   -1    0    0  502    0 -0.00000000000E+00  0.00000000000E+00  0.11878570014E+04  0.11878570014E+04  0.00000000000E+00 0. -1.
         21   -1    0    0  503  502  0.00000000000E+00 -0.00000000000E+00 -0.73471353502E+02  0.73471353502E+02  0.00000000000E+00 0. -1.
         24    2    1    2    0    0  0.12285206505E+03 -0.93771110720E+02  0.52485729044E+03  0.55284949772E+03  0.79257433185E+02 0.  0.
         23    2    1    2    0    0 -0.66544204682E+02 -0.66800268699E+02  0.23106685553E+03  0.26759250467E+03  0.96558012377E+02 0.  0.
        -11    1    3    3    0    0  0.10583006714E+03 -0.57138530837E+02  0.46732159796E+03  0.48254978058E+03  0.00000000000E+00 0.  1.
         12    1    3    3    0    0  0.17021997912E+02 -0.36632579883E+02  0.57535692478E+02  0.70299717146E+02  0.00000000000E+00 0. -1.
        -11    1    4    4    0    0 -0.34695817505E+02 -0.57753370323E+02  0.22376579731E+03  0.23368864667E+03  0.00000000000E+00 0. -1.
         11    1    4    4    0    0 -0.31848387177E+02 -0.90468983760E+01  0.73010582196E+01  0.33903857998E+02  0.00000000000E+00 0.  1.
         21    1    1    2  503  501  0.31712912539E+02  0.29015489211E+02 -0.61287583118E+01  0.43418534226E+02  0.00000000000E+00 0.  1.
          3    1    1    2  501    0 -0.88020772910E+02  0.13155589021E+03  0.36459026030E+03  0.39746781834E+03  0.00000000000E+00 0. -1.
<scales pt_clust_5="13000.00000" pt_clust_6="13000.00000" pt_clust_7="13000.00000" pt_clust_8="13000.00000" pt_clust_9="42.98380" pt_clust_10="13000.00000"></scales>
<clustering>
<clus scale="   42.984">  2  9  1 -1</clus>
<clus scale="   79.257">  5  6 -1 -1</clus>
<clus scale="   96.558">  7  8 -1 -1</clus>
<clus scale="  161.114">  7 10 -1 -1</clus>
<clus scale="  176.055">  1  5  2 -1</clus>
<clus scale="   42.984">  2  5  1 -1</clus>
</clustering>
</event>
<event>
10    4  0.2565852E-005  0.1819469E+03  0.7546771E-02  0.1199126E+00
          2   -1    0    0  502    0 -0.00000000000E+00  0.00000000000E+00  0.31678534504E+03  0.31678534504E+03  0.00000000000E+00 0. -1.
         21   -1    0    0  503  502  0.00000000000E+00 -0.00000000000E+00 -0.94979583395E+02  0.94979583395E+02  0.00000000000E+00 0. -1.
         24    2    1    2    0    0 -0.21858308384E+02  0.36766569221E+02  0.12487858683E+03  0.15449735711E+03  0.80282038139E+02 0.  0.
         23    2    1    2    0    0 -0.45040399753E+02  0.51902572981E+02  0.63200195717E+02  0.12951757163E+03  0.89766485558E+02 0.  0.
        -13    1    3    3    0    0 -0.38713270022E+02 -0.99337429019E+01  0.69073835653E+02  0.79803454159E+02  0.00000000000E+00 0.  1.
         14    1    3    3    0    0  0.16854961638E+02  0.46700312123E+02  0.55804751176E+02  0.74693902950E+02  0.00000000000E+00 0. -1.
        -13    1    4    4    0    0 -0.64289204838E+02  0.93913108080E+01  0.46726403651E+02  0.80029090808E+02  0.00000000000E+00 0. -1.
         13    1    4    4    0    0  0.19248805085E+02  0.42511262173E+02  0.16473792066E+02  0.49488480819E+02  0.00000000000E+00 0.  1.
         21    1    1    2  503  501  0.98720251033E+01 -0.56768103000E+02  0.19902543561E+02  0.60960525245E+02  0.00000000000E+00 0. -1.
          1    1    1    2  501    0  0.57026683034E+02 -0.31901039201E+02  0.13824435538E+02  0.66789474455E+02  0.00000000000E+00 0. -1.
<scales pt_clust_5="13000.00000" pt_clust_6="13000.00000" pt_clust_7="13000.00000" pt_clust_8="13000.00000" pt_clust_9="57.62009" pt_clust_10="13000.00000"></scales>
<clustering>
<clus scale="   57.620">  2  9  1 -1</clus>
<clus scale="   80.282">  5  6 -1 -1</clus>
<clus scale="   86.545">  1  5  2 -1</clus>
<clus scale="   89.766">  7  8 -1 -1</clus>
<clus scale="   66.805">  7 10 -1 -1</clus>
<clus scale="   57.620">  2  5  1 -1</clus>
</clustering>
</event>
<event>
10    4  0.2565852E-005  0.3699825E+03  0.7546771E-02  0.1106248E+00
          2   -1    0    0  502    0 -0.00000000000E+00  0.00000000000E+00  0.64968287289E+03  0.64968287289E+03  0.00000000000E+00 0. -1.
         21   -1    0    0  503  502  0.00000000000E+00 -0.00000000000E+00 -0.17241146892E+03  0.17241146892E+03  0.00000000000E+00 0. -1.
         24    2    1    2    0    0 -0.42747133904E+02 -0.17198946323E+02  0.33981990643E+03  0.35227955354E+03  0.80623779513E+02 0.  0.
         23    2    1    2    0    0  0.77072882561E+02  0.69363791407E+02 -0.59821729247E+02  0.15112869316E+03  0.92247914997E+02 0.  0.
        -13    1    3    3    0    0  0.17679019098E+02 -0.25534442192E+02  0.13752416659E+03  0.14098741735E+03  0.00000000000E+00 0.  1.
         14    1    3    3    0    0 -0.60426153001E+02  0.83354958686E+01  0.20229573984E+03  0.21129213619E+03  0.00000000000E+00 0. -1.
        -13    1    4    4    0    0  0.93033170355E+01  0.54121804928E+02 -0.60441721102E+02  0.81663474861E+02  0.00000000000E+00 0.  1.
         13    1    4    4    0    0  0.67769565525E+02  0.15241986479E+02  0.61999185502E+00  0.69465218298E+02  0.00000000000E+00 0. -1.
         21    1    1    2  503  501  0.16034450860E+02  0.16185518430E+02 -0.51236800196E+02  0.56073918318E+02  0.00000000000E+00 0. -1.
          1    1    1    2  501    0 -0.50360199516E+02 -0.68350363514E+02  0.24851002699E+03  0.26261217679E+03  0.00000000000E+00 0. -1.
<scales pt_clust_5="13000.00000" pt_clust_6="13000.00000" pt_clust_7="13000.00000" pt_clust_8="13000.00000" pt_clust_9="22.78321" pt_clust_10="13000.00000"></scales>
<clustering>
<clus scale="   22.783">  2  9  1 -1</clus>
<clus scale="   80.624">  5  6 -1 -1</clus>
<clus scale="   92.248">  7  8 -1 -1</clus>
<clus scale="   83.561">  7 10 -1 -1</clus>
<clus scale="   92.323">  1  5  2 -1</clus>
<clus scale="   22.783">  2  5  1 -1</clus>
</clustering>
</event>
<event>
10    4  0.2565852E-005  0.4227162E+03  0.7546771E-02  0.1071978E+00
          2   -1    0    0  502    0 -0.00000000000E+00  0.00000000000E+00  0.12069881288E+04  0.12069881288E+04  0.00000000000E+00 0. -1.
         21   -1    0    0  503  502  0.00000000000E+00 -0.00000000000E+00 -0.11903314296E+03  0.11903314296E+03  0.00000000000E+00 0.  1.
         24    2    1    2    0    0 -0.13232446239E+03 -0.21406112793E+02  0.13534381815E+03  0.20758280612E+03  0.82490528393E+02 0.  0.
         23    2    1    2    0    0 -0.91704770826E+01 -0.40661312727E+02  0.25027647522E+02  0.10186034845E+03  0.89508141774E+02 0.  0.
        -13    1    3    3    0    0 -0.83580534382E+02  0.72904349298E+01  0.32041295251E+02  0.89808133098E+02  0.00000000000E+00 0.  1.
         14    1    3    3    0    0 -0.48743928007E+02 -0.28696547723E+02  0.10330252290E+03  0.11777467302E+03  0.00000000000E+00 0. -1.
        -11    1    4    4    0    0 -0.19843213042E+01  0.27378133960E+02  0.18563782683E+02  0.33137799832E+02  0.00000000000E+00 0. -1.
         11    1    4    4    0    0 -0.71861557784E+01 -0.68039446686E+02  0.64638648391E+01  0.68722548621E+02  0.00000000000E+00 0.  1.
         21    1    1    2  503  501  0.67280376417E+01  0.35771930922E+02 -0.31243567186E+02  0.47969344616E+02  0.00000000000E+00 0.  1.
          1    1    1    2  501    0  0.13476690183E+03  0.26295494598E+02  0.95882708731E+03  0.96860877253E+03  0.00000000000E+00 0. -1.
<scales pt_clust_5="13000.00000" pt_clust_6="13000.00000" pt_clust_7="13000.00000" pt_clust_8="13000.00000" pt_clust_9="36.39914" pt_clust_10="13000.00000"></scales>
<clustering>
<clus scale="   36.399">  2  9  1 -1</clus>
<clus scale="   82.491">  5  6 -1 -1</clus>
<clus scale="   89.508">  7  8 -1 -1</clus>
<clus scale="  138.153">  7 10 -1 -1</clus>
<clus scale="  153.429">  1  5  2 -1</clus>
<clus scale="   36.399">  2  5  1 -1</clus>
</clustering>
</event>
<event>
10    4  0.2565852E-005  0.3130960E+03  0.7546771E-02  0.1107787E+00
         21   -1    0    0  501  502  0.00000000000E+00  0.00000000000E+00  0.58799170665E+02  0.58799170665E+02  0.00000000000E+00 0.  1.
         -1   -1    0    0    0  501 -0.00000000000E+00 -0.00000000000E+00 -0.15752438039E+04  0.15752438039E+04  0.00000000000E+00 0.  1.
         24    2    1    2    0    0 -0.12507639775E+03  0.81570360616E+01 -0.74167603874E+03  0.75625240826E+03  0.78254175861E+02 0.  0.
         23    2    1    2    0    0  0.39046301952E+01 -0.66584888506E+02 -0.86804507459E+02  0.14206629370E+03  0.90548416750E+02 0.  0.
        -11    1    3    3    0    0 -0.13272730260E+03 -0.41908959930E+01 -0.68433355176E+03  0.69709863759E+03  0.00000000000E+00 0.  1.
         12    1    3    3    0    0  0.76509048472E+01  0.12347932055E+02 -0.57342486978E+02  0.59153770664E+02  0.00000000000E+00 0. -1.
        -11    1    4    4    0    0 -0.28611730489E+02 -0.17041253393E+01  0.33426706340E+00  0.28664383810E+02  0.00000000000E+00 0.  1.
         11    1    4    4    0    0  0.32516360684E+02 -0.64880763167E+02 -0.87138774523E+02  0.11340190989E+03  0.00000000000E+00 0. -1.
         21    1    1    2  503  502  0.14865621865E+02  0.58999135077E+02 -0.27517317863E+02  0.66776398792E+02  0.00000000000E+00 0.  1.
         -2    1    1    2    0  503  0.10630614569E+03 -0.57128263175E+00 -0.66044676918E+03  0.66894787383E+03  0.00000000000E+00 0.  1.
<scales pt_clust_5="13000.00000" pt_clust_6="13000.00000" pt_clust_7="13000.00000" pt_clust_8="13000.00000" pt_clust_9="60.84312" pt_clust_10="13000.00000"></scales>
<clustering>
<clus scale="   60.843">  1  9  2 -1</clus>
<clus scale="   78.254">  5  6 -1 -1</clus>
<clus scale="   90.548">  7  8 -1 -1</clus>
<clus scale="  108.077">  7 10 -1 -1</clus>
<clus scale="  146.457">  2  5  1 -1</clus>
<clus scale="   60.843">  1  5  2 -1</clus>
</clustering>
</event>
<event>
10    4  0.2565852E-005  0.1685743E+03  0.7546771E-02  0.1207031E+00
          2   -1    0    0  502    0 -0.00000000000E+00  0.00000000000E+00  0.53017846332E+03  0.53017846332E+03  0.00000000000E+00 0. -1.
         21   -1    0    0  503  502  0.00000000000E+00 -0.00000000000E+00 -0.18528169673E+03  0.18528169673E+03  0.00000000000E+00 0. -1.
         24    2    1    2    0    0 -0.46106154280E+02 -0.18586668194E+02  0.47795912499E+03  0.48674336858E+03  0.77478642178E+02 0.  0.
         23    2    1    2    0    0 -0.16031227360E+02 -0.13532596082E+01 -0.12439979041E+03  0.15601258790E+03  0.92767387403E+02 0.  0.
        -11    1    3    3    0    0 -0.29837445808E+02 -0.21382543571E+02  0.75549513691E+02  0.83995329399E+02  0.00000000000E+00 0.  1.
         12    1    3    3    0    0 -0.16268708472E+02  0.27958753766E+01  0.40240961130E+03  0.40274803918E+03  0.00000000000E+00 0. -1.
        -11    1    4    4    0    0 -0.31736618366E+02  0.39325894387E+02 -0.65538588276E+02  0.82758960046E+02  0.00000000000E+00 0.  1.
         11    1    4    4    0    0  0.15705391006E+02 -0.40679153995E+02 -0.58861202138E+02  0.73253627852E+02  0.00000000000E+00 0. -1.
         21    1    1    2  503  501  0.19550274752E+02  0.10899053545E+02 -0.17337213408E+02  0.28312216087E+02  0.00000000000E+00 0. -1.
          1    1    1    2  501    0  0.42587106888E+02  0.90408742578E+01  0.86746454146E+01  0.44391987493E+02  0.00000000000E+00 0. -1.
<scales pt_clust_5="13000.00000" pt_clust_6="13000.00000" pt_clust_7="13000.00000" pt_clust_8="13000.00000" pt_clust_9="22.38309" pt_clust_10="13000.00000"></scales>
<clustering>
<clus scale="   22.383">  2  9  1 -1</clus>
<clus scale="   77.479">  5  6 -1 -1</clus>
<clus scale="   91.733">  1  5  2 -1</clus>
<clus scale="   92.767">  7  8 -1 -1</clus>
<clus scale="   18.074">  7 10 -1 -1</clus>
<clus scale="   22.383">  2  5  1 -1</clus>
</clustering>
</event>
<event>
10    4  0.2565852E-005  0.5166297E+03  0.7546771E-02  0.1068587E+00
          2   -1    0    0  503    0 -0.00000000000E+00  0.00000000000E+00  0.40314434559E+03  0.40314434559E+03  0.00000000000E+00 0. -1.
         21   -1    0    0  501  502  0.00000000000E+00 -0.00000000000E+00 -0.30349342365E+03  0.30349342365E+03  0.00000000000E+00 0. -1.
         24    2    1    2    0    0 -0.10044293028E+02  0.58974274422E+02 -0.39406221739E+02  0.10702417000E+03  0.79513959693E+02 0.  0.
         23    2    1    2    0    0  0.36352237128E+02  0.12885332479E+03  0.27156853604E+03  0.31619757031E+03  0.91141479325E+02 0.  0.
        -13    1    3    3    0    0  0.29864391331E+02  0.20713021030E+01 -0.13666692815E+02  0.32908215607E+02  0.00000000000E+00 0.  1.
         14    1    3    3    0    0 -0.39908684360E+02  0.56902972319E+02 -0.25739528924E+02  0.74115954391E+02  0.00000000000E+00 0. -1.
        -11    1    4    4    0    0 -0.16058674941E+02  0.46458799787E+02  0.16264027786E+03  0.16990633037E+03  0.00000000000E+00 0. -1.
         11    1    4    4    0    0  0.52410912069E+02  0.82394524998E+02  0.10892825818E+03  0.14629123994E+03  0.00000000000E+00 0.  1.
         21    1    1    2  503  502  0.48477352184E+02 -0.46265914289E+02  0.11599399839E+02  0.68008341962E+02  0.00000000000E+00 0. -1.
          1    1    1    2  501    0 -0.74785296284E+02 -0.14156168492E+03 -0.14411079219E+03  0.21540768696E+03  0.00000000000E+00 0. -1.
<scales pt_clust_5="13000.00000" pt_clust_6="13000.00000" pt_clust_7="13000.00000" pt_clust_8="13000.00000" pt_clust_9="67.01189" pt_clust_10="13000.00000"></scales>
<clustering>
<clus scale="   67.012">  2  9  1 -1</clus>
<clus scale="   79.514">  5  6 -1 -1</clus>
<clus scale="   91.141">  7  8 -1 -1</clus>
<clus scale="   92.242">  1  5  2 -1</clus>
<clus scale="  168.163">  7 10 -1 -1</clus>
<clus scale="   67.012">  2  5  1 -1</clus>
</clustering>
</event>
<event>
10    4  0.2565852E-005  0.2507016E+03  0.7546771E-02  0.1152126E+00
          2   -1    0    0  502    0 -0.00000000000E+00  0.00000000000E+00  0.55614784101E+03  0.55614784101E+03  0.00000000000E+00 0. -1.
         21   -1    0    0  503  502  0.00000000000E+00 -0.00000000000E+00 -0.78489378356E+02  0.78489378356E+02  0.00000000000E+00 0. -1.
         24    2    1    2    0    0 -0.36544405475E+02  0.41040882200E+02  0.27949695959E+03  0.29591556362E+03  0.80172456560E+02 0.  0.
         23    2    1    2    0    0 -0.52360804426E+02  0.53611216677E+02  0.41062566231E+02  0.12478256688E+03  0.90932602837E+02 0.  0.
        -13    1    3    3    0    0  0.24810003754E+02  0.17221835811E+02  0.67770864850E+02  0.74195808759E+02  0.00000000000E+00 0.  1.
         14    1    3    3    0    0 -0.61354409229E+02  0.23819046389E+02  0.21172609474E+03  0.22171975486E+03  0.00000000000E+00 0. -1.
        -11    1    4    4    0    0  0.22834429131E+02  0.30755697228E+02  0.61955689271E+01  0.38803468145E+02  0.00000000000E+00 0.  1.
         11    1    4    4    0    0 -0.75195233557E+02  0.22855519449E+02  0.34866997304E+02  0.85979098739E+02  0.00000000000E+00 0. -1.
         21    1    1    2  503  501  0.20421173867E+02 -0.64299355538E+01  0.27504342930E+00  0.21411306878E+02  0.00000000000E+00 0.  1.
          1    1    1    2  501    0  0.68484036035E+02 -0.88222163324E+02  0.15682389341E+03  0.19252778199E+03  0.00000000000E+00 0. -1.
<scales pt_clust_5="13000.00000" pt_clust_6="13000.00000" pt_clust_7="13000.00000" pt_clust_8="13000.00000" pt_clust_9="21.40954" pt_clust_10="13000.00000"></scales>
<clustering>
<clus scale="   21.410">  2  9  1 -1</clus>
<clus scale="   80.172">  5  6 -1 -1</clus>
<clus scale="   90.933">  7  8 -1 -1</clus>
<clus scale="   95.969">  1  5  2 -1</clus>
<clus scale="   79.521">  7 10 -1 -1</clus>
<clus scale="   21.410">  2  5  1 -1</clus>
</clustering>
</event>
<event>
10    4  0.2565852E-005  0.1814181E+03  0.7546771E-02  0.1172826E+00
          2   -1    0    0  503    0 -0.00000000000E+00  0.00000000000E+00  0.15686794279E+04  0.15686794279E+04  0.00000000000E+00 0. -1.
         21   -1    0    0  501  502  0.00000000000E+00 -0.00000000000E+00 -0.40118191176E+02  0.40118191176E+02  0.00000000000E+00 0. -1.
         24    2    1    2    0    0 -0.79565947778E+02  0.23129114700E+02  0.21087687801E+03  0.23948342094E+03  0.77572902703E+02 0.  0.
         23    2    1    2    0    0  0.93409292584E+02 -0.70865390777E+02  0.70532013544E+03  0.72088802294E+03  0.91955688287E+02 0.  0.
        -11    1    3    3    0    0 -0.54208187976E+02  0.51908848106E+02  0.14409323526E+03  0.16246820182E+03  0.00000000000E+00 0.  1.
         12    1    3    3    0    0 -0.25357759801E+02 -0.28779733406E+02  0.66783642754E+02  0.77015219123E+02  0.00000000000E+00 0. -1.
        -13    1    4    4    0    0 -0.16978452830E+02 -0.11558934788E+02  0.57471503229E+02  0.61031553457E+02  0.00000000000E+00 0.  1.
         13    1    4    4    0    0  0.11038774541E+03 -0.59306455988E+02  0.64784863221E+03  0.65985646948E+03  0.00000000000E+00 0. -1.
         21    1    1    2  503  502 -0.53188695597E+02  0.94039055923E+02  0.16676414370E+03  0.19870244338E+03  0.00000000000E+00 0.  1.
          1    1    1    2  501    0  0.39345350791E+02 -0.46302779847E+02  0.44560007956E+03  0.44972373181E+03  0.00000000000E+00 0. -1.
<scales pt_clust_5="13000.00000" pt_clust_6="13000.00000" pt_clust_7="13000.00000" pt_clust_8="13000.00000" pt_clust_9="108.03880" pt_clust_10="13000.00000"></scales>
<clustering>
<clus scale="   77.573">  5  6 -1 -1</clus>
<clus scale="   91.956">  7  8 -1 -1</clus>
<clus scale="   60.762">  7 10 -1 -1</clus>
<clus scale="  108.039">  2  9  1 -1</clus>
<clus scale="  156.741">  1  5  2 -1</clus>
<clus scale="  108.039">  2  5  1 -1</clus>
</clustering>
</event>
<event>
10    4  0.2565852E-005  0.3602643E+03  0.7546771E-02  0.1112351E+00
         21   -1    0    0  503  502  0.00000000000E+00  0.00000000000E+00  0.28570459158E+03  0.28570459158E+03  0.00000000000E+00 0. -1.
          2   -1    0    0  502    0 -0.00000000000E+00 -0.00000000000E+00 -0.55959599142E+03  0.55959599142E+03  0.00000000000E+00 0. -1.
         24    2    1    2    0    0 -0.14539819030E+01  0.30540663506E+02 -0.38806178424E+03  0.39732930943E+03  0.79647884774E+02 0.  0.
         23    2    1    2    0    0 -0.13064778002E+03 -0.16338287300E+02 -0.90073210821E+02  0.18282260421E+03  0.89303635138E+02 0.  0.
        -11    1    3    3    0    0  0.16068172950E+02 -0.15967565545E+02 -0.42023100872E+02  0.47739819211E+02  0.00000000000E+00 0.  1.
         12    1    3    3    0    0 -0.17522154853E+02  0.46508229052E+02 -0.34603868337E+03  0.34958949022E+03  0.00000000000E+00 0. -1.
        -13    1    4    4    0    0 -0.11553468822E+03 -0.39754939063E+02 -0.45754632702E+02  0.13046917558E+03  0.00000000000E+00 0. -1.
         13    1    4    4    0    0 -0.15113091794E+02  0.23416651763E+02 -0.44318578119E+02  0.52353428635E+02  0.00000000000E+00 0.  1.
         21    1    1    2  503  501  0.13135634256E+02  0.34278418364E+02  0.71781935616E+02  0.80623824851E+02  0.00000000000E+00 0. -1.
          1    1    1    2  501    0  0.11896612766E+03 -0.48480794570E+02  0.13246165961E+03  0.18452484451E+03  0.00000000000E+00 0. -1.
<scales pt_clust_5="13000.00000" pt_clust_6="13000.00000" pt_clust_7="13000.00000" pt_clust_8="13000.00000" pt_clust_9="36.70906" pt_clust_10="13000.00000"></scales>
<clustering>
<clus scale="   36.709">  1  9  2 -1</clus>
<clus scale="   79.648">  5  6 -1 -1</clus>
<clus scale="   85.585">  2  5  1 -1</clus>
<clus scale="   89.304">  7  8 -1 -1</clus>
<clus scale="  129.740">  7 10 -1 -1</clus>
<clus scale="   36.709">  1  5  2 -1</clus>
</clustering>
</event>
<event>
10    4  0.2565852E-005  0.1547993E+03  0.7546771E-02  0.1208186E+00
          2   -1    0    0  502    0 -0.00000000000E+00  0.00000000000E+00  0.96056491431E+03  0.96056491431E+03  0.00000000000E+00 0. -1.
         21   -1    0    0  503  502  0.00000000000E+00 -0.00000000000E+00 -0.67889988283E+02  0.67889988283E+02  0.00000000000E+00 0. -1.
         24    2    1    2    0    0 -0.95649483650E+02  0.42910380544E+02  0.55069184546E+03  0.56636176602E+03  0.80709459564E+02 0.  0.
         23    2    1    2    0    0  0.59991860382E+02 -0.13821577628E+02  0.26640408665E+03  0.28824945499E+03  0.91249940287E+02 0.  0.
        -11    1    3    3    0    0 -0.24819511353E+02 -0.47101584831E+01  0.32376259225E+02  0.41065994425E+02  0.00000000000E+00 0.  1.
         12    1    3    3    0    0 -0.70829972297E+02  0.47620539027E+02  0.51831558624E+03  0.52529577159E+03  0.00000000000E+00 0. -1.
        -11    1    4    4    0    0  0.14478516187E+01 -0.24955385815E+02  0.13481471171E+02  0.28401014426E+02  0.00000000000E+00 0. -1.
         11    1    4    4    0    0  0.58544008763E+02  0.11133808187E+02  0.25292261547E+03  0.25984844057E+03  0.00000000000E+00 0.  1.
         21    1    1    2  503  501  0.57814041166E+02 -0.13283055651E+02 -0.28823352788E+02  0.65952168951E+02  0.00000000000E+00 0. -1.
          1    1    1    2  501    0 -0.22156417897E+02 -0.15805747265E+02  0.10440234671E+03  0.10789151264E+03  0.00000000000E+00 0. -1.
<scales pt_clust_5="13000.00000" pt_clust_6="13000.00000" pt_clust_7="13000.00000" pt_clust_8="13000.00000" pt_clust_9="59.32034" pt_clust_10="13000.00000"></scales>
<clustering>
<clus scale="   59.320">  2  9  1 -1</clus>
<clus scale="   80.709">  5  6 -1 -1</clus>
<clus scale="   91.250">  7  8 -1 -1</clus>
<clus scale="   24.165">  7 10 -1 -1</clus>
<clus scale="  115.568">  1  5  2 -1</clus>
<clus scale="   59.320">  2  5  1 -1</clus>
</clustering>
</event>
<event>
10    4  0.2565852E-005  0.3937326E+03  0.7546771E-02  0.1081790E+00
         21   -1    0    0  501  502  0.00000000000E+00  0.00000000000E+00  0.60923239818E+02  0.60923239818E+02  0.00000000000E+00 0. -1.
          2   -1    0    0  503    0 -0.00000000000E+00 -0.00000000000E+00 -0.23291336262E+04  0.23291336262E+04  0.00000000000E+00 0. -1.
         24    2    1    2    0    0  0.48937768054E+02  0.11064408059E+03 -0.39987914583E+03  0.42554065695E+03  0.80898094793E+02 0.  0.
         23    2    1    2    0    0 -0.85973580022E+02 -0.80588353606E+02 -0.33550137259E+03  0.36700309145E+03  0.90797350867E+02 0.  0.
        -13    1    3    3    0    0  0.24894214228E+02  0.16980055105E+01 -0.14757816145E+03  0.14967270580E+03  0.00000000000E+00 0.  1.
         14    1    3    3    0    0  0.24043553825E+02  0.10894607508E+03 -0.25230098438E+03  0.27586795115E+03  0.00000000000E+00 0. -1.
        -11    1    4    4    0    0  0.17169671079E+02 -0.20130657478E+02 -0.92088633668E+02  0.95814181759E+02  0.00000000000E+00 0.  1.
         11    1    4    4    0    0 -0.10314325110E+03 -0.60457696129E+02 -0.24341273892E+03  0.27118890969E+03  0.00000000000E+00 0. -1.
         21    1    1    2  503  502  0.26540017480E+02 -0.23567928088E+03 -0.67967802779E+03  0.71986895851E+03  0.00000000000E+00 0. -1.
          1    1    1    2  501    0  0.10495794488E+02  0.20562355390E+03 -0.85315184018E+03  0.87764415911E+03  0.00000000000E+00 0. -1.
<scales pt_clust_5="13000.00000" pt_clust_6="13000.00000" pt_clust_7="13000.00000" pt_clust_8="13000.00000" pt_clust_9="200.26425" pt_clust_10="13000.00000"></scales>
<clustering>
<clus scale="   80.898">  5  6 -1 -1</clus>
<clus scale="   90.797">  7  8 -1 -1</clus>
<clus scale="  145.539">  2  5  1 -1</clus>
<clus scale="  200.264">  1  9  2 -1</clus>
<clus scale="  156.198">  7 10 -1 -1</clus>
<clus scale="  200.264">  1  5  2 -1</clus>
</clustering>
</event>
<event>
10    4  0.2565852E-005  0.2971568E+03  0.7546771E-02  0.1133704E+00
          2   -1    0    0  503    0 -0.00000000000E+00  0.00000000000E+00  0.79094301957E+03  0.79094301957E+03  0.00000000000E+00 0. -1.
         21   -1    0    0  501  502  0.00000000000E+00 -0.00000000000E+00 -0.90896241366E+02  0.90896241366E+02  0.00000000000E+00 0. -1.
         24    2    1    2    0    0  0.67922899519E+01  0.60800990238E+02  0.64629609326E+02  0.11834682183E+03  0.78013384869E+02 0.  0.
         23    2    1    2    0    0  0.70192443509E+02 -0.73337487030E+02  0.39942530418E+03  0.42241742728E+03  0.92685182868E+02 0.  0.
        -11    1    3    3    0    0 -0.21242618356E+02  0.66932826517E+02  0.42236370676E+02  0.81946098797E+02  0.00000000000E+00 0.  1.
         12    1    3    3    0    0  0.28034908308E+02 -0.61318362797E+01  0.22393238649E+02  0.36400723031E+02  0.00000000000E+00 0. -1.
        -13    1    4    4    0    0  0.37684418934E+02 -0.83591403755E+02  0.19893010413E+03  0.21904525683E+03  0.00000000000E+00 0.  1.
         13    1    4    4    0    0  0.32508024575E+02  0.10253916725E+02  0.20049520005E+03  0.20337217045E+03  0.00000000000E+00 0. -1.
         21    1    1    2  503  502  0.50128498674E+02 -0.62237476047E+02  0.25157064039E+02  0.83780950550E+02  0.00000000000E+00 0.  1.
          1    1    1    2  501    0 -0.12711323213E+03  0.74773972840E+02  0.21083480066E+03  0.25729406127E+03  0.00000000000E+00 0. -1.
<scales pt_clust_5="13000.00000" pt_clust_6="13000.00000" pt_clust_7="13000.00000" pt_clust_8="13000.00000" pt_clust_9="79.91477" pt_clust_10="13000.00000"></scales>
<clustering>
<clus scale="   78.013">  5  6 -1 -1</clus>
<clus scale="   79.915">  2  9  1 -1</clus>
<clus scale="   89.666">  1  5  2 -1</clus>
<clus scale="   92.685">  7  8 -1 -1</clus>
<clus scale="  117.219">  7 10 -1 -1</clus>
<clus scale="   79.915">  2  5  1 -1</clus>
</clustering>
</event>
<event>
10    4  0.2565852E-005  0.2144261E+03  0.7546771E-02  0.1154012E+00
          2   -1    0    0  503    0 -0.00000000000E+00  0.00000000000E+00  0.61523178773E+03  0.61523178773E+03  0.00000000000E+00 0. -1.
         21   -1    0    0  501  502  0.00000000000E+00 -0.00000000000E+00 -0.43485431104E+03  0.43485431104E+03  0.00000000000E+00 0.  1.
         24    2    1    2    0    0  0.48446898299E+02  0.12329556429E+03  0.43153186342E+03  0.45868134010E+03  0.81362918358E+02 0.  0.
         23    2    1    2    0    0 -0.70586975178E+02  0.33998006908E+02  0.10078737535E+03  0.15432441474E+03  0.86715306696E+02 0.  0.
        -13    1    3    3    0    0  0.57561227475E+02  0.11989992091E+03  0.42823205319E+03  0.44841050090E+03  0.00000000000E+00 0.  1.
         14    1    3    3    0    0 -0.91143291753E+01  0.33956433784E+01  0.32998102299E+01  0.10270839198E+02  0.00000000000E+00 0. -1.
        -13    1    4    4    0    0 -0.24495633476E+02  0.41981164941E+02  0.64563250600E+01  0.49032014057E+02  0.00000000000E+00 0.  1.
         13    1    4    4    0    0 -0.46091341702E+02 -0.79831580334E+01  0.94331050290E+02  0.10529240068E+03  0.00000000000E+00 0. -1.
         21    1    1    2  503  502  0.52948378826E+02 -0.90847265124E+02 -0.34821437804E+03  0.36374442879E+03  0.00000000000E+00 0.  1.
          1    1    1    2  501    0 -0.30808301947E+02 -0.66446306073E+02 -0.37273840400E+01  0.73335915154E+02  0.00000000000E+00 0. -1.
<scales pt_clust_5="13000.00000" pt_clust_6="13000.00000" pt_clust_7="13000.00000" pt_clust_8="13000.00000" pt_clust_9="105.15111" pt_clust_10="13000.00000"></scales>
<clustering>
<clus scale="   81.363">  5  6 -1 -1</clus>
<clus scale="   86.715">  7  8 -1 -1</clus>
<clus scale="   73.241">  7 10 -1 -1</clus>
<clus scale="  105.151">  2  9  1 -1</clus>
<clus scale="  146.710">  1  5  2 -1</clus>
<clus scale="  105.151">  2  5  1 -1</clus>
</clustering>
</event>
<event>
10    4  0.2565852E-005  0.2275313E+03  0.7546771E-02  0.1159075E+00
         21   -1    0    0  503  502  0.00000000000E+00  0.00000000000E+00  0.12676619784E+03  0.12676619784E+03  0.00000000000E+00 0.  1.
          2   -1    0    0  502    0 -0.00000000000E+00 -0.00000000000E+00 -0.59614010996E+03  0.59614010996E+03  0.00000000000E+00 0. -1.
         24    2    1    2    0    0 -0.31817397175E+02  0.53392892926E+02 -0.13336295835E+03  0.16749715056E+03  0.80040421092E+02 0.  0.
         23    2    1    2    0    0 -0.37970643338E+02 -0.90860843936E-01 -0.11798039515E+03  0.15368862040E+03  0.90879262714E+02 0.  0.
        -13    1    3    3    0    0 -0.46809758603E+02  0.37932877041E+01 -0.82252722548E+02  0.94715642312E+02  0.00000000000E+00 0.  1.
         14    1    3    3    0    0  0.14992361428E+02  0.49599605222E+02 -0.51110235801E+02  0.72781508249E+02  0.00000000000E+00 0. -1.
        -13    1    4    4    0    0 -0.78575234871E+01  0.27207427180E+02  0.61054491319E+00  0.28325916299E+02  0.00000000000E+00 0.  1.
         13    1    4    4    0    0 -0.30113119851E+02 -0.27298288024E+02 -0.11859094006E+03  0.12536270411E+03  0.00000000000E+00 0. -1.
         21    1    1    2  503  501 -0.44779052573E+02  0.10192344781E+02  0.70906610043E+02  0.84479552492E+02  0.00000000000E+00 0.  1.
          1    1    1    2  501    0  0.11456709309E+03 -0.63494376863E+02 -0.28893716867E+03  0.31724098435E+03  0.00000000000E+00 0. -1.
<scales pt_clust_5="13000.00000" pt_clust_6="13000.00000" pt_clust_7="13000.00000" pt_clust_8="13000.00000" pt_clust_9="45.92437" pt_clust_10="13000.00000"></scales>
<clustering>
<clus scale="   45.924">  1  9  2 -1</clus>
<clus scale="   80.040">  5  6 -1 -1</clus>
<clus scale="   90.879">  7  8 -1 -1</clus>
<clus scale="  109.061">  2  5  1 -1</clus>
<clus scale="   77.715">  7 10 -1 -1</clus>
<clus scale="   45.924">  1  5  2 -1</clus>
</clustering>
</event>
<event>
10    4  0.2565852E-005  0.4411135E+03  0.7546771E-02  0.1049100E+00
         21   -1    0    0  503  502  0.00000000000E+00  0.00000000000E+00  0.20895633667E+03  0.20895633667E+03  0.00000000000E+00 0.  1.
          2   -1    0    0  502    0 -0.00000000000E+00 -0.00000000000E+00 -0.12254794614E+04  0.12254794614E+04  0.00000000000E+00 0. -1.
         24    2    1    2    0    0 -0.21356845962E+03  0.14138936070E+03 -0.36507347398E+03  0.45267395288E+03  0.77669993866E+02 0.  0.
         23    2    1    2    0    0  0.34732408511E+02  0.11560404170E+03 -0.26316295743E+03  0.30497120546E+03  0.95823062647E+02 0.  0.
        -11    1    3    3    0    0 -0.20568276540E+03  0.11082417422E+03 -0.29909254989E+03  0.37953096182E+03  0.00000000000E+00 0.  1.
         12    1    3    3    0    0 -0.78856942118E+01  0.30565186484E+02 -0.65980924088E+02  0.73142991062E+02  0.00000000000E+00 0. -1.
        -11    1    4    4    0    0  0.48579726448E+02  0.74743848899E+02 -0.90621061187E+02  0.12711730606E+03  0.00000000000E+00 0.  1.
         11    1    4    4    0    0 -0.13847317937E+02  0.40860192799E+02 -0.17254189624E+03  0.17785389939E+03  0.00000000000E+00 0. -1.
         21    1    1    2  503  501  0.11972298914E+02 -0.33892058770E+02  0.10460617137E+03  0.11060948729E+03  0.00000000000E+00 0.  1.
          1    1    1    2  501    0  0.16686375219E+03 -0.22310134363E+03 -0.49289286467E+03  0.56618115243E+03  0.00000000000E+00 0. -1.
<scales pt_clust_5="13000.00000" pt_clust_6="13000.00000" pt_clust_7="13000.00000" pt_clust_8="13000.00000" pt_clust_9="35.94451" pt_clust_10="13000.00000"></scales>
<clustering>
<clus scale="   35.945">  1  9  2 -1</clus>
<clus scale="   77.670">  5  6 -1 -1</clus>
<clus scale="   95.823">  7  8 -1 -1</clus>
<clus scale="  255.977">  2  5  1 -1</clus>
<clus scale="  151.670">  7 10 -1 -1</clus>
<clus scale="   35.945">  1  5  2 -1</clus>
</clustering>
</event>
<event>
10    4  0.2565852E-005  0.3144816E+03  0.7546771E-02  0.1101398E+00
          2   -1    0    0  503    0 -0.00000000000E+00  0.00000000000E+00  0.51762783353E+03  0.51762783353E+03  0.00000000000E+00 0. -1.
         21   -1    0    0  501  502  0.00000000000E+00 -0.00000000000E+00 -0.67097113873E+03  0.67097113873E+03  0.00000000000E+00 0.  1.
         24    2    1    2    0    0 -0.60674865887E+02 -0.13791356048E+03  0.22233925339E+03  0.28009562227E+03  0.79480969411E+02 0.  0.
         23    2    1    2    0    0  0.10968772230E+03 -0.89611017151E+02  0.17016599473E+03  0.24107495379E+03  0.95389395462E+02 0.  0.
        -11    1    3    3    0    0 -0.15211817205E+02 -0.89787026162E+02  0.72911495393E+02  0.11665845709E+03  0.00000000000E+00 0.  1.
         12    1    3    3    0    0 -0.45463048682E+02 -0.48126534323E+02  0.14942775800E+03  0.16343716518E+03  0.00000000000E+00 0. -1.
        -13    1    4    4    0    0  0.73003374380E+02 -0.97783444583E+02  0.87169406853E+02  0.14996532998E+03  0.00000000000E+00 0. -1.
         13    1    4    4    0    0  0.36684347917E+02  0.81724274311E+01  0.82996587873E+02  0.91109623809E+02  0.00000000000E+00 0.  1.
         21    1    1    2  503  502 -0.12647941335E+03  0.22584299482E+03 -0.52781952483E+03  0.58787375440E+03  0.00000000000E+00 0.  1.
          1    1    1    2  501    0  0.77466556941E+02  0.16815828124E+01 -0.18029028487E+02  0.79554641808E+02  0.00000000000E+00 0. -1.
<scales pt_clust_5="13000.00000" pt_clust_6="13000.00000" pt_clust_7="13000.00000" pt_clust_8="13000.00000" pt_clust_9="248.99654" pt_clust_10="13000.00000"></scales>
<clustering>
<clus scale="   79.481">  5  6 -1 -1</clus>
<clus scale="   95.389">  7  8 -1 -1</clus>
<clus scale="   77.485">  7 10 -1 -1</clus>
<clus scale="  170.349">  1  5  2 -1</clus>
<clus scale="  248.997">  2  9  1 -1</clus>
<clus scale="  248.997">  2  5  1 -1</clus>
</clustering>
</event>
<event>
10    4  0.2565852E-005  0.3924354E+03  0.7546771E-02  0.1068036E+00
         21   -1    0    0  501  502  0.00000000000E+00  0.00000000000E+00  0.13725672209E+03  0.13725672209E+03  0.00000000000E+00 0. -1.
          2   -1    0    0  503    0 -0.00000000000E+00 -0.00000000000E+00 -0.86411224206E+03  0.86411224206E+03  0.00000000000E+00 0. -1.
         24    2    1    2    0    0 -0.73720852583E+02 -0.18521435382E+03 -0.33263447514E+03  0.39594115709E+03  0.79903597283E+02 0.  0.
         23    2    1    2    0    0  0.10691359312E+02  0.21556721287E+02 -0.35691880364E+03  0.37003284367E+03  0.94627034225E+02 0.  0.
        -13    1    3    3    0    0 -0.52852519483E+02 -0.45664572867E+02 -0.77070033440E+02  0.10401169206E+03  0.00000000000E+00 0.  1.
         14    1    3    3    0    0 -0.20868333100E+02 -0.13954978095E+03 -0.25556444170E+03  0.29192946503E+03  0.00000000000E+00 0. -1.
        -13    1    4    4    0    0 -0.36503510892E+02  0.15602519918E+02 -0.82890097591E+02  0.91906002056E+02  0.00000000000E+00 0. -1.
         13    1    4    4    0    0  0.47194870203E+02  0.59542013688E+01 -0.27402870605E+03  0.27812684161E+03  0.00000000000E+00 0.  1.
         21    1    1    2  503  502  0.52453179445E+02 -0.14117517557E+02 -0.97024789817E+01  0.55179511001E+02  0.00000000000E+00 0.  1.
          1    1    1    2  501    0  0.10576313826E+02  0.17777515009E+03 -0.27599762213E+02  0.18021545239E+03  0.00000000000E+00 0. -1.
<scales pt_clust_5="13000.00000" pt_clust_6="13000.00000" pt_clust_7="13000.00000" pt_clust_8="13000.00000" pt_clust_9="54.31980" pt_clust_10="13000.00000"></scales>
<clustering>
<clus scale="   54.320">  1  9  2 -1</clus>
<clus scale="   79.904">  5  6 -1 -1</clus>
<clus scale="   94.627">  7  8 -1 -1</clus>
<clus scale="  174.415">  7 10 -1 -1</clus>
<clus scale="  213.675">  2  5  1 -1</clus>
<clus scale="   54.320">  1  5  2 -1</clus>
</clustering>
</event>
<event>
10    4  0.2565852E-005  0.2495235E+03  0.7546771E-02  0.1157109E+00
          2   -1    0    0  502    0 -0.00000000000E+00  0.00000000000E+00  0.39509787842E+03  0.39509787842E+03  0.00000000000E+00 0. -1.
         21   -1    0    0  503  502  0.00000000000E+00 -0.00000000000E+00 -0.10605674086E+03  0.10605674086E+03  0.00000000000E+00 0. -1.
         24    2    1    2    0    0  0.22338767338E+02 -0.18489093200E+02  0.79690949599E+02  0.11699711989E+03  0.80602800954E+02 0.  0.
         23    2    1    2    0    0 -0.18461126625E+02 -0.71707443902E+02  0.67515340314E+02  0.13715515902E+03  0.93650658090E+02 0.  0.
        -13    1    3    3    0    0  0.17986964466E+02 -0.40058867451E+02  0.83804023602E+02  0.94611617279E+02  0.00000000000E+00 0.  1.
         14    1    3    3    0    0  0.43518028719E+01  0.21569774251E+02 -0.41130740035E+01  0.22385502613E+02  0.00000000000E+00 0. -1.
        -13    1    4    4    0    0 -0.33433439734E+02  0.10652322261E+02  0.26285106908E+02  0.43842601509E+02  0.00000000000E+00 0.  1.
         13    1    4    4    0    0  0.14972313109E+02 -0.82359766163E+02  0.41230233407E+02  0.93312557510E+02  0.00000000000E+00 0. -1.
         21    1    1    2  503  501 -0.22481347834E+02 -0.33422133962E+02 -0.17973126094E+02  0.44107633133E+02  0.00000000000E+00 0. -1.
          1    1    1    2  501    0  0.18603707121E+02  0.12361867106E+03  0.15980797373E+03  0.20289470723E+03  0.00000000000E+00 0. -1.
<scales pt_clust_5="13000.00000" pt_clust_6="13000.00000" pt_clust_7="13000.00000" pt_clust_8="13000.00000" pt_clust_9="40.27965" pt_clust_10="13000.00000"></scales>
<clustering>
<clus scale="   40.280">  2  9  1 -1</clus>
<clus scale="   80.603">  5  6 -1 -1</clus>
<clus scale="   86.577">  1  5  2 -1</clus>
<clus scale="   93.651">  7  8 -1 -1</clus>
<clus scale="  101.758">  7 10 -1 -1</clus>
<clus scale="   40.280">  2  5  1 -1</clus>
</clustering>
</event>
<event>
10    4  0.2565852E-005  0.7799665E+03  0.7546771E-02  0.1034833E+00
         21   -1    0    0  501  502  0.00000000000E+00  0.00000000000E+00  0.61829679539E+03  0.61829679539E+03  0.00000000000E+00 0.  1.
         -1   -1    0    0    0  501 -0.00000000000E+00 -0.00000000000E+00 -0.39138922335E+03  0.39138922335E+03  0.00000000000E+00 0.  1.
         24    2    1    2    0    0 -0.21784701624E+02  0.72673532473E+01  0.13053950726E+02  0.71185020692E+02  0.66102298699E+02 0.  0.
         23    2    1    2    0    0 -0.11154680028E+03  0.34504241601E+03 -0.68967583734E+01  0.37399841008E+03  0.91270411221E+02 0.  0.
        -13    1    3    3    0    0  0.23159144620E+02  0.93599786098E+01  0.51156366596E+01  0.25497547285E+02  0.00000000000E+00 0.  1.
         14    1    3    3    0    0 -0.44943846244E+02 -0.20926253625E+01  0.79383140663E+01  0.45687473407E+02  0.00000000000E+00 0. -1.
        -13    1    4    4    0    0  0.37245580419E+01  0.37706759358E+02  0.23119948023E+02  0.44386980416E+02  0.00000000000E+00 0. -1.
         13    1    4    4    0    0 -0.11527135832E+03  0.30733565665E+03 -0.30016706397E+02  0.32961142966E+03  0.00000000000E+00 0.  1.
         21    1    1    2  503  502  0.11722288565E+02  0.32189920147E+02  0.15150284732E+03  0.15532776878E+03  0.00000000000E+00 0.  1.
         -2    1    1    2    0  503  0.12160921334E+03 -0.38449968941E+03  0.69247532379E+02  0.40917481920E+03  0.00000000000E+00 0.  1.
<scales pt_clust_5="13000.00000" pt_clust_6="13000.00000" pt_clust_7="13000.00000" pt_clust_8="13000.00000" pt_clust_9="34.25789" pt_clust_10="13000.00000"></scales>
<clustering>
<clus scale="   34.258">  1  9  2 -1</clus>
<clus scale="   66.102">  5  6 -1 -1</clus>
<clus scale="   70.019">  2  5  1 -1</clus>
<clus scale="   91.270">  7  8 -1 -1</clus>
<clus scale="  382.272">  7 10 -1 -1</clus>
<clus scale="   34.258">  1  5  2 -1</clus>
</clustering>
</event>
<event>
10    4  0.2565852E-005  0.6490629E+03  0.7546771E-02  0.1023797E+00
          2   -1    0    0  502    0 -0.00000000000E+00  0.00000000000E+00  0.22297564940E+04  0.22297564940E+04  0.00000000000E+00 0. -1.
         21   -1    0    0  503  502  0.00000000000E+00 -0.00000000000E+00 -0.14857538826E+03  0.14857538826E+03  0.00000000000E+00 0. -1.
         24    2    1    2    0    0 -0.16977921209E+02 -0.14773332816E+03  0.40643269491E+03  0.44003710139E+03  0.79572162520E+02 0.  0.
         23    2    1    2    0    0 -0.25458508908E+03 -0.92715477911E+02  0.70674829691E+03  0.76239044066E+03  0.91303348277E+02 0.  0.
        -13    1    3    3    0    0 -0.21116198988E+02 -0.19973384158E+02  0.27076387035E+02  0.39723553080E+02  0.00000000000E+00 0.  1.
         14    1    3    3    0    0  0.41382777790E+01 -0.12775994401E+03  0.37935630787E+03  0.40031354831E+03  0.00000000000E+00 0. -1.
        -13    1    4    4    0    0 -0.11559307799E+03 -0.20097454689E+02  0.19937843448E+03  0.23133833988E+03  0.00000000000E+00 0.  1.
         13    1    4    4    0    0 -0.13899201109E+03 -0.72618023222E+02  0.50736986243E+03  0.53105210078E+03  0.00000000000E+00 0. -1.
         21    1    1    2  503  501 -0.64731356087E+02  0.20836550271E+03  0.91577141841E+02  0.23662777540E+03  0.00000000000E+00 0. -1.
          1    1    1    2  501    0  0.33629436637E+03  0.32083303363E+02  0.87642297210E+03  0.93927656482E+03  0.00000000000E+00 0. -1.
<scales pt_clust_5="13000.00000" pt_clust_6="13000.00000" pt_clust_7="13000.00000" pt_clust_8="13000.00000" pt_clust_9="205.90281" pt_clust_10="13000.00000"></scales>
<clustering>
<clus scale="   79.572">  5  6 -1 -1</clus>
<clus scale="   91.303">  7  8 -1 -1</clus>
<clus scale="  168.657">  1  5  2 -1</clus>
<clus scale="  205.903">  2  9  1 -1</clus>
<clus scale="  300.403">  7 10 -1 -1</clus>
<clus scale="  205.903">  2  5  1 -1</clus>
</clustering>
</event>
<event>
10    4  0.2565852E-005  0.3931421E+03  0.7546771E-02  0.1076548E+00
          2   -1    0    0  502    0 -0.00000000000E+00  0.00000000000E+00  0.77925147722E+03  0.77925147722E+03  0.00000000000E+00 0. -1.
         21   -1    0    0  503  502  0.00000000000E+00 -0.00000000000E+00 -0.12079164186E+03  0.12079164186E+03  0.00000000000E+00 0. -1.
         24    2    1    2    0    0  0.80591716411E+02  0.12582447864E+03  0.20850792171E+03  0.26945157005E+03  0.82472850150E+02 0.  0.
         23    2    1    2    0    0  0.35505080010E+02  0.97078730239E+02  0.11765902356E+03  0.18280416127E+03  0.94280565244E+02 0.  0.
        -11    1    3    3    0    0  0.37142388422E+02  0.65779951380E+02  0.40255694676E+02  0.85598364324E+02  0.00000000000E+00 0.  1.
         12    1    3    3    0    0  0.43449327990E+02  0.60044527256E+02  0.16825222703E+03  0.18385320573E+03  0.00000000000E+00 0. -1.
        -11    1    4    4    0    0  0.48282945132E+02  0.31684386620E+02  0.13747063892E+02  0.59364340405E+02  0.00000000000E+00 0.  1.
         11    1    4    4    0    0 -0.12777865121E+02  0.65394343619E+02  0.10391195966E+03  0.12343982087E+03  0.00000000000E+00 0. -1.
         21    1    1    2  503  501 -0.25246704176E+02  0.51124885870E+01 -0.90993957631E+01  0.27319088831E+02  0.00000000000E+00 0. -1.
          1    1    1    2  501    0 -0.90850092246E+02 -0.22801569746E+03  0.34139228586E+03  0.42046829892E+03  0.00000000000E+00 0. -1.
<scales pt_clust_5="13000.00000" pt_clust_6="13000.00000" pt_clust_7="13000.00000" pt_clust_8="13000.00000" pt_clust_9="25.75915" pt_clust_10="13000.00000"></scales>
<clustering>
<clus scale="   25.759">  2  9  1 -1</clus>
<clus scale="   82.473">  5  6 -1 -1</clus>
<clus scale="   94.281">  7  8 -1 -1</clus>
<clus scale="  168.406">  1  5  2 -1</clus>
<clus scale="  143.204">  7 10 -1 -1</clus>
<clus scale="   25.759">  2  5  1 -1</clus>
</clustering>
</event>
<event>
10    4  0.2565852E-005  0.2254844E+03  0.7546771E-02  0.1138638E+00
         21   -1    0    0  503  502  0.00000000000E+00  0.00000000000E+00  0.58829139648E+03  0.58829139648E+03  0.00000000000E+00 0. -1.
          2   -1    0    0  502    0 -0.00000000000E+00 -0.00000000000E+00 -0.18636640519E+03  0.18636640519E+03  0.00000000000E+00 0. -1.
         24    2    1    2    0    0 -0.86571830134E+02  0.13077082115E+03 -0.65880734738E+02  0.18736146556E+03  0.78538895663E+02 0.  0.
         23    2    1    2    0    0  0.17106173964E+02 -0.56946698191E+02  0.81686071823E+02  0.13621709955E+03  0.91361568823E+02 0.  0.
        -13    1    3    3    0    0 -0.37142682580E+02  0.27448612461E+02  0.13368766644E+02  0.48080444225E+02  0.00000000000E+00 0.  1.
         14    1    3    3    0    0 -0.49429147554E+02  0.10332220869E+03 -0.79249501381E+02  0.13928102134E+03  0.00000000000E+00 0. -1.
        -13    1    4    4    0    0 -0.22266615951E+02 -0.63608373292E+02  0.39441512179E+02  0.78086235802E+02  0.00000000000E+00 0. -1.
         13    1    4    4    0    0  0.39372789914E+02  0.66616751011E+01  0.42244559644E+02  0.58130863750E+02  0.00000000000E+00 0.  1.
         21    1    1    2  503  501 -0.19916382244E+02  0.35119256603E+02  0.25635730864E+03  0.25951704021E+03  0.00000000000E+00 0.  1.
          1    1    1    2  501    0  0.89382038414E+02 -0.10894337956E+03  0.12976234556E+03  0.19156219634E+03  0.00000000000E+00 0. -1.
<scales pt_clust_5="13000.00000" pt_clust_6="13000.00000" pt_clust_7="13000.00000" pt_clust_8="13000.00000" pt_clust_9="40.37356" pt_clust_10="13000.00000"></scales>
<clustering>
<clus scale="   40.374">  1  9  2 -1</clus>
<clus scale="   78.539">  5  6 -1 -1</clus>
<clus scale="   91.362">  7  8 -1 -1</clus>
<clus scale="  121.616">  7 10 -1 -1</clus>
<clus scale="  182.049">  2  5  1 -1</clus>
<clus scale="   40.374">  1  5  2 -1</clus>
</clustering>
</event>
<event>
10    4  0.2565852E-005  0.4154158E+03  0.7546771E-02  0.1099734E+00
          2   -1    0    0  502    0 -0.00000000000E+00  0.00000000000E+00  0.26591928360E+03  0.26591928360E+03  0.00000000000E+00 0. -1.
         21   -1    0    0  503  502  0.00000000000E+00 -0.00000000000E+00 -0.27038070775E+03  0.27038070775E+03  0.00000000000E+00 0. -1.
         24    2    1    2    0    0 -0.11842446702E+02 -0.12245469081E+02  0.20087527592E+02  0.79955335704E+02  0.75492727370E+02 0.  0.
         23    2    1    2    0    0 -0.15931588980E+03  0.23896536695E+02 -0.91555467253E+02  0.20738635785E+03  0.93134851854E+02 0.  0.
        -13    1    3    3    0    0  0.20180590808E+02  0.17407516813E+02 -0.82739689534E+01  0.27905849731E+02  0.00000000000E+00 0.  1.
         14    1    3    3    0    0 -0.32023037510E+02 -0.29652985894E+02  0.28361496546E+02  0.52049485973E+02  0.00000000000E+00 0. -1.
        -13    1    4    4    0    0 -0.32667763348E+02 -0.33695541530E+02 -0.24514089196E+02  0.52948209131E+02  0.00000000000E+00 0.  1.
         13    1    4    4    0    0 -0.12664812645E+03  0.57592078225E+02 -0.67041378057E+02  0.15443814872E+03  0.00000000000E+00 0. -1.
         21    1    1    2  503  501 -0.89477273200E+01  0.23164568297E+02 -0.32000272695E+02  0.40505265104E+02  0.00000000000E+00 0. -1.
          1    1    1    2  501    0  0.18010606382E+03 -0.34815635911E+02  0.99006788208E+02  0.20845303269E+03  0.00000000000E+00 0. -1.
<scales pt_clust_5="13000.00000" pt_clust_6="13000.00000" pt_clust_7="13000.00000" pt_clust_8="13000.00000" pt_clust_9="24.83262" pt_clust_10="13000.00000"></scales>
<clustering>
<clus scale="   24.833">  2  9  1 -1</clus>
<clus scale="   75.493">  5  6 -1 -1</clus>
<clus scale="   77.162">  1  5  2 -1</clus>
<clus scale="   93.135">  7  8 -1 -1</clus>
<clus scale="  172.753">  7 10 -1 -1</clus>
<clus scale="   24.833">  2  5  1 -1</clus>
</clustering>
</event>
<event>
10    4  0.2565852E-005  0.5793587E+03  0.7546771E-02  0.1053801E+00
          2   -1    0    0  503    0 -0.00000000000E+00  0.00000000000E+00  0.53130900687E+03  0.53130900687E+03  0.00000000000E+00 0. -1.
         21   -1    0    0  501  502  0.00000000000E+00 -0.00000000000E+00 -0.32541574692E+03  0.32541574692E+03  0.00000000000E+00 0. -1.
         24    2    1    2    0    0  0.57891787237E+02 -0.10663595504E+02 -0.16478357291E+02  0.10291088521E+03  0.82788542309E+02 0.  0.
         23    2    1    2    0    0  0.36566122817E+02 -0.63328913400E+02  0.46527445168E+03  0.47930556628E+03  0.88915003659E+02 0.  0.
        -11    1    3    3    0    0  0.27412071735E+02  0.21179193388E+02  0.24735518724E+02  0.42565547053E+02  0.00000000000E+00 0.  1.
         12    1    3    3    0    0  0.30479715501E+02 -0.31842788892E+02 -0.41213876014E+02  0.60345338160E+02  0.00000000000E+00 0. -1.
        -11    1    4    4    0    0 -0.18942586889E+01  0.20528346591E+02  0.53777074245E+02  0.57593184875E+02  0.00000000000E+00 0.  1.
         11    1    4    4    0    0  0.38460381506E+02 -0.83857259990E+02  0.41149737743E+03  0.42171238141E+03  0.00000000000E+00 0. -1.
         21    1    1    2  503  502 -0.16811843902E+02  0.14770976588E+02 -0.92617085940E+02  0.95282445670E+02  0.00000000000E+00 0. -1.
          1    1    1    2  501    0 -0.77646066152E+02  0.59221532316E+02 -0.15028574850E+03  0.17922585662E+03  0.00000000000E+00 0. -1.
<scales pt_clust_5="13000.00000" pt_clust_6="13000.00000" pt_clust_7="13000.00000" pt_clust_8="13000.00000" pt_clust_9="22.37900" pt_clust_10="13000.00000"></scales>
<clustering>
<clus scale="   22.379">  2  9  1 -1</clus>
<clus scale="   82.789">  5  6 -1 -1</clus>
<clus scale="   88.915">  7  8 -1 -1</clus>
<clus scale="   98.839">  1  5  2 -1</clus>
<clus scale="  111.577">  7 10 -1 -1</clus>
<clus scale="   22.379">  2  5  1 -1</clus>
</clustering>
</event>
<event>
10    4  0.2565852E-005  0.4268781E+03  0.7546771E-02  0.1049062E+00
          4   -1    0    0  503    0 -0.00000000000E+00  0.00000000000E+00  0.62514926903E+03  0.62514926903E+03  0.00000000000E+00 0. -1.
         21   -1    0    0  501  502  0.00000000000E+00 -0.00000000000E+00 -0.33457394539E+03  0.33457394539E+03  0.00000000000E+00 0. -1.
         24    2    1    2    0    0  0.11274154049E+03 -0.24249637967E+03  0.38795373050E+03  0.47820079807E+03  0.81564435637E+02 0.  0.
         23    2    1    2    0    0  0.60493059396E+02 -0.42439623829E+01  0.18222361691E+02  0.11125369929E+03  0.91476279376E+02 0.  0.
        -11    1    3    3    0    0  0.52807213124E+02 -0.91803558385E+02  0.22303522461E+03  0.24690323309E+03  0.00000000000E+00 0.  1.
         12    1    3    3    0    0  0.59934327369E+02 -0.15069282128E+03  0.16491850588E+03  0.23129756498E+03  0.00000000000E+00 0. -1.
        -11    1    4    4    0    0  0.66581821615E+02  0.17939256033E+02 -0.15265833188E+02  0.70625785231E+02  0.00000000000E+00 0.  1.
         11    1    4    4    0    0 -0.60887622185E+01 -0.22183218416E+02  0.33488194879E+02  0.40627914060E+02  0.00000000000E+00 0. -1.
         21    1    1    2  503  502 -0.79774629875E+01 -0.28549779351E+02 -0.17993726338E+02  0.34677139505E+02  0.00000000000E+00 0. -1.
          3    1    1    2  501    0 -0.16525713690E+03  0.27529012140E+03 -0.97607042217E+02  0.33559157756E+03  0.00000000000E+00 0. -1.
<scales pt_clust_5="13000.00000" pt_clust_6="13000.00000" pt_clust_7="13000.00000" pt_clust_8="13000.00000" pt_clust_9="29.64338" pt_clust_10="13000.00000"></scales>
<clustering>
<clus scale="   29.643">  2  9  1 -1</clus>
<clus scale="   81.564">  5  6 -1 -1</clus>
<clus scale="   91.476">  7  8 -1 -1</clus>
<clus scale="  282.755">  1  5  2 -1</clus>
<clus scale="  144.111">  7 10 -1 -1</clus>
<clus scale="   29.643">  2  5  1 -1</clus>
</clustering>
</event>
<event>
10    4  0.2576273E-005  0.2440393E+03  0.7546771E-02  0.1134752E+00
         21   -1    0    0  501  502  0.00000000000E+00  0.00000000000E+00  0.23016470447E+03  0.23016470447E+03  0.00000000000E+00 0.  1.
          2   -1    0    0  503    0 -0.00000000000E+00 -0.00000000000E+00 -0.18864637710E+04  0.18864637710E+04  0.00000000000E+00 0. -1.
         24    2    1    2    0    0 -0.14532107251E+03 -0.19271790074E+02 -0.79815013366E+03  0.81555741916E+03  0.81244397116E+02 0.  0.
         23    2    1    2    0    0  0.13450339341E+01 -0.24867731980E+02 -0.26344850696E+03  0.28002922751E+03  0.91602615858E+02 0.  0.
        -11    1    3    3    0    0 -0.20073840639E+02  0.25512978316E+01 -0.25676446039E+02  0.32691712708E+02  0.00000000000E+00 0.  1.
         12    1    3    3    0    0 -0.12524723187E+03 -0.21823087906E+02 -0.77247368762E+03  0.78286570645E+03  0.00000000000E+00 0. -1.
        -11    1    4    4    0    0 -0.11607654594E+02  0.27359247884E+02 -0.16665659086E+03  0.16928580970E+03  0.00000000000E+00 0. -1.
         11    1    4    4    0    0  0.12952688528E+02 -0.52226979865E+02 -0.96791916102E+02  0.11074341781E+03  0.00000000000E+00 0.  1.
         21    1    1    2  503  502  0.26509827126E+02  0.14395339854E+02  0.20753032803E+03  0.20971131060E+03  0.00000000000E+00 0.  1.
          1    1    1    2  501    0  0.11746621145E+03  0.29744182200E+02 -0.80223075393E+03  0.81133051820E+03  0.00000000000E+00 0. -1.
<scales pt_clust_5="13000.00000" pt_clust_6="13000.00000" pt_clust_7="13000.00000" pt_clust_8="13000.00000" pt_clust_9="30.16615" pt_clust_10="13000.00000"></scales>
<clustering>
<clus scale="   30.166">  1  9  2 -1</clus>
<clus scale="   81.244">  5  6 -1 -1</clus>
<clus scale="   91.603">  7  8 -1 -1</clus>
<clus scale="  127.357">  7 10 -1 -1</clus>
<clus scale="  157.803">  2  5  1 -1</clus>
<clus scale="   30.166">  1  5  2 -1</clus>
</clustering>
</event>
<event>
10    4  0.2565852E-005  0.1714910E+03  0.7546771E-02  0.1195205E+00
          4   -1    0    0  503    0 -0.00000000000E+00  0.00000000000E+00  0.64816279115E+03  0.64816279115E+03  0.00000000000E+00 0. -1.
         21   -1    0    0  501  502  0.00000000000E+00 -0.00000000000E+00 -0.27712146826E+03  0.27712146826E+03  0.00000000000E+00 0.  1.
         24    2    1    2    0    0 -0.68315945406E+02  0.19464709041E+02  0.28556754032E+03  0.30506941970E+03  0.80452392507E+02 0.  0.
         23    2    1    2    0    0  0.73684768009E+02 -0.50648679625E+01  0.17199929267E+03  0.20752511441E+03  0.89598094331E+02 0.  0.
        -13    1    3    3    0    0 -0.51458366256E+02 -0.18145022014E+02  0.22692192966E+03  0.23338973294E+03  0.00000000000E+00 0.  1.
         14    1    3    3    0    0 -0.16857579150E+02  0.37609731055E+02  0.58645610656E+02  0.71679686761E+02  0.00000000000E+00 0. -1.
        -11    1    4    4    0    0  0.73384509534E+02  0.16221012005E+02  0.67946481308E+02  0.10131698669E+03  0.00000000000E+00 0. -1.
         11    1    4    4    0    0  0.30025847463E+00 -0.21285879967E+02  0.10405281136E+03  0.10620812772E+03  0.00000000000E+00 0.  1.
         21    1    1    2  503  502 -0.96311572972E+01  0.50944218807E+02 -0.24015438169E+03  0.24568719882E+03  0.00000000000E+00 0.  1.
          3    1    1    2  501    0  0.42623346947E+01 -0.65344059886E+02  0.15362887160E+03  0.16700252647E+03  0.00000000000E+00 0. -1.
<scales pt_clust_5="13000.00000" pt_clust_6="13000.00000" pt_clust_7="13000.00000" pt_clust_8="13000.00000" pt_clust_9="51.84663" pt_clust_10="13000.00000"></scales>
<clustering>
<clus scale="   51.847">  2  9  1 -1</clus>
<clus scale="   80.452">  5  6 -1 -1</clus>
<clus scale="   89.598">  7  8 -1 -1</clus>
<clus scale="   55.435">  7 10 -1 -1</clus>
<clus scale="  112.595">  1  5  2 -1</clus>
<clus scale="   51.847">  2  5  1 -1</clus>
</clustering>
</event>
<event>
10    4  0.3463375E-005  0.1410767E+03  0.7546771E-02  0.1219763E+00
          2   -1    0    0  502    0 -0.00000000000E+00  0.00000000000E+00  0.17994598970E+04  0.17994598970E+04  0.00000000000E+00 0. -1.
         21   -1    0    0  503  502  0.00000000000E+00 -0.00000000000E+00 -0.20198758667E+03  0.20198758667E+03  0.00000000000E+00 0. -1.
         24    2    1    2    0    0 -0.84990867631E+02  0.38968566707E+02  0.13375507211E+04  0.13434193312E+04  0.83615615063E+02 0.  0.
         23    2    1    2    0    0  0.31847303287E+02 -0.24660385902E+02  0.31152557168E+03  0.32692352212E+03  0.90600342973E+02 0.  0.
        -11    1    3    3    0    0 -0.40744442349E+02  0.10314994571E+02  0.18714763880E+03  0.19180914317E+03  0.00000000000E+00 0.  1.
         12    1    3    3    0    0 -0.44246425282E+02  0.28653572135E+02  0.11504030823E+04  0.11516101880E+04  0.00000000000E+00 0. -1.
        -13    1    4    4    0    0  0.10008127836E+02 -0.57491341571E+02  0.21160077254E+03  0.21950012282E+03  0.00000000000E+00 0.  1.
         13    1    4    4    0    0  0.21839175451E+02  0.32830955669E+02  0.99924799144E+02  0.10742339931E+03  0.00000000000E+00 0. -1.
         21    1    1    2  503  501  0.27754181716E+02 -0.19140051362E+02 -0.18865203779E+03  0.19164088168E+03  0.00000000000E+00 0. -1.
          1    1    1    2  501    0  0.25389382628E+02  0.48318705570E+01  0.13704805533E+03  0.13946374867E+03  0.00000000000E+00 0. -1.
<scales pt_clust_5="13000.00000" pt_clust_6="13000.00000" pt_clust_7="13000.00000" pt_clust_8="13000.00000" pt_clust_9="33.71404" pt_clust_10="13000.00000"></scales>
<clustering>
<clus scale="   33.714">  2  9  1 -1</clus>
<clus scale="   83.616">  5  6 -1 -1</clus>
<clus scale="   90.600">  7  8 -1 -1</clus>
<clus scale="   28.367">  7 10 -1 -1</clus>
<clus scale="  119.435">  1  5  2 -1</clus>
<clus scale="   33.714">  2  5  1 -1</clus>
</clustering>
</event>
<event>
10    4  0.2565852E-005  0.1299495E+03  0.7546771E-02  0.1243465E+00
         21   -1    0    0  503  502  0.00000000000E+00  0.00000000000E+00  0.47837190249E+02  0.47837190249E+02  0.00000000000E+00 0.  1.
         -3   -1    0    0    0  501 -0.00000000000E+00 -0.00000000000E+00 -0.59828095467E+03  0.59828095467E+03  0.00000000000E+00 0.  1.
         24    2    1    2    0    0 -0.40826242563E+02  0.22540420069E+02 -0.40414020410E+03  0.41436715104E+03  0.78714539123E+02 0.  0.
         23    2    1    2    0    0  0.51449296033E+02 -0.42224493103E+02 -0.67334926937E+02  0.13053437185E+03  0.89862628315E+02 0.  0.
        -11    1    3    3    0    0 -0.27765863533E+02  0.51619955558E+02 -0.28969965092E+03  0.29556970537E+03  0.00000000000E+00 0.  1.
         12    1    3    3    0    0 -0.13060379030E+02 -0.29079535489E+02 -0.11444055318E+03  0.11879744567E+03  0.00000000000E+00 0. -1.
        -13    1    4    4    0    0  0.43695908090E+02 -0.68695206882E+02 -0.62251185673E+02  0.10248694527E+03  0.00000000000E+00 0.  1.
         13    1    4    4    0    0  0.77533879428E+01  0.26470713778E+02 -0.50837412637E+01  0.28047426580E+02  0.00000000000E+00 0. -1.
         21    1    1    2  503  501 -0.34039374141E+02  0.88167529917E+01 -0.31625087672E+02  0.47292285793E+02  0.00000000000E+00 0.  1.
         -4    1    1    2    0  502  0.23416320671E+02  0.10867320043E+02 -0.47343545713E+02  0.53924336244E+02  0.00000000000E+00 0.  1.
<scales pt_clust_5="13000.00000" pt_clust_6="13000.00000" pt_clust_7="13000.00000" pt_clust_8="13000.00000" pt_clust_9="35.16268" pt_clust_10="13000.00000"></scales>
<clustering>
<clus scale="   35.163">  1  9  2 -1</clus>
<clus scale="   78.715">  5  6 -1 -1</clus>
<clus scale="   89.863">  7  8 -1 -1</clus>
<clus scale="   23.652">  7 10 -1 -1</clus>
<clus scale="   93.793">  2  5  1 -1</clus>
<clus scale="   35.163">  1  5  2 -1</clus>
</clustering>
</event>
<event>
10    4  0.2565852E-005  0.2457448E+03  0.7546771E-02  0.1160076E+00
         21   -1    0    0  501  502  0.00000000000E+00  0.00000000000E+00  0.94645392570E+02  0.94645392570E+02  0.00000000000E+00 0. -1.
          2   -1    0    0  503    0 -0.00000000000E+00 -0.00000000000E+00 -0.34409855705E+03  0.34409855705E+03  0.00000000000E+00 0. -1.
         24    2    1    2    0    0  0.21500854365E+02  0.23875893819E+02 -0.45324830861E+02  0.97953294646E+02  0.80673183869E+02 0.  0.
         23    2    1    2    0    0 -0.69262959651E+02  0.58536375377E+02 -0.38474569386E+02  0.13514579001E+03  0.92521496131E+02 0.  0.
        -13    1    3    3    0    0  0.16668664998E+02  0.25987529442E+02 -0.67995950068E+02  0.74676939580E+02  0.00000000000E+00 0.  1.
         14    1    3    3    0    0  0.48321893668E+01 -0.21116356231E+01  0.22671119207E+02  0.23276355067E+02  0.00000000000E+00 0. -1.
        -11    1    4    4    0    0 -0.69754716266E+02 -0.27054113806E-02 -0.30243284270E+02  0.76028788575E+02  0.00000000000E+00 0.  1.
         11    1    4    4    0    0  0.49175661503E+00  0.58539080788E+02 -0.82312851157E+01  0.59117001436E+02  0.00000000000E+00 0. -1.
         21    1    1    2  503  502 -0.77805390479E+01 -0.22863987286E+02 -0.37834490108E+01  0.24446128301E+02  0.00000000000E+00 0. -1.
          1    1    1    2  501    0  0.55542644334E+02 -0.59548281909E+02 -0.16187031523E+03  0.18119873667E+03  0.00000000000E+00 0. -1.
<scales pt_clust_5="13000.00000" pt_clust_6="13000.00000" pt_clust_7="13000.00000" pt_clust_8="13000.00000" pt_clust_9="24.15158" pt_clust_10="13000.00000"></scales>
<clustering>
<clus scale="   24.152">  1  9  2 -1</clus>
<clus scale="   80.673">  5  6 -1 -1</clus>
<clus scale="   84.570">  2  5  1 -1</clus>
<clus scale="   92.521">  7  8 -1 -1</clus>
<clus scale="   84.469">  7 10 -1 -1</clus>
<clus scale="   24.152">  1  5  2 -1</clus>
</clustering>
</event>
<event>
10    4  0.2565852E-005  0.3756569E+03  0.7546771E-02  0.1056839E+00
          2   -1    0    0  502    0 -0.00000000000E+00  0.00000000000E+00  0.10762265493E+04  0.10762265493E+04  0.00000000000E+00 0. -1.
         21   -1    0    0  503  502  0.00000000000E+00 -0.00000000000E+00 -0.32680399231E+03  0.32680399231E+03  0.00000000000E+00 0. -1.
         24    2    1    2    0    0  0.18353488109E+03  0.27544891971E+03  0.69279244602E+03  0.77192170891E+03  0.79652943944E+02 0.  0.
         23    2    1    2    0    0 -0.88906150232E+02 -0.17036298316E+03  0.65070027390E+02  0.22229486060E+03  0.90846282283E+02 0.  0.
        -11    1    3    3    0    0  0.64111750673E+02  0.38892418261E+02  0.13659875899E+03  0.15582733306E+03  0.00000000000E+00 0.  1.
         12    1    3    3    0    0  0.11942313042E+03  0.23655650145E+03  0.55619368704E+03  0.61609437585E+03  0.00000000000E+00 0. -1.
        -11    1    4    4    0    0 -0.10582834848E+03 -0.12619569947E+03  0.43716254200E+02  0.17039983799E+03  0.00000000000E+00 0. -1.
         11    1    4    4    0    0  0.16922198247E+02 -0.44167283694E+02  0.21353773190E+02  0.51895022612E+02  0.00000000000E+00 0.  1.
         21    1    1    2  503  501 -0.33206215802E+02 -0.10362165210E+02 -0.19101352555E+03  0.19415507766E+03  0.00000000000E+00 0. -1.
          1    1    1    2  501    0 -0.61422515058E+02 -0.94723771334E+02  0.18257360912E+03  0.21465889443E+03  0.00000000000E+00 0. -1.
<scales pt_clust_5="13000.00000" pt_clust_6="13000.00000" pt_clust_7="13000.00000" pt_clust_8="13000.00000" pt_clust_9="34.78545" pt_clust_10="13000.00000"></scales>
<clustering>
<clus scale="   34.785">  2  9  1 -1</clus>
<clus scale="   79.653">  5  6 -1 -1</clus>
<clus scale="   90.846">  7  8 -1 -1</clus>
<clus scale="  116.124">  7 10 -1 -1</clus>
<clus scale="  332.763">  1  5  2 -1</clus>
<clus scale="   34.785">  2  5  1 -1</clus>
</clustering>
</event>
<event>
10    4  0.2565852E-005  0.1378956E+04  0.7546771E-02  0.9531800E-01
         21   -1    0    0  501  502  0.00000000000E+00  0.00000000000E+00  0.78495116328E+03  0.78495116328E+03  0.00000000000E+00 0.  1.
          4   -1    0    0  503    0 -0.00000000000E+00 -0.00000000000E+00 -0.10742741597E+04  0.10742741597E+04  0.00000000000E+00 0. -1.
         24    2    1    2    0    0 -0.34669975456E+02 -0.14950771564E+03 -0.26884987657E+03  0.31958421744E+03  0.79367825133E+02 0.  0.
         23    2    1    2    0    0  0.18131306991E+02 -0.57223246305E+03  0.16198145366E+03  0.60114068384E+03  0.85751935188E+02 0.  0.
        -11    1    3    3    0    0 -0.28566888504E+02 -0.13985940406E+02 -0.24677766742E+02  0.40257493951E+02  0.00000000000E+00 0.  1.
         12    1    3    3    0    0 -0.61030869520E+01 -0.13552177523E+03 -0.24417210983E+03  0.27932672348E+03  0.00000000000E+00 0. -1.
        -11    1    4    4    0    0  0.18976995982E+02 -0.50083689275E+03  0.17011222369E+03  0.52927864889E+03  0.00000000000E+00 0.  1.
         11    1    4    4    0    0 -0.84568899157E+00 -0.71395570292E+02 -0.81307700281E+01  0.71862034959E+02  0.00000000000E+00 0. -1.
         21    1    1    2  503  502  0.33473590412E+02  0.76966920582E+01  0.14770033021E+03  0.15164137914E+03  0.00000000000E+00 0. -1.
          3    1    1    2  501    0 -0.16934921947E+02  0.71404348663E+03 -0.33015490366E+03  0.78685904251E+03  0.00000000000E+00 0. -1.
<scales pt_clust_5="13000.00000" pt_clust_6="13000.00000" pt_clust_7="13000.00000" pt_clust_8="13000.00000" pt_clust_9="34.34706" pt_clust_10="13000.00000"></scales>
<clustering>
<clus scale="   34.347">  1  9  2 -1</clus>
<clus scale="   79.368">  5  6 -1 -1</clus>
<clus scale="   85.752">  7  8 -1 -1</clus>
<clus scale="  172.253">  2  5  1 -1</clus>
<clus scale="  610.007">  7 10 -1 -1</clus>
<clus scale="   34.347">  1  5  2 -1</clus>
</clustering>
</event>
<event>
10    4  0.2565852E-005  0.2659148E+03  0.7546771E-02  0.1125813E+00
         21   -1    0    0  503  502  0.00000000000E+00  0.00000000000E+00  0.15249888372E+03  0.15249888372E+03  0.00000000000E+00 0.  1.
          2   -1    0    0  502    0 -0.00000000000E+00 -0.00000000000E+00 -0.51378626949E+03  0.51378626949E+03  0.00000000000E+00 0. -1.
         24    2    1    2    0    0 -0.50676453598E+01 -0.12126506781E+03 -0.25598727202E+02  0.14984630896E+03  0.84069755405E+02 0.  0.
         23    2    1    2    0    0 -0.83319877219E+02  0.60435595197E+02 -0.19659517860E+03  0.24056157708E+03  0.92873812308E+02 0.  0.
        -13    1    3    3    0    0  0.77314943371E+01 -0.11703660840E+03 -0.45501627767E+02  0.12580835362E+03  0.00000000000E+00 0.  1.
         14    1    3    3    0    0 -0.12799139697E+02 -0.42284594054E+01  0.19902900565E+02  0.24037955338E+02  0.00000000000E+00 0. -1.
        -13    1    4    4    0    0 -0.46176177219E+02  0.17675215705E+01 -0.14995630770E+03  0.15691481031E+03  0.00000000000E+00 0. -1.
         13    1    4    4    0    0 -0.37143700000E+02  0.58668073627E+02 -0.46638870901E+02  0.83646766773E+02  0.00000000000E+00 0.  1.
         21    1    1    2  503  501 -0.21918132611E+02 -0.66437089078E+01  0.45243691902E+02  0.50710305285E+02  0.00000000000E+00 0. -1.
          1    1    1    2  501    0  0.11030565519E+03  0.67473181519E+02 -0.18433717187E+03  0.22516696188E+03  0.00000000000E+00 0. -1.
<scales pt_clust_5="13000.00000" pt_clust_6="13000.00000" pt_clust_7="13000.00000" pt_clust_8="13000.00000" pt_clust_9="22.90291" pt_clust_10="13000.00000"></scales>
<clustering>
<clus scale="   22.903">  1  9  2 -1</clus>
<clus scale="   84.070">  5  6 -1 -1</clus>
<clus scale="   92.874">  7  8 -1 -1</clus>
<clus scale="  124.982">  7 10 -1 -1</clus>
<clus scale="  151.900">  2  5  1 -1</clus>
<clus scale="   22.903">  1  5  2 -1</clus>
</clustering>
</event>
<event>
10    4  0.2565852E-005  0.3555302E+03  0.7546771E-02  0.1107823E+00
          2   -1    0    0  503    0 -0.00000000000E+00  0.00000000000E+00  0.63651788379E+03  0.63651788379E+03  0.00000000000E+00 0. -1.
         21   -1    0    0  501  502  0.00000000000E+00 -0.00000000000E+00 -0.57628399144E+03  0.57628399144E+03  0.00000000000E+00 0.  1.
         24    2    1    2    0    0  0.36685069650E+02  0.51149594723E+02  0.33027365559E+03  0.34506122131E+03  0.77617546315E+02 0.  0.
         23    2    1    2    0    0 -0.43813377773E+02  0.79565381514E+02  0.29921724640E+02  0.13596132201E+03  0.96643207049E+02 0.  0.
        -13    1    3    3    0    0  0.50398043400E+02  0.42826935520E+01  0.18560548507E+03  0.19237385563E+03  0.00000000000E+00 0.  1.
         14    1    3    3    0    0 -0.13712973751E+02  0.46866901171E+02  0.14466817053E+03  0.15268736568E+03  0.00000000000E+00 0. -1.
        -13    1    4    4    0    0 -0.26161548871E+02  0.36760604982E+02 -0.34379147881E+02  0.56724725887E+02  0.00000000000E+00 0.  1.
         13    1    4    4    0    0 -0.17651828902E+02  0.42804776532E+02  0.64300872521E+02  0.79236596118E+02  0.00000000000E+00 0. -1.
         21    1    1    2  503  502 -0.15135184410E+03 -0.16865132411E+01 -0.45225483683E+03  0.47691158769E+03  0.00000000000E+00 0.  1.
          1    1    1    2  501    0  0.15848015222E+03 -0.12902846300E+03  0.15229334895E+03  0.25486774422E+03  0.00000000000E+00 0. -1.
<scales pt_clust_5="13000.00000" pt_clust_6="13000.00000" pt_clust_7="13000.00000" pt_clust_8="13000.00000" pt_clust_9="149.83909" pt_clust_10="13000.00000"></scales>
<clustering>
<clus scale="   77.618">  5  6 -1 -1</clus>
<clus scale="   96.643">  7  8 -1 -1</clus>
<clus scale="   99.933">  1  5  2 -1</clus>
<clus scale="  149.839">  2  9  1 -1</clus>
<clus scale="  146.713">  7 10 -1 -1</clus>
<clus scale="  149.839">  2  5  1 -1</clus>
</clustering>
</event>
<event>
10    4  0.2565852E-005  0.5865907E+03  0.7546771E-02  0.1020027E+00
          2   -1    0    0  503    0 -0.00000000000E+00  0.00000000000E+00  0.13404516074E+04  0.13404516074E+04  0.00000000000E+00 0. -1.
         21   -1    0    0  501  502  0.00000000000E+00 -0.00000000000E+00 -0.26752559280E+03  0.26752559280E+03  0.00000000000E+00 0.  1.
         24    2    1    2    0    0  0.56195764108E+02 -0.18481211871E+03 -0.10042911703E+03  0.23177466623E+03  0.79498460581E+02 0.  0.
         23    2    1    2    0    0  0.70839663266E+02 -0.12471165140E+03  0.52067378976E+03  0.54766025061E+03  0.90880695775E+02 0.  0.
        -13    1    3    3    0    0 -0.11855044121E+02 -0.69554017256E+02 -0.58078905745E+02  0.91386337491E+02  0.00000000000E+00 0.  1.
         14    1    3    3    0    0  0.68050808230E+02 -0.11525810145E+03 -0.42350211288E+02  0.14038832874E+03  0.00000000000E+00 0. -1.
        -13    1    4    4    0    0  0.19470301752E+02 -0.11602428634E+03  0.36695178633E+03  0.38534963496E+03  0.00000000000E+00 0.  1.
         13    1    4    4    0    0  0.51369361514E+02 -0.86873650642E+01  0.15372200343E+03  0.16231061565E+03  0.00000000000E+00 0. -1.
         21    1    1    2  503  502 -0.10141435341E+02 -0.76926297742E+02  0.23701639123E+02  0.81131200485E+02  0.00000000000E+00 0.  1.
          1    1    1    2  501    0 -0.11689399203E+03  0.38645006785E+03  0.62897970270E+03  0.74741108282E+03  0.00000000000E+00 0. -1.
<scales pt_clust_5="13000.00000" pt_clust_6="13000.00000" pt_clust_7="13000.00000" pt_clust_8="13000.00000" pt_clust_9="77.59191" pt_clust_10="13000.00000"></scales>
<clustering>
<clus scale="   77.592">  2  9  1 -1</clus>
<clus scale="   79.498">  5  6 -1 -1</clus>
<clus scale="   90.881">  7  8 -1 -1</clus>
<clus scale="  255.989">  1  5  2 -1</clus>
<clus scale="  258.180">  7 10 -1 -1</clus>
<clus scale="   77.592">  2  5  1 -1</clus>
</clustering>
</event>
<event>
10    4  0.2565852E-005  0.2244996E+03  0.7546771E-02  0.1148503E+00
         21   -1    0    0  501  502  0.00000000000E+00  0.00000000000E+00  0.32492781038E+03  0.32492781038E+03  0.00000000000E+00 0. -1.
          2   -1    0    0  503    0 -0.00000000000E+00 -0.00000000000E+00 -0.44472012629E+03  0.44472012629E+03  0.00000000000E+00 0. -1.
         24    2    1    2    0    0  0.93027614944E+02 -0.76256359035E+02 -0.11330689748E+03  0.18450643829E+03  0.82067065983E+02 0.  0.
         23    2    1    2    0    0  0.13255246143E+02  0.10787743704E+03 -0.99777980656E+02  0.17442659306E+03  0.93036272344E+02 0.  0.
        -13    1    3    3    0    0  0.42453376910E+02 -0.19948310484E+01 -0.76296145475E+02  0.87334817663E+02  0.00000000000E+00 0.  1.
         14    1    3    3    0    0  0.50574238034E+02 -0.74261527986E+02 -0.37010752007E+02  0.97171620629E+02  0.00000000000E+00 0. -1.
        -13    1    4    4    0    0  0.24862545018E+02  0.19823568029E+02 -0.76149104771E+02  0.82521549620E+02  0.00000000000E+00 0.  1.
         13    1    4    4    0    0 -0.11607298876E+02  0.88053869011E+02 -0.23628875885E+02  0.91905043444E+02  0.00000000000E+00 0. -1.
         21    1    1    2  503  502 -0.15722540130E+03 -0.70426653470E+02  0.21360490090E+03  0.27442083380E+03  0.00000000000E+00 0. -1.
          1    1    1    2  501    0  0.50942540217E+02  0.38805575465E+02 -0.12031233868E+03  0.13629407151E+03  0.00000000000E+00 0. -1.
<scales pt_clust_5="13000.00000" pt_clust_6="13000.00000" pt_clust_7="13000.00000" pt_clust_8="13000.00000" pt_clust_9="167.12193" pt_clust_10="13000.00000"></scales>
<clustering>
<clus scale="   82.067">  5  6 -1 -1</clus>
<clus scale="   93.036">  7  8 -1 -1</clus>
<clus scale="   64.039">  7 10 -1 -1</clus>
<clus scale="  145.617">  2  5  1 -1</clus>
<clus scale="  167.122">  1  9  2 -1</clus>
<clus scale="  167.122">  1  5  2 -1</clus>
</clustering>
</event>
<event>
10    4  0.2565852E-005  0.2747839E+03  0.7546771E-02  0.1147099E+00
          2   -1    0    0  503    0 -0.00000000000E+00  0.00000000000E+00  0.87211203281E+03  0.87211203281E+03  0.00000000000E+00 0. -1.
         21   -1    0    0  501  502  0.00000000000E+00 -0.00000000000E+00 -0.10193476369E+03  0.10193476369E+03  0.00000000000E+00 0. -1.
         24    2    1    2    0    0  0.23621154920E+02 -0.16407575102E+01  0.24995592113E+03  0.26327692104E+03  0.79221989366E+02 0.  0.
         23    2    1    2    0    0  0.38372285749E+02  0.86479480541E+02  0.15077780939E+03  0.19575799922E+03  0.81462344583E+02 0.  0.
        -13    1    3    3    0    0 -0.10729342268E+02  0.28809990150E+02  0.55193948907E+02  0.63178369035E+02  0.00000000000E+00 0.  1.
         14    1    3    3    0    0  0.34350497188E+02 -0.30450747660E+02  0.19476197222E+03  0.20009855201E+03  0.00000000000E+00 0. -1.
        -13    1    4    4    0    0  0.15248707052E+02  0.97746579120E+02  0.11506555757E+03  0.15174649695E+03  0.00000000000E+00 0. -1.
         13    1    4    4    0    0  0.23123578697E+02 -0.11267098579E+02  0.35712251819E+02  0.44011502271E+02  0.00000000000E+00 0.  1.
         21    1    1    2  503  502 -0.12794759584E+02  0.26670228140E+02 -0.60920484504E+02  0.67722318139E+02  0.00000000000E+00 0. -1.
          1    1    1    2  501    0 -0.49198681084E+02 -0.11150895117E+03  0.43036402310E+03  0.44728955810E+03  0.00000000000E+00 0. -1.
<scales pt_clust_5="13000.00000" pt_clust_6="13000.00000" pt_clust_7="13000.00000" pt_clust_8="13000.00000" pt_clust_9="29.58052" pt_clust_10="13000.00000"></scales>
<clustering>
<clus scale="   29.581">  2  9  1 -1</clus>
<clus scale="   79.222">  5  6 -1 -1</clus>
<clus scale="   81.462">  7  8 -1 -1</clus>
<clus scale="   82.108">  1  5  2 -1</clus>
<clus scale="  110.170">  7 10 -1 -1</clus>
<clus scale="   29.581">  2  5  1 -1</clus>
</clustering>
</event>
<event>
10    4  0.2565852E-005  0.4375418E+03  0.7546771E-02  0.1075372E+00
          2   -1    0    0  503    0 -0.00000000000E+00  0.00000000000E+00  0.13581503917E+04  0.13581503917E+04  0.00000000000E+00 0. -1.
         21   -1    0    0  501  502  0.00000000000E+00 -0.00000000000E+00 -0.99540690322E+02  0.99540690322E+02  0.00000000000E+00 0. -1.
         24    2    1    2    0    0 -0.45644809326E+02  0.89289932208E+02  0.78461350577E+03  0.79463183004E+03  0.75929251743E+02 0.  0.
         23    2    1    2    0    0  0.47950799708E+01 -0.28248776747E+02 -0.58416143099E+02  0.11135112319E+03  0.90363934627E+02 0.  0.
        -13    1    3    3    0    0  0.12847380999E+02  0.18716097136E+02  0.58411354045E+02  0.62667645336E+02  0.00000000000E+00 0.  1.
         14    1    3    3    0    0 -0.58492190325E+02  0.70573835072E+02  0.72620215172E+03  0.73196418471E+03  0.00000000000E+00 0. -1.
        -11    1    4    4    0    0  0.40754531096E+02 -0.34326948706E+02 -0.51747301461E+02  0.74276876758E+02  0.00000000000E+00 0. -1.
         11    1    4    4    0    0 -0.35959451126E+02  0.60781719594E+01 -0.66688416373E+01  0.37074246431E+02  0.00000000000E+00 0.  1.
         21    1    1    2  503  502  0.15077308075E+02  0.16595140296E+02  0.13049254461E+02  0.25942377344E+02  0.00000000000E+00 0.  1.
          1    1    1    2  501    0  0.25772421280E+02 -0.77636295758E+02  0.51936308425E+03  0.52576575145E+03  0.00000000000E+00 0. -1.
<scales pt_clust_5="13000.00000" pt_clust_6="13000.00000" pt_clust_7="13000.00000" pt_clust_8="13000.00000" pt_clust_9="22.42151" pt_clust_10="13000.00000"></scales>
<clustering>
<clus scale="   22.422">  2  9  1 -1</clus>
<clus scale="   75.929">  5  6 -1 -1</clus>
<clus scale="   90.364">  7  8 -1 -1</clus>
<clus scale="   81.427">  7 10 -1 -1</clus>
<clus scale="  126.128">  1  5  2 -1</clus>
<clus scale="   22.422">  2  5  1 -1</clus>
</clustering>
</event>
<event>
10    4  0.2565852E-005  0.1949031E+03  0.7546771E-02  0.1177514E+00
         -3   -1    0    0    0  501 -0.00000000000E+00  0.00000000000E+00  0.25251310489E+03  0.25251310489E+03  0.00000000000E+00 0.  1.
         21   -1    0    0  501  502  0.00000000000E+00 -0.00000000000E+00 -0.13485468909E+03  0.13485468909E+03  0.00000000000E+00 0.  1.
         24    2    1    2    0    0 -0.66366077082E+02  0.61070582104E+02  0.48374408221E+02  0.13076732665E+03  0.81399865869E+02 0.  0.
         23    2    1    2    0    0 -0.67811114851E+01 -0.16880504807E+02  0.12036699623E+03  0.15246926610E+03  0.91802660129E+02 0.  0.
        -11    1    3    3    0    0 -0.34285131985E+02  0.66008418380E+01 -0.17851725120E+02  0.39213842938E+02  0.00000000000E+00 0.  1.
         12    1    3    3    0    0 -0.32080945097E+02  0.54469740267E+02  0.66226133342E+02  0.91553483715E+02  0.00000000000E+00 0. -1.
        -11    1    4    4    0    0 -0.31872314574E+02 -0.44924257881E+02  0.81522814459E+02  0.98387004527E+02  0.00000000000E+00 0.  1.
         11    1    4    4    0    0  0.25091203089E+02  0.28043753074E+02  0.38844181773E+02  0.54082261570E+02  0.00000000000E+00 0. -1.
         21    1    1    2  503  502  0.31586048322E+02 -0.53860454354E+01 -0.28726777722E+02  0.43033890044E+02  0.00000000000E+00 0. -1.
         -4    1    1    2    0  503  0.41561140245E+02 -0.38804031862E+02 -0.22356210923E+02  0.61097311185E+02  0.00000000000E+00 0.  1.
<scales pt_clust_5="13000.00000" pt_clust_6="13000.00000" pt_clust_7="13000.00000" pt_clust_8="13000.00000" pt_clust_9="32.04197" pt_clust_10="13000.00000"></scales>
<clustering>
<clus scale="   32.042">  2  9  1 -1</clus>
<clus scale="   81.400">  5  6 -1 -1</clus>
<clus scale="   91.803">  7  8 -1 -1</clus>
<clus scale="   68.547">  7 10 -1 -1</clus>
<clus scale="  113.662">  1  5  2 -1</clus>
<clus scale="   32.042">  2  5  1 -1</clus>
</clustering>
</event>
<event>
10    4  0.2565852E-005  0.3413373E+03  0.7546771E-02  0.1102600E+00
          2   -1    0    0  502    0 -0.00000000000E+00  0.00000000000E+00  0.17545222341E+04  0.17545222341E+04  0.00000000000E+00 0. -1.
         21   -1    0    0  503  502  0.00000000000E+00 -0.00000000000E+00 -0.85198151766E+02  0.85198151766E+02  0.00000000000E+00 0. -1.
         24    2    1    2    0    0  0.64374660654E+02  0.20856608869E+02  0.55296902645E+03  0.56673636268E+03  0.10409738471E+03 0.  0.
         23    2    1    2    0    0 -0.12869141434E+03  0.18140611661E+03  0.85920656088E+03  0.89208721987E+03  0.90077934749E+02 0.  0.
        -11    1    3    3    0    0 -0.26162519546E+02  0.14650689711E+02  0.87271487956E+02  0.92279102445E+02  0.00000000000E+00 0.  1.
         12    1    3    3    0    0  0.90537180200E+02  0.62059191583E+01  0.46569753850E+03  0.47445726024E+03  0.00000000000E+00 0. -1.
        -11    1    4    4    0    0 -0.90347541888E+02  0.17719876121E+03  0.66597141157E+03  0.69503956746E+03  0.00000000000E+00 0. -1.
         11    1    4    4    0    0 -0.38343872453E+02  0.42073554051E+01  0.19323514930E+03  0.19704765241E+03  0.00000000000E+00 0.  1.
         21    1    1    2  503  501  0.62181931346E+02 -0.88486220579E+02  0.97586658367E+01  0.10858929679E+03  0.00000000000E+00 0. -1.
          1    1    1    2  501    0  0.21348223403E+01 -0.11377650490E+03  0.24738982915E+03  0.27230750650E+03  0.00000000000E+00 0. -1.
<scales pt_clust_5="13000.00000" pt_clust_6="13000.00000" pt_clust_7="13000.00000" pt_clust_8="13000.00000" pt_clust_9="108.14991" pt_clust_10="13000.00000"></scales>
<clustering>
<clus scale="   90.078">  7  8 -1 -1</clus>
<clus scale="  104.097">  5  6 -1 -1</clus>
<clus scale="  108.150">  2  9  1 -1</clus>
<clus scale="  129.144">  1  5  2 -1</clus>
<clus scale="  153.832">  7 10 -1 -1</clus>
<clus scale="  108.150">  2  5  1 -1</clus>
</clustering>
</event>
<event>
10    4  0.2565852E-005  0.3290007E+03  0.7546771E-02  0.1101995E+00
         -3   -1    0    0    0  501 -0.00000000000E+00  0.00000000000E+00  0.45524623475E+03  0.45524623475E+03  0.00000000000E+00 0.  1.
         21   -1    0    0  501  502  0.00000000000E+00 -0.00000000000E+00 -0.35612313830E+03  0.35612313830E+03  0.00000000000E+00 0.  1.
         24    2    1    2    0    0  0.86472289319E+02  0.94946129086E+02 -0.39098601019E+02  0.15627263281E+03  0.80001318205E+02 0.  0.
         23    2    1    2    0    0 -0.19268222722E+03 -0.66909619471E+02  0.14307875695E+03  0.26781386126E+03  0.98231337813E+02 0.  0.
        -13    1    3    3    0    0  0.10165322401E+03  0.86571866223E+02 -0.38345252597E+02  0.13891876896E+03  0.00000000000E+00 0.  1.
         14    1    3    3    0    0 -0.15180934690E+02  0.83742628624E+01 -0.75334842171E+00  0.17353863847E+02  0.00000000000E+00 0. -1.
        -13    1    4    4    0    0 -0.13798436923E+02 -0.30526346016E+02 -0.35264660703E+01  0.33685169223E+02  0.00000000000E+00 0. -1.
         13    1    4    4    0    0 -0.17888379030E+03 -0.36383273454E+02  0.14660522302E+03  0.23412869204E+03  0.00000000000E+00 0.  1.
         21    1    1    2  503  502  0.39098215290E+02 -0.66987223743E+02 -0.17984747053E+03  0.19585982549E+03  0.00000000000E+00 0.  1.
         -4    1    1    2    0  503  0.67111722616E+02  0.38950714128E+02  0.17499041106E+03  0.19142305348E+03  0.00000000000E+00 0.  1.
<scales pt_clust_5="13000.00000" pt_clust_6="13000.00000" pt_clust_7="13000.00000" pt_clust_8="13000.00000" pt_clust_9="77.56261" pt_clust_10="13000.00000"></scales>
<clustering>
<clus scale="   77.563">  2  9  1 -1</clus>
<clus scale="   80.001">  5  6 -1 -1</clus>
<clus scale="   98.231">  7  8 -1 -1</clus>
<clus scale="   77.698">  7 10 -1 -1</clus>
<clus scale="  146.495">  1  5  2 -1</clus>
<clus scale="   77.563">  2  5  1 -1</clus>
</clustering>
</event>
<event>
10    4  0.2565852E-005  0.7675047E+03  0.7546771E-02  0.9739312E-01
          2   -1    0    0  502    0 -0.00000000000E+00  0.00000000000E+00  0.21457779878E+04  0.21457779878E+04  0.00000000000E+00 0. -1.
         21   -1    0    0  503  502  0.00000000000E+00 -0.00000000000E+00 -0.73830315076E+03  0.73830315076E+03  0.00000000000E+00 0.  1.
         24    2    1    2    0    0  0.81147849952E+02  0.47212001185E+03  0.29622984991E+02  0.48650971215E+03  0.79573234439E+02 0.  0.
         23    2    1    2    0    0 -0.32533285001E+01 -0.64698236448E+02  0.28160496345E+01  0.10988200058E+03  0.88711205443E+02 0.  0.
        -13    1    3    3    0    0 -0.62249554095E+01  0.69335159112E+02  0.26088975824E+02  0.74342107977E+02  0.00000000000E+00 0.  1.
         14    1    3    3    0    0  0.87372805361E+02  0.40278485274E+03  0.35340091670E+01  0.41216760418E+03  0.00000000000E+00 0. -1.
        -11    1    4    4    0    0 -0.35751993226E+02 -0.16790062303E+02  0.26252704815E+02  0.47426951430E+02  0.00000000000E+00 0.  1.
         11    1    4    4    0    0  0.32498664726E+02 -0.47908174144E+02 -0.23436655181E+02  0.62455049155E+02  0.00000000000E+00 0. -1.
         21    1    1    2  503  501  0.64749121180E+02 -0.36110394637E+01 -0.42881809529E+03  0.43369395562E+03  0.00000000000E+00 0.  1.
          1    1    1    2  501    0 -0.14264364263E+03 -0.40381073594E+03  0.18038538977E+04  0.18539954702E+04  0.00000000000E+00 0. -1.
<scales pt_clust_5="13000.00000" pt_clust_6="13000.00000" pt_clust_7="13000.00000" pt_clust_8="13000.00000" pt_clust_9="64.84974" pt_clust_10="13000.00000"></scales>
<clustering>
<clus scale="   64.850">  2  9  1 -1</clus>
<clus scale="   79.573">  5  6 -1 -1</clus>
<clus scale="   88.711">  7  8 -1 -1</clus>
<clus scale="  426.812">  7 10 -1 -1</clus>
<clus scale="  493.380">  1  5  2 -1</clus>
<clus scale="   64.850">  2  5  1 -1</clus>
</clustering>
</event>
<event>
10    4  0.2565852E-005  0.2103238E+03  0.7546771E-02  0.1149889E+00
         21   -1    0    0  501  502  0.00000000000E+00  0.00000000000E+00  0.99424243577E+02  0.99424243577E+02  0.00000000000E+00 0. -1.
          2   -1    0    0  503    0 -0.00000000000E+00 -0.00000000000E+00 -0.82872870344E+03  0.82872870344E+03  0.00000000000E+00 0. -1.
         24    2    1    2    0    0  0.12816802520E+03 -0.23659601504E+02  0.17452111654E+01  0.15289594239E+03  0.79920610664E+02 0.  0.
         23    2    1    2    0    0 -0.68411826171E+02  0.24699017316E+02 -0.26950564963E+03  0.29363804436E+03  0.91103164012E+02 0.  0.
        -11    1    3    3    0    0  0.18132403906E+02 -0.37710267107E+02  0.31090561601E+01  0.41958485994E+02  0.00000000000E+00 0.  1.
         12    1    3    3    0    0  0.11003562130E+03  0.14050665603E+02 -0.13638449947E+01  0.11093745639E+03  0.00000000000E+00 0. -1.
        -11    1    4    4    0    0 -0.61261820403E+02  0.56631264824E+02 -0.18185761141E+03  0.20008073776E+03  0.00000000000E+00 0. -1.
         11    1    4    4    0    0 -0.71500057682E+01 -0.31932247508E+02 -0.87648038222E+02  0.93557306597E+02  0.00000000000E+00 0.  1.
         21    1    1    2  503  502  0.19631497088E+02 -0.27133625307E+02 -0.41426202596E+02  0.53270625693E+02  0.00000000000E+00 0.  1.
          1    1    1    2  501    0 -0.79387696119E+02  0.26094209495E+02 -0.42011781879E+03  0.42834833457E+03  0.00000000000E+00 0. -1.
<scales pt_clust_5="13000.00000" pt_clust_6="13000.00000" pt_clust_7="13000.00000" pt_clust_8="13000.00000" pt_clust_9="33.49073" pt_clust_10="13000.00000"></scales>
<clustering>
<clus scale="   33.491">  1  9  2 -1</clus>
<clus scale="   79.921">  5  6 -1 -1</clus>
<clus scale="   91.103">  7  8 -1 -1</clus>
<clus scale="   82.377">  7 10 -1 -1</clus>
<clus scale="  171.360">  2  5  1 -1</clus>
<clus scale="   33.491">  1  5  2 -1</clus>
</clustering>
</event>
<event>
10    4  0.2565852E-005  0.1795444E+03  0.7546771E-02  0.1192427E+00
         -1   -1    0    0    0  501 -0.00000000000E+00  0.00000000000E+00  0.12618453220E+03  0.12618453220E+03  0.00000000000E+00 0.  1.
         21   -1    0    0  503  502  0.00000000000E+00 -0.00000000000E+00 -0.60826739973E+03  0.60826739973E+03  0.00000000000E+00 0.  1.
         24    2    1    2    0    0  0.86106223443E+02 -0.21018659843E+02 -0.96185314297E+02  0.15367638471E+03  0.80676829110E+02 0.  0.
         23    2    1    2    0    0 -0.33508990203E+01  0.88473301724E+01  0.16475546359E+02  0.10762840969E+03  0.10593831775E+03 0.  0.
        -11    1    3    3    0    0  0.80454808974E+02 -0.46330384051E+02 -0.66170280239E+02  0.11400871353E+03  0.00000000000E+00 0.  1.
         12    1    3    3    0    0  0.56514144694E+01  0.25311724208E+02 -0.30015034058E+02  0.39667671187E+02  0.00000000000E+00 0. -1.
        -13    1    4    4    0    0  0.35726117506E+02  0.14667738006E+02  0.44701103654E+02  0.59073570047E+02  0.00000000000E+00 0. -1.
         13    1    4    4    0    0 -0.39077016526E+02 -0.58204078332E+01 -0.28225557295E+02  0.48554839640E+02  0.00000000000E+00 0.  1.
         21    1    1    2  503  501 -0.39111724631E+02  0.69261747911E+02 -0.39265605333E+03  0.40063161750E+03  0.00000000000E+00 0.  1.
         -2    1    1    2    0  502 -0.43643599792E+02 -0.57090418241E+02 -0.97170462649E+01  0.72515520034E+02  0.00000000000E+00 0.  1.
<scales pt_clust_5="13000.00000" pt_clust_6="13000.00000" pt_clust_7="13000.00000" pt_clust_8="13000.00000" pt_clust_9="79.54192" pt_clust_10="13000.00000"></scales>
<clustering>
<clus scale="   79.542">  2  9  1 -1</clus>
<clus scale="   80.677">  5  6 -1 -1</clus>
<clus scale="  104.282">  1  5  2 -1</clus>
<clus scale="  105.938">  7  8 -1 -1</clus>
<clus scale="   49.826">  7 10 -1 -1</clus>
<clus scale="   79.542">  2  5  1 -1</clus>
</clustering>
</event>
<event>
10    4  0.2565852E-005  0.1723586E+03  0.7546771E-02  0.1197692E+00
         21   -1    0    0  503  502  0.00000000000E+00  0.00000000000E+00  0.13547934373E+03  0.13547934373E+03  0.00000000000E+00 0.  1.
          2   -1    0    0  502    0 -0.00000000000E+00 -0.00000000000E+00 -0.20811750074E+03  0.20811750074E+03  0.00000000000E+00 0. -1.
         24    2    1    2    0    0 -0.43846257632E+02  0.31329635480E+02  0.22054582021E+02  0.99158478805E+02  0.80261815100E+02 0.  0.
         23    2    1    2    0    0  0.73349578108E+02 -0.38977083130E+02 -0.10387740320E+03  0.16116690211E+03  0.91021326192E+02 0.  0.
        -11    1    3    3    0    0 -0.59045052152E+02  0.17434356807E+02 -0.86681356604E+01  0.62172434058E+02  0.00000000000E+00 0.  1.
         12    1    3    3    0    0  0.15198794520E+02  0.13895278673E+02  0.30722717682E+02  0.36986044747E+02  0.00000000000E+00 0. -1.
        -11    1    4    4    0    0 -0.16243241385E+01 -0.47514174610E+02 -0.35462009582E+02  0.59310954649E+02  0.00000000000E+00 0. -1.
         11    1    4    4    0    0  0.74973902246E+02  0.85370914799E+01 -0.68415393614E+02  0.10185594746E+03  0.00000000000E+00 0.  1.
         21    1    1    2  503  501 -0.40173851023E+02 -0.20352650956E+02 -0.11961781523E+02  0.46596705078E+02  0.00000000000E+00 0.  1.
          1    1    1    2  501    0  0.10670530547E+02  0.28000098607E+02  0.21146445696E+02  0.36674758482E+02  0.00000000000E+00 0. -1.
<scales pt_clust_5="13000.00000" pt_clust_6="13000.00000" pt_clust_7="13000.00000" pt_clust_8="13000.00000" pt_clust_9="45.03522" pt_clust_10="13000.00000"></scales>
<clustering>
<clus scale="   45.035">  1  9  2 -1</clus>
<clus scale="   80.262">  5  6 -1 -1</clus>
<clus scale="   91.021">  7  8 -1 -1</clus>
<clus scale="   23.036">  7 10 -1 -1</clus>
<clus scale="  105.035">  2  5  1 -1</clus>
<clus scale="   45.035">  1  5  2 -1</clus>
</clustering>
</event>
<event>
10    4  0.2565852E-005  0.1767302E+03  0.7546771E-02  0.1201655E+00
         21   -1    0    0  503  502  0.00000000000E+00  0.00000000000E+00  0.36840647260E+03  0.36840647260E+03  0.00000000000E+00 0.  1.
         -1   -1    0    0    0  501 -0.00000000000E+00 -0.00000000000E+00 -0.27241079463E+03  0.27241079463E+03  0.00000000000E+00 0.  1.
         24    2    1    2    0    0 -0.19154199221E+02  0.33184765317E+02 -0.23090844128E+03  0.24770801836E+03  0.81070599535E+02 0.  0.
         23    2    1    2    0    0 -0.37053736832E+02 -0.24511817058E+02  0.21062139072E+03  0.23390442049E+03  0.91521030951E+02 0.  0.
        -11    1    3    3    0    0 -0.37223848381E+02 -0.13299357158E+02 -0.92668192597E+02  0.10074662132E+03  0.00000000000E+00 0.  1.
         12    1    3    3    0    0  0.18069649159E+02  0.46484122475E+02 -0.13824024868E+03  0.14696139703E+03  0.00000000000E+00 0. -1.
        -11    1    4    4    0    0  0.13904485023E+02 -0.16438718093E+02  0.52636208012E+01  0.22164653398E+02  0.00000000000E+00 0. -1.
         11    1    4    4    0    0 -0.50958221855E+02 -0.80730989645E+01  0.20535776992E+03  0.21173976709E+03  0.00000000000E+00 0.  1.
         21    1    1    2  503  501  0.21224004698E+02 -0.98012700757E+01  0.12157729559E+03  0.12380453172E+03  0.00000000000E+00 0.  1.
         -2    1    1    2    0  502  0.34983931356E+02  0.11283218159E+01 -0.52945670635E+01  0.35400296660E+02  0.00000000000E+00 0.  1.
<scales pt_clust_5="13000.00000" pt_clust_6="13000.00000" pt_clust_7="13000.00000" pt_clust_8="13000.00000" pt_clust_9="23.37784" pt_clust_10="13000.00000"></scales>
<clustering>
<clus scale="   23.378">  1  9  2 -1</clus>
<clus scale="   81.071">  5  6 -1 -1</clus>
<clus scale="   89.393">  2  5  1 -1</clus>
<clus scale="   91.521">  7  8 -1 -1</clus>
<clus scale="   32.601">  7 10 -1 -1</clus>
<clus scale="   23.378">  1  5  2 -1</clus>
</clustering>
</event>
<event>
10    4  0.2565852E-005  0.3488058E+03  0.7546771E-02  0.1097214E+00
          2   -1    0    0  502    0 -0.00000000000E+00  0.00000000000E+00  0.35106225932E+03  0.35106225932E+03  0.00000000000E+00 0. -1.
         21   -1    0    0  503  502  0.00000000000E+00 -0.00000000000E+00 -0.31267381216E+03  0.31267381216E+03  0.00000000000E+00 0. -1.
         24    2    1    2    0    0  0.92249400154E+02 -0.91915889662E+02 -0.25618797788E+02  0.15539174758E+03  0.80819489068E+02 0.  0.
         23    2    1    2    0    0  0.34306484060E+02 -0.51107588925E+02  0.20221375281E+03  0.23123156878E+03  0.93748152411E+02 0.  0.
        -11    1    3    3    0    0  0.31269108388E+02  0.90213475016E+01  0.64589584355E+01  0.33179210271E+02  0.00000000000E+00 0.  1.
         12    1    3    3    0    0  0.60980291766E+02 -0.10093723716E+03 -0.32077756224E+02  0.12221253730E+03  0.00000000000E+00 0. -1.
        -11    1    4    4    0    0 -0.22575732930E+02 -0.49134763006E+02  0.81984909818E+02  0.98211069085E+02  0.00000000000E+00 0.  1.
         11    1    4    4    0    0  0.56882216990E+02 -0.19728259191E+01  0.12022884300E+03  0.13302049970E+03  0.00000000000E+00 0. -1.
         21    1    1    2  503  501 -0.20032540240E+02  0.31552803204E+02 -0.11533657725E+03  0.12124111560E+03  0.00000000000E+00 0. -1.
          1    1    1    2  501    0 -0.10652334397E+03  0.11147067538E+03 -0.22869930608E+02  0.15587163952E+03  0.00000000000E+00 0. -1.
<scales pt_clust_5="13000.00000" pt_clust_6="13000.00000" pt_clust_7="13000.00000" pt_clust_8="13000.00000" pt_clust_9="37.37489" pt_clust_10="13000.00000"></scales>
<clustering>
<clus scale="   37.375">  2  9  1 -1</clus>
<clus scale="   80.819">  5  6 -1 -1</clus>
<clus scale="   93.748">  7  8 -1 -1</clus>
<clus scale="  139.182">  1  5  2 -1</clus>
<clus scale="  139.192">  7 10 -1 -1</clus>
<clus scale="   37.375">  2  5  1 -1</clus>
</clustering>
</event>
<event>
10    4  0.2565852E-005  0.5325478E+03  0.7546771E-02  0.1035879E+00
         21   -1    0    0  501  502  0.00000000000E+00  0.00000000000E+00  0.33833086740E+03  0.33833086740E+03  0.00000000000E+00 0. -1.
          2   -1    0    0  503    0 -0.00000000000E+00 -0.00000000000E+00 -0.98289410700E+03  0.98289410700E+03  0.00000000000E+00 0. -1.
         24    2    1    2    0    0  0.21942823984E+02 -0.19574694361E+03 -0.44220144904E+03  0.49096399399E+03  0.81885092685E+02 0.  0.
         23    2    1    2    0    0 -0.11689571061E+03 -0.62915778968E+02 -0.26808583869E+03  0.31288076436E+03  0.91658896993E+02 0.  0.
        -11    1    3    3    0    0  0.25593174732E+02 -0.37620521996E+02 -0.47627099896E+02  0.65868466754E+02  0.00000000000E+00 0.  1.
         12    1    3    3    0    0 -0.36503507472E+01 -0.15812642162E+03 -0.39457434914E+03  0.42509552724E+03  0.00000000000E+00 0. -1.
        -11    1    4    4    0    0 -0.29024056153E+02 -0.64389157057E+02 -0.91058030731E+02  0.11523855406E+03  0.00000000000E+00 0.  1.
         11    1    4    4    0    0 -0.87871654453E+02  0.14733780887E+01 -0.17702780796E+03  0.19764221029E+03  0.00000000000E+00 0. -1.
         21    1    1    2  503  502 -0.98459552212E+02  0.29063645669E+03 -0.10511101764E+02  0.30704122954E+03  0.00000000000E+00 0. -1.
          1    1    1    2  501    0  0.19341243883E+03 -0.31973734109E+02  0.76235149886E+02  0.21033898651E+03  0.00000000000E+00 0. -1.
<scales pt_clust_5="13000.00000" pt_clust_6="13000.00000" pt_clust_7="13000.00000" pt_clust_8="13000.00000" pt_clust_9="248.01971" pt_clust_10="13000.00000"></scales>
<clustering>
<clus scale="   81.885">  5  6 -1 -1</clus>
<clus scale="   91.659">  7  8 -1 -1</clus>
<clus scale="  196.038">  7 10 -1 -1</clus>
<clus scale="  213.316">  2  5  1 -1</clus>
<clus scale="  248.020">  1  9  2 -1</clus>
<clus scale="  248.020">  1  5  2 -1</clus>
</clustering>
</event>
<event>
10    4  0.2565852E-005  0.3936581E+03  0.7546771E-02  0.1088456E+00
          2   -1    0    0  503    0 -0.00000000000E+00  0.00000000000E+00  0.57304603754E+03  0.57304603754E+03  0.00000000000E+00 0. -1.
         21   -1    0    0  501  502  0.00000000000E+00 -0.00000000000E+00 -0.14567571894E+03  0.14567571894E+03  0.00000000000E+00 0. -1.
         24    2    1    2    0    0 -0.88285496097E+02 -0.70348336040E+01  0.70828726972E+02  0.13838674895E+03  0.79311827716E+02 0.  0.
         23    2    1    2    0    0  0.18588986074E+03 -0.73837046965E+02  0.33298014522E+03  0.39939514114E+03  0.92917984373E+02 0.  0.
        -11    1    3    3    0    0 -0.38311126814E+02 -0.10974381242E+02  0.78150921539E+02  0.87725401218E+02  0.00000000000E+00 0.  1.
         12    1    3    3    0    0 -0.49974369283E+02  0.39395476381E+01 -0.73221945666E+01  0.50661347733E+02  0.00000000000E+00 0. -1.
        -13    1    4    4    0    0  0.16286505622E+03 -0.26096667333E+02  0.22364888708E+03  0.27789366181E+03  0.00000000000E+00 0. -1.
         13    1    4    4    0    0  0.23024804519E+02 -0.47740379631E+02  0.10933125814E+03  0.12150147932E+03  0.00000000000E+00 0.  1.
         21    1    1    2  503  502 -0.10712881457E+02 -0.28793013761E+02 -0.17198195857E+02  0.35207689661E+02  0.00000000000E+00 0. -1.
          1    1    1    2  501    0 -0.86891483186E+02  0.10966489433E+03  0.40759642256E+02  0.14573217673E+03  0.00000000000E+00 0. -1.
<scales pt_clust_5="13000.00000" pt_clust_6="13000.00000" pt_clust_7="13000.00000" pt_clust_8="13000.00000" pt_clust_9="30.72138" pt_clust_10="13000.00000"></scales>
<clustering>
<clus scale="   30.721">  2  9  1 -1</clus>
<clus scale="   79.312">  5  6 -1 -1</clus>
<clus scale="   92.918">  7  8 -1 -1</clus>
<clus scale="  121.897">  1  5  2 -1</clus>
<clus scale="  144.378">  7 10 -1 -1</clus>
<clus scale="   30.721">  2  5  1 -1</clus>
</clustering>
</event>
<event>
10    4  0.2565852E-005  0.1626584E+03  0.7546771E-02  0.1210188E+00
          2   -1    0    0  502    0 -0.00000000000E+00  0.00000000000E+00  0.55149973128E+02  0.55149973128E+02  0.00000000000E+00 0. -1.
         21   -1    0    0  503  502  0.00000000000E+00 -0.00000000000E+00 -0.42896581335E+03  0.42896581335E+03  0.00000000000E+00 0.  1.
         24    2    1    2    0    0  0.12549028673E+02  0.64811794256E+02 -0.19220955054E+03  0.21885787210E+03  0.81217055267E+02 0.  0.
         23    2    1    2    0    0  0.19968670148E+01 -0.18367378651E+02 -0.15189497927E+03  0.17751834843E+03  0.89996284497E+02 0.  0.
        -13    1    3    3    0    0  0.13947056997E+02  0.75495424167E+02 -0.10025435297E+03  0.12627357110E+03  0.00000000000E+00 0.  1.
         14    1    3    3    0    0 -0.13980283247E+01 -0.10683629912E+02 -0.91955197574E+02  0.92584301002E+02  0.00000000000E+00 0. -1.
        -13    1    4    4    0    0  0.39957582197E+02  0.27271390036E+01 -0.36369314053E+02  0.54099654960E+02  0.00000000000E+00 0.  1.
         13    1    4    4    0    0 -0.37960715182E+02 -0.21094517655E+02 -0.11552566522E+03  0.12341869347E+03  0.00000000000E+00 0. -1.
         21    1    1    2  503  501  0.45159053209E+01 -0.31117206106E+02 -0.47872182581E+02  0.57274948989E+02  0.00000000000E+00 0.  1.
          1    1    1    2  501    0 -0.19061801008E+02 -0.15327209499E+02  0.18160872171E+02  0.30464616963E+02  0.00000000000E+00 0. -1.
<scales pt_clust_5="13000.00000" pt_clust_6="13000.00000" pt_clust_7="13000.00000" pt_clust_8="13000.00000" pt_clust_9="31.44319" pt_clust_10="13000.00000"></scales>
<clustering>
<clus scale="   31.443">  2  9  1 -1</clus>
<clus scale="   81.217">  5  6 -1 -1</clus>
<clus scale="   89.996">  7  8 -1 -1</clus>
<clus scale="   24.725">  7 10 -1 -1</clus>
<clus scale="   95.438">  1  5  2 -1</clus>
<clus scale="   31.443">  2  5  1 -1</clus>
</clustering>
</event>
<event>
10    4  0.2565852E-005  0.2900289E+03  0.7546771E-02  0.1141200E+00
          2   -1    0    0  502    0 -0.00000000000E+00  0.00000000000E+00  0.12152136128E+04  0.12152136128E+04  0.00000000000E+00 0. -1.
         21   -1    0    0  503  502  0.00000000000E+00 -0.00000000000E+00 -0.16750324475E+03  0.16750324475E+03  0.00000000000E+00 0.  1.
         24    2    1    2    0    0  0.43155236523E+01 -0.98917190084E+01  0.26303808990E+03  0.27484089973E+03  0.78943103433E+02 0.  0.
         23    2    1    2    0    0  0.10004093989E+03 -0.52468919023E+02  0.27036294380E+03  0.30739616644E+03  0.92925263745E+02 0.  0.
        -13    1    3    3    0    0 -0.32475529877E+02 -0.97534804365E+01  0.19062549818E+03  0.19361784778E+03  0.00000000000E+00 0.  1.
         14    1    3    3    0    0  0.36791053530E+02 -0.13823857189E+00  0.72412591716E+02  0.81223051954E+02  0.00000000000E+00 0. -1.
        -11    1    4    4    0    0  0.21442454151E+02 -0.62016322506E+02  0.14449234707E+03  0.15869417588E+03  0.00000000000E+00 0.  1.
         11    1    4    4    0    0  0.78598485736E+02  0.95474034832E+01  0.12587059673E+03  0.14870199056E+03  0.00000000000E+00 0. -1.
         21    1    1    2  503  501 -0.40849430676E+02 -0.24026487846E+02 -0.13463777058E+03  0.14273499001E+03  0.00000000000E+00 0.  1.
          1    1    1    2  501    0 -0.63507032863E+02  0.86387125877E+02  0.64894710497E+03  0.65774480141E+03  0.00000000000E+00 0. -1.
<scales pt_clust_5="13000.00000" pt_clust_6="13000.00000" pt_clust_7="13000.00000" pt_clust_8="13000.00000" pt_clust_9="47.39143" pt_clust_10="13000.00000"></scales>
<clustering>
<clus scale="   47.391">  2  9  1 -1</clus>
<clus scale="   78.943">  5  6 -1 -1</clus>
<clus scale="   80.423">  1  5  2 -1</clus>
<clus scale="   92.925">  7  8 -1 -1</clus>
<clus scale="  102.374">  7 10 -1 -1</clus>
<clus scale="   47.391">  2  5  1 -1</clus>
</clustering>
</event>
<event>
10    4  0.2565852E-005  0.3628685E+03  0.7546771E-02  0.1083495E+00
         21   -1    0    0  501  502  0.00000000000E+00  0.00000000000E+00  0.28052980183E+03  0.28052980183E+03  0.00000000000E+00 0. -1.
          2   -1    0    0  503    0 -0.00000000000E+00 -0.00000000000E+00 -0.64266275142E+03  0.64266275142E+03  0.00000000000E+00 0. -1.
         24    2    1    2    0    0 -0.17847544670E+02 -0.15699637602E+03  0.39374502882E+02  0.18193067200E+03  0.81129655496E+02 0.  0.
         23    2    1    2    0    0  0.12603623647E+03 -0.25582659954E+01 -0.40256378357E+03  0.43145905140E+03  0.90596001909E+02 0.  0.
        -11    1    3    3    0    0  0.10842143287E+02 -0.46269710349E+02  0.47587221869E+02  0.67253117787E+02  0.00000000000E+00 0.  1.
         12    1    3    3    0    0 -0.28689687957E+02 -0.11072666568E+03 -0.82127189872E+01  0.11467755421E+03  0.00000000000E+00 0. -1.
        -11    1    4    4    0    0  0.35615602347E+02  0.40645036892E+02 -0.11861971286E+03  0.13035001509E+03  0.00000000000E+00 0.  1.
         11    1    4    4    0    0  0.90420634123E+02 -0.43203302887E+02 -0.28394407071E+03  0.30110903631E+03  0.00000000000E+00 0. -1.
         21    1    1    2  503  502 -0.19614985027E+02  0.20477854159E+03  0.25779561610E+02  0.20732482854E+03  0.00000000000E+00 0. -1.
          1    1    1    2  501    0 -0.88573706773E+02 -0.45223899572E+02 -0.24723230512E+02  0.10247800130E+03  0.00000000000E+00 0. -1.
<scales pt_clust_5="13000.00000" pt_clust_6="13000.00000" pt_clust_7="13000.00000" pt_clust_8="13000.00000" pt_clust_9="181.23332" pt_clust_10="13000.00000"></scales>
<clustering>
<clus scale="   81.130">  5  6 -1 -1</clus>
<clus scale="   90.596">  7  8 -1 -1</clus>
<clus scale="   99.451">  7 10 -1 -1</clus>
<clus scale="  177.619">  2  5  1 -1</clus>
<clus scale="  181.233">  1  9  2 -1</clus>
<clus scale="  181.233">  1  5  2 -1</clus>
</clustering>
</event>
<event>
10    4  0.2565852E-005  0.3705347E+03  0.7546771E-02  0.1060363E+00
         21   -1    0    0  501  502  0.00000000000E+00  0.00000000000E+00  0.71615133555E+03  0.71615133555E+03  0.00000000000E+00 0. -1.
          2   -1    0    0  503    0 -0.00000000000E+00 -0.00000000000E+00 -0.20068480185E+03  0.20068480185E+03  0.00000000000E+00 0. -1.
         24    2    1    2    0    0  0.55265977212E+02  0.30582431549E+03  0.39427539556E+03  0.50593861079E+03  0.62753088835E+02 0.  0.
         23    2    1    2    0    0 -0.40101843293E+02 -0.56048623535E+02 -0.44560580130E+01  0.11220909444E+03  0.88438783268E+02 0.  0.
        -11    1    3    3    0    0  0.38083497178E+02  0.63316414688E+02  0.88243364681E+02  0.11509219147E+03  0.00000000000E+00 0.  1.
         12    1    3    3    0    0  0.17182480034E+02  0.24250790080E+03  0.30603203088E+03  0.39084641932E+03  0.00000000000E+00 0. -1.
        -13    1    4    4    0    0 -0.57525342617E+02 -0.67805303055E+02  0.52137376109E+01  0.89072482987E+02  0.00000000000E+00 0. -1.
         13    1    4    4    0    0  0.17423499324E+02  0.11756679520E+02 -0.96697956240E+01  0.23136611451E+02  0.00000000000E+00 0.  1.
         21    1    1    2  503  502 -0.21906411010E+02 -0.12478874255E+01  0.14872299136E+02  0.26507231994E+02  0.00000000000E+00 0.  1.
          1    1    1    2  501    0  0.67422770905E+01 -0.24852780453E+03  0.11077489702E+03  0.27218120018E+03  0.00000000000E+00 0. -1.
<scales pt_clust_5="13000.00000" pt_clust_6="13000.00000" pt_clust_7="13000.00000" pt_clust_8="13000.00000" pt_clust_9="21.94194" pt_clust_10="13000.00000"></scales>
<clustering>
<clus scale="   21.942">  1  9  2 -1</clus>
<clus scale="   62.753">  5  6 -1 -1</clus>
<clus scale="   88.439">  7  8 -1 -1</clus>
<clus scale="  248.873">  7 10 -1 -1</clus>
<clus scale="  314.104">  2  5  1 -1</clus>
<clus scale="   21.942">  1  5  2 -1</clus>
</clustering>
</event>
<event>
10    4  0.2565852E-005  0.3014391E+03  0.7546771E-02  0.1121242E+00
         21   -1    0    0  503  502  0.00000000000E+00  0.00000000000E+00  0.66262198644E+03  0.66262198644E+03  0.00000000000E+00 0. -1.
          2   -1    0    0  502    0 -0.00000000000E+00 -0.00000000000E+00 -0.28876654728E+03  0.28876654728E+03  0.00000000000E+00 0. -1.
         24    2    1    2    0    0 -0.60271910610E+02  0.49924340239E+02 -0.19630135886E+03  0.22773250317E+03  0.84868878569E+02 0.  0.
         23    2    1    2    0    0  0.12324725611E+03 -0.13809275101E+03  0.84502428965E+02  0.22260970591E+03  0.90304632452E+02 0.  0.
        -13    1    3    3    0    0 -0.48592223386E+02 -0.12858953518E+02 -0.10378129376E+03  0.11531311197E+03  0.00000000000E+00 0.  1.
         14    1    3    3    0    0 -0.11679687224E+02  0.62783293757E+02 -0.92520065106E+02  0.11241939119E+03  0.00000000000E+00 0. -1.
        -13    1    4    4    0    0  0.39652938771E+02 -0.11099214589E+03  0.53337943453E+02  0.12936981184E+03  0.00000000000E+00 0.  1.
         13    1    4    4    0    0  0.83594317337E+02 -0.27100605122E+02  0.31164485512E+02  0.93239894070E+02  0.00000000000E+00 0. -1.
         21    1    1    2  503  501 -0.33449208486E+02  0.29201322106E+02  0.31463663705E+03  0.31775427634E+03  0.00000000000E+00 0.  1.
          1    1    1    2  501    0 -0.29526137012E+02  0.58967088669E+02  0.17101773201E+03  0.18329204831E+03  0.00000000000E+00 0. -1.
<scales pt_clust_5="13000.00000" pt_clust_6="13000.00000" pt_clust_7="13000.00000" pt_clust_8="13000.00000" pt_clust_9="44.40233" pt_clust_10="13000.00000"></scales>
<clustering>
<clus scale="   44.402">  1  9  2 -1</clus>
<clus scale="   84.869">  5  6 -1 -1</clus>
<clus scale="   90.305">  7  8 -1 -1</clus>
<clus scale="   87.382">  7 10 -1 -1</clus>
<clus scale="  116.821">  2  5  1 -1</clus>
<clus scale="   44.402">  1  5  2 -1</clus>
</clustering>
</event>
<event>
10    4  0.2565852E-005  0.1759855E+03  0.7546771E-02  0.1204547E+00
          2   -1    0    0  502    0 -0.00000000000E+00  0.00000000000E+00  0.83046621067E+03  0.83046621067E+03  0.00000000000E+00 0. -1.
         21   -1    0    0  503  502  0.00000000000E+00 -0.00000000000E+00 -0.73813248186E+02  0.73813248186E+02  0.00000000000E+00 0. -1.
         24    2    1    2    0    0 -0.22038459967E+02  0.33769417117E+01  0.22691430961E+03  0.24232910532E+03  0.82074319550E+02 0.  0.
         23    2    1    2    0    0  0.60085584820E+02  0.52402661300E+02  0.38743850853E+03  0.40598622278E+03  0.91432482083E+02 0.  0.
        -11    1    3    3    0    0 -0.21493995542E+02  0.40163914403E+02  0.15492410855E+03  0.16148254170E+03  0.00000000000E+00 0.  1.
         12    1    3    3    0    0 -0.54446442461E+00 -0.36786972691E+02  0.71990201057E+02  0.80846563622E+02  0.00000000000E+00 0. -1.
        -13    1    4    4    0    0  0.78485949641E+02  0.30346825983E+02  0.34223875292E+03  0.35243203336E+03  0.00000000000E+00 0. -1.
         13    1    4    4    0    0 -0.18400364821E+02  0.22055835318E+02  0.45199755611E+02  0.53554189419E+02  0.00000000000E+00 0.  1.
         21    1    1    2  503  501 -0.96734312065E+02 -0.30963636392E+02  0.16817928065E+01  0.10158298251E+03  0.00000000000E+00 0. -1.
          1    1    1    2  501    0  0.58687187211E+02 -0.24815966620E+02  0.14061835154E+03  0.15438114824E+03  0.00000000000E+00 0. -1.
<scales pt_clust_5="13000.00000" pt_clust_6="13000.00000" pt_clust_7="13000.00000" pt_clust_8="13000.00000" pt_clust_9="103.30226" pt_clust_10="13000.00000"></scales>
<clustering>
<clus scale="   82.074">  5  6 -1 -1</clus>
<clus scale="   85.049">  1  5  2 -1</clus>
<clus scale="   91.432">  7  8 -1 -1</clus>
<clus scale="   58.384">  7 10 -1 -1</clus>
<clus scale="  103.302">  2  9  1 -1</clus>
<clus scale="  103.302">  2  5  1 -1</clus>
</clustering>
</event>
<event>
10    4  0.2565852E-005  0.1995109E+03  0.7546771E-02  0.1187392E+00
         -1   -1    0    0    0  501 -0.00000000000E+00  0.00000000000E+00  0.66310664666E+02  0.66310664666E+02  0.00000000000E+00 0.  1.
         21   -1    0    0  501  502  0.00000000000E+00 -0.00000000000E+00 -0.69539379059E+03  0.69539379059E+03  0.00000000000E+00 0. -1.
         24    2    1    2    0    0 -0.28747675898E+02  0.17392915754E+02 -0.13990781036E+02  0.85784015613E+02  0.77680196915E+02 0.  0.
         23    2    1    2    0    0 -0.75551081425E+02 -0.49698242817E+02 -0.21677031857E+03  0.25197951849E+03  0.91249249195E+02 0.  0.
        -13    1    3    3    0    0 -0.29942370692E+02  0.33617426937E+01  0.28222516589E+02  0.41283862697E+02  0.00000000000E+00 0.  1.
         14    1    3    3    0    0  0.11946947935E+01  0.14031173060E+02 -0.42213297625E+02  0.44500152915E+02  0.00000000000E+00 0. -1.
        -13    1    4    4    0    0 -0.78612168003E+02 -0.38632797055E+01 -0.16471420730E+03  0.18255291829E+03  0.00000000000E+00 0.  1.
         13    1    4    4    0    0  0.30610865780E+01 -0.45834963111E+02 -0.52056111270E+02  0.69426600198E+02  0.00000000000E+00 0. -1.
         21    1    1    2  503  502  0.27412047325E+02  0.48665890882E+02 -0.24904334807E+03  0.25523005013E+03  0.00000000000E+00 0. -1.
         -2    1    1    2    0  503  0.76886709997E+02 -0.16360563820E+02 -0.14927867825E+03  0.16871087103E+03  0.00000000000E+00 0.  1.
<scales pt_clust_5="13000.00000" pt_clust_6="13000.00000" pt_clust_7="13000.00000" pt_clust_8="13000.00000" pt_clust_9="55.85507" pt_clust_10="13000.00000"></scales>
<clustering>
<clus scale="   55.855">  2  9  1 -1</clus>
<clus scale="   77.680">  5  6 -1 -1</clus>
<clus scale="   84.946">  1  5  2 -1</clus>
<clus scale="   91.249">  7  8 -1 -1</clus>
<clus scale="   76.077">  7 10 -1 -1</clus>
<clus scale="   55.855">  2  5  1 -1</clus>
</clustering>
</event>
<event>
10    4  0.2565852E-005  0.2373554E+03  0.7546771E-02  0.1136886E+00
         21   -1    0    0  503  502  0.00000000000E+00  0.00000000000E+00  0.81217837645E+02  0.81217837645E+02  0.00000000000E+00 0. -1.
          2   -1    0    0  502    0 -0.00000000000E+00 -0.00000000000E+00 -0.84847084391E+03  0.84847084391E+03  0.00000000000E+00 0. -1.
         24    2    1    2    0    0 -0.13651507013E+03  0.53098796989E+02 -0.54300075533E+03  0.56944317834E+03  0.89218083699E+02 0.  0.
         23    2    1    2    0    0 -0.19993576975E+02 -0.17317726737E+02 -0.13381823658E+03  0.16517394626E+03  0.93142177886E+02 0.  0.
        -13    1    3    3    0    0 -0.17730366423E+02  0.45849077715E+02 -0.11197087285E+03  0.12228646772E+03  0.00000000000E+00 0.  1.
         14    1    3    3    0    0 -0.11878470371E+03  0.72497192738E+01 -0.43102988248E+03  0.44715671062E+03  0.00000000000E+00 0. -1.
        -13    1    4    4    0    0  0.16720105107E+02 -0.27771107163E+02 -0.12043779432E+03  0.12472392958E+03  0.00000000000E+00 0.  1.
         13    1    4    4    0    0 -0.36713682082E+02  0.10453380426E+02 -0.13380442254E+02  0.40450016678E+02  0.00000000000E+00 0. -1.
         21    1    1    2  503  501  0.61315301360E+02  0.14182935751E+02 -0.49365683087E+02  0.79985576912E+02  0.00000000000E+00 0. -1.
          1    1    1    2  501    0  0.95193345746E+02 -0.49964006002E+02 -0.41068331276E+02  0.11508598005E+03  0.00000000000E+00 0. -1.
<scales pt_clust_5="13000.00000" pt_clust_6="13000.00000" pt_clust_7="13000.00000" pt_clust_8="13000.00000" pt_clust_9="62.93427" pt_clust_10="13000.00000"></scales>
<clustering>
<clus scale="   62.934">  1  9  2 -1</clus>
<clus scale="   89.218">  5  6 -1 -1</clus>
<clus scale="   93.142">  7  8 -1 -1</clus>
<clus scale="  136.258">  7 10 -1 -1</clus>
<clus scale="  162.847">  2  5  1 -1</clus>
<clus scale="   62.934">  1  5  2 -1</clus>
</clustering>
</event>
<event>
10    4  0.2565852E-005  0.3770552E+03  0.7546771E-02  0.1095089E+00
          2   -1    0    0  502    0 -0.00000000000E+00  0.00000000000E+00  0.28831651341E+03  0.28831651341E+03  0.00000000000E+00 0. -1.
         21   -1    0    0  503  502  0.00000000000E+00 -0.00000000000E+00 -0.94993691043E+03  0.94993691043E+03  0.00000000000E+00 0. -1.
         24    2    1    2    0    0  0.78841170833E+02 -0.29916840810E+02  0.33925838062E+02  0.12131510700E+03  0.80345784687E+02 0.  0.
         23    2    1    2    0    0 -0.22418870356E+02 -0.18139819077E+03 -0.24200486444E+02  0.20526049258E+03  0.90212509705E+02 0.  0.
        -11    1    3    3    0    0  0.13655642679E+02 -0.41371508862E+02  0.33783277682E+02  0.55130646408E+02  0.00000000000E+00 0.  1.
         12    1    3    3    0    0  0.65185528154E+02  0.11454668052E+02  0.14256038008E+00  0.66184460596E+02  0.00000000000E+00 0. -1.
        -11    1    4    4    0    0 -0.20720817347E+02 -0.98920079983E+02 -0.57521616722E+02  0.11628959922E+03  0.00000000000E+00 0.  1.
         11    1    4    4    0    0 -0.16980530089E+01 -0.82478110787E+02  0.33321130278E+02  0.88970893364E+02  0.00000000000E+00 0. -1.
         21    1    1    2  503  501 -0.16185124411E+03  0.14880882915E+03 -0.73946230790E+03  0.77145602445E+03  0.00000000000E+00 0. -1.
          1    1    1    2  501    0  0.10542894363E+03  0.62506202432E+02  0.68116559265E+02  0.14022179981E+03  0.00000000000E+00 0. -1.
<scales pt_clust_5="13000.00000" pt_clust_6="13000.00000" pt_clust_7="13000.00000" pt_clust_8="13000.00000" pt_clust_9="213.93273" pt_clust_10="13000.00000"></scales>
<clustering>
<clus scale="   80.346">  5  6 -1 -1</clus>
<clus scale="   90.213">  7  8 -1 -1</clus>
<clus scale="  116.475">  1  5  2 -1</clus>
<clus scale="  152.087">  7 10 -1 -1</clus>
<clus scale="  213.933">  2  9  1 -1</clus>
<clus scale="  213.933">  2  5  1 -1</clus>
</clustering>
</event>
<event>
10    4  0.2565852E-005  0.4207784E+03  0.7546771E-02  0.1048223E+00
         -3   -1    0    0    0  501 -0.00000000000E+00  0.00000000000E+00  0.72599540246E+03  0.72599540246E+03  0.00000000000E+00 0.  1.
         21   -1    0    0  503  502  0.00000000000E+00 -0.00000000000E+00 -0.27262668751E+03  0.27262668751E+03  0.00000000000E+00 0.  1.
         24    2    1    2    0    0  0.31174193431E+02 -0.26031343178E+03  0.12584786490E+03  0.30227572212E+03  0.82450069612E+02 0.  0.
         23    2    1    2    0    0  0.45659828187E+02 -0.17407767726E+02  0.50759239639E+02  0.11743528894E+03  0.93950499693E+02 0.  0.
        -13    1    3    3    0    0 -0.25376122703E+02 -0.12777941949E+03  0.68526240074E+02  0.14719841449E+03  0.00000000000E+00 0.  1.
         14    1    3    3    0    0  0.56550316134E+02 -0.13253401229E+03  0.57321624824E+02  0.15507730763E+03  0.00000000000E+00 0. -1.
        -13    1    4    4    0    0  0.23587834772E+02 -0.14939627900E+02 -0.25619031348E+02  0.37893445321E+02  0.00000000000E+00 0. -1.
         13    1    4    4    0    0  0.22071993414E+02 -0.24681398256E+01  0.76378270987E+02  0.79541843620E+02  0.00000000000E+00 0.  1.
         21    1    1    2  503  501 -0.12942109337E+03 -0.75591137064E+02  0.62612976648E+02  0.16243221434E+03  0.00000000000E+00 0.  1.
         -4    1    1    2    0  502  0.52587071751E+02  0.35331233657E+03  0.21414863377E+03  0.41647886457E+03  0.00000000000E+00 0.  1.
<scales pt_clust_5="13000.00000" pt_clust_6="13000.00000" pt_clust_7="13000.00000" pt_clust_8="13000.00000" pt_clust_9="149.87942" pt_clust_10="13000.00000"></scales>
<clustering>
<clus scale="   82.450">  5  6 -1 -1</clus>
<clus scale="   93.950">  7  8 -1 -1</clus>
<clus scale="  149.879">  2  9  1 -1</clus>
<clus scale="  302.405">  1  5  2 -1</clus>
<clus scale="  118.947">  7 10 -1 -1</clus>
<clus scale="  149.879">  2  5  1 -1</clus>
</clustering>
</event>
<event>
10    4  0.2565852E-005  0.2934280E+03  0.7546771E-02  0.1123219E+00
         21   -1    0    0  503  502  0.00000000000E+00  0.00000000000E+00  0.11980855508E+03  0.11980855508E+03  0.00000000000E+00 0.  1.
          2   -1    0    0  502    0 -0.00000000000E+00 -0.00000000000E+00 -0.54687791782E+03  0.54687791782E+03  0.00000000000E+00 0. -1.
         24    2    1    2    0    0  0.12093969050E+02 -0.89536354959E+02 -0.20628462644E+03  0.23943822215E+03  0.81328298738E+02 0.  0.
         23    2    1    2    0    0 -0.48938702687E+02 -0.12991395964E+02  0.12506389957E+02  0.10486489216E+03  0.90975067069E+02 0.  0.
        -13    1    3    3    0    0  0.26079911359E+02  0.42701755124E+01 -0.38384322306E+02  0.46602064056E+02  0.00000000000E+00 0.  1.
         14    1    3    3    0    0 -0.13985942308E+02 -0.93806530472E+02 -0.16790030413E+03  0.19283615810E+03  0.00000000000E+00 0. -1.
        -13    1    4    4    0    0 -0.34750776225E+02 -0.29997585144E+02 -0.31448201444E+02  0.55645852826E+02  0.00000000000E+00 0. -1.
         13    1    4    4    0    0 -0.14187926462E+02  0.17006189181E+02  0.43954591400E+02  0.49219039334E+02  0.00000000000E+00 0.  1.
         21    1    1    2  503  501  0.20297708557E+02  0.10075228041E+02  0.32990413969E+02  0.40023425723E+02  0.00000000000E+00 0.  1.
          1    1    1    2  501    0  0.16547025079E+02  0.92452522882E+02 -0.26628154022E+03  0.28235993287E+03  0.00000000000E+00 0. -1.
<scales pt_clust_5="13000.00000" pt_clust_6="13000.00000" pt_clust_7="13000.00000" pt_clust_8="13000.00000" pt_clust_9="22.66070" pt_clust_10="13000.00000"></scales>
<clustering>
<clus scale="   22.661">  1  9  2 -1</clus>
<clus scale="   81.328">  5  6 -1 -1</clus>
<clus scale="   90.975">  7  8 -1 -1</clus>
<clus scale="   95.240">  7 10 -1 -1</clus>
<clus scale="  120.567">  2  5  1 -1</clus>
<clus scale="   22.661">  1  5  2 -1</clus>
</clustering>
</event>
<event>
10    4  0.2565852E-005  0.3573320E+03  0.7546771E-02  0.1089407E+00
          2   -1    0    0  502    0 -0.00000000000E+00  0.00000000000E+00  0.59070811426E+03  0.59070811426E+03  0.00000000000E+00 0. -1.
         21   -1    0    0  503  502  0.00000000000E+00 -0.00000000000E+00 -0.24454047056E+03  0.24454047056E+03  0.00000000000E+00 0. -1.
         24    2    1    2    0    0 -0.13219080657E+03 -0.95046823818E+01  0.98013837882E+02  0.18230957598E+03  0.77880169171E+02 0.  0.
         23    2    1    2    0    0  0.49865765519E+02  0.10221050047E+03  0.31167105009E+02  0.14586311865E+03  0.85854993864E+02 0.  0.
        -13    1    3    3    0    0 -0.74727382769E+02  0.31191479552E+02  0.36548581606E+02  0.88841932383E+02  0.00000000000E+00 0.  1.
         14    1    3    3    0    0 -0.57463423796E+02 -0.40696161933E+02  0.61465256276E+02  0.93467643597E+02  0.00000000000E+00 0. -1.
        -11    1    4    4    0    0  0.22944059204E+02  0.23391135957E+02  0.50650379157E+02  0.60324422939E+02  0.00000000000E+00 0.  1.
         11    1    4    4    0    0  0.26921706314E+02  0.78819364510E+02 -0.19483274148E+02  0.85538695712E+02  0.00000000000E+00 0. -1.
         21    1    1    2  503  501 -0.17250116653E+02  0.18869558311E+02 -0.12828562146E+03  0.13080836146E+03  0.00000000000E+00 0. -1.
          1    1    1    2  501    0  0.99575157700E+02 -0.11157537640E+03  0.34527232227E+03  0.37626752872E+03  0.00000000000E+00 0. -1.
<scales pt_clust_5="13000.00000" pt_clust_6="13000.00000" pt_clust_7="13000.00000" pt_clust_8="13000.00000" pt_clust_9="25.56613" pt_clust_10="13000.00000"></scales>
<clustering>
<clus scale="   25.566">  2  9  1 -1</clus>
<clus scale="   77.880">  5  6 -1 -1</clus>
<clus scale="   85.855">  7  8 -1 -1</clus>
<clus scale="  146.102">  7 10 -1 -1</clus>
<clus scale="  158.928">  1  5  2 -1</clus>
<clus scale="   25.566">  2  5  1 -1</clus>
</clustering>
</event>
<event>
10    4  0.2565852E-005  0.1299129E+03  0.7546771E-02  0.1244629E+00
         21   -1    0    0  501  502  0.00000000000E+00  0.00000000000E+00  0.72926662691E+02  0.72926662691E+02  0.00000000000E+00 0.  1.
          2   -1    0    0  503    0 -0.00000000000E+00 -0.00000000000E+00 -0.49743267205E+03  0.49743267205E+03  0.00000000000E+00 0. -1.
         24    2    1    2    0    0  0.27562905112E+02  0.57277852996E+02 -0.15640775072E+03  0.18703186348E+03  0.80480229173E+02 0.  0.
         23    2    1    2    0    0 -0.51425926712E+02 -0.16746866477E+02 -0.24194604636E+03  0.26400264513E+03  0.90743726016E+02 0.  0.
        -13    1    3    3    0    0  0.17080295972E+01  0.37338187625E+02 -0.12417177447E+02  0.39385833950E+02  0.00000000000E+00 0.  1.
         14    1    3    3    0    0  0.25854875515E+02  0.19939665371E+02 -0.14399057328E+03  0.14764602953E+03  0.00000000000E+00 0. -1.
        -13    1    4    4    0    0  0.23306641513E+02 -0.19757053036E+02 -0.79350599825E+02  0.85029749946E+02  0.00000000000E+00 0. -1.
         13    1    4    4    0    0 -0.74732568225E+02  0.30101865584E+01 -0.16259544654E+03  0.17897289519E+03  0.00000000000E+00 0.  1.
         21    1    1    2  503  502  0.37374419817E+01 -0.45515058683E+02  0.33196432748E+02  0.56458765366E+02  0.00000000000E+00 0.  1.
          1    1    1    2  501    0  0.20125579618E+02  0.49840721640E+01 -0.59348645023E+02  0.62866060767E+02  0.00000000000E+00 0. -1.
<scales pt_clust_5="13000.00000" pt_clust_6="13000.00000" pt_clust_7="13000.00000" pt_clust_8="13000.00000" pt_clust_9="45.66825" pt_clust_10="13000.00000"></scales>
<clustering>
<clus scale="   45.668">  1  9  2 -1</clus>
<clus scale="   80.480">  5  6 -1 -1</clus>
<clus scale="   90.744">  7  8 -1 -1</clus>
<clus scale="   20.471">  7 10 -1 -1</clus>
<clus scale="   91.694">  2  5  1 -1</clus>
<clus scale="   45.668">  1  5  2 -1</clus>
</clustering>
</event>
<event>
10    4  0.2565852E-005  0.4443263E+03  0.7546771E-02  0.1071394E+00
         -1   -1    0    0    0  501 -0.00000000000E+00  0.00000000000E+00  0.17436974830E+03  0.17436974830E+03  0.00000000000E+00 0.  1.
         21   -1    0    0  503  502  0.00000000000E+00 -0.00000000000E+00 -0.57827649187E+03  0.57827649187E+03  0.00000000000E+00 0.  1.
         24    2    1    2    0    0  0.10217246760E+03 -0.51301384017E+02 -0.18194692625E+03  0.22937004839E+03  0.80217766053E+02 0.  0.
         23    2    1    2    0    0 -0.44787444150E+02  0.10886269265E+03  0.10085996113E+03  0.17898689701E+03  0.89479475518E+02 0.  0.
        -11    1    3    3    0    0  0.56951647579E+02  0.15288135436E+02 -0.70866646621E+02  0.92191641977E+02  0.00000000000E+00 0.  1.
         12    1    3    3    0    0  0.45220820018E+02 -0.66589519453E+02 -0.11108027963E+03  0.13717840642E+03  0.00000000000E+00 0. -1.
        -13    1    4    4    0    0 -0.70026205156E+02  0.92009336967E+02  0.67494644975E+02  0.13388395945E+03  0.00000000000E+00 0. -1.
         13    1    4    4    0    0  0.25238761006E+02  0.16853355688E+02  0.33365316151E+02  0.45102937564E+02  0.00000000000E+00 0.  1.
         21    1    1    2  503  501 -0.91310829828E+01  0.21689399809E+02 -0.37603480609E+02  0.44360212967E+02  0.00000000000E+00 0.  1.
         -2    1    1    2    0  502 -0.48253940465E+02 -0.79250708447E+02 -0.28521629784E+03  0.29992908180E+03  0.00000000000E+00 0.  1.
<scales pt_clust_5="13000.00000" pt_clust_6="13000.00000" pt_clust_7="13000.00000" pt_clust_8="13000.00000" pt_clust_9="23.53310" pt_clust_10="13000.00000"></scales>
<clustering>
<clus scale="   23.533">  2  9  1 -1</clus>
<clus scale="   80.218">  5  6 -1 -1</clus>
<clus scale="   89.479">  7  8 -1 -1</clus>
<clus scale="   85.914">  7 10 -1 -1</clus>
<clus scale="  134.243">  1  5  2 -1</clus>
<clus scale="   23.533">  2  5  1 -1</clus>
</clustering>
</event>
<event>
10    4  0.2565852E-005  0.5160011E+03  0.7546771E-02  0.1028795E+00
          2   -1    0    0  502    0 -0.00000000000E+00  0.00000000000E+00  0.72499165092E+03  0.72499165092E+03  0.00000000000E+00 0. -1.
         21   -1    0    0  503  502  0.00000000000E+00 -0.00000000000E+00 -0.80259441005E+03  0.80259441005E+03  0.00000000000E+00 0.  1.
         24    2    1    2    0    0 -0.16426939334E+03  0.17460217236E+03 -0.35128002984E+03  0.43289268208E+03  0.80796427221E+02 0.  0.
         23    2    1    2    0    0 -0.46125683124E+02 -0.11712077314E+03  0.34458923245E+03  0.37732255064E+03  0.88236692767E+02 0.  0.
        -13    1    3    3    0    0 -0.11715634608E+03  0.16866020268E+03 -0.27966745146E+03  0.34696650674E+03  0.00000000000E+00 0.  1.
         14    1    3    3    0    0 -0.47113047259E+02  0.59419696816E+01 -0.71612578380E+02  0.85926175337E+02  0.00000000000E+00 0. -1.
        -13    1    4    4    0    0  0.12277245470E+01 -0.43512327400E+02  0.22473772231E+03  0.22891455561E+03  0.00000000000E+00 0.  1.
         13    1    4    4    0    0 -0.47353407671E+02 -0.73608445741E+02  0.11985151015E+03  0.14840799502E+03  0.00000000000E+00 0. -1.
         21    1    1    2  503  501 -0.11501796201E+03 -0.83057205341E+02 -0.29096292759E+03  0.32370828871E+03  0.00000000000E+00 0.  1.
          1    1    1    2  501    0  0.32541303847E+03  0.25575806123E+02  0.22005096586E+03  0.39366253955E+03  0.00000000000E+00 0. -1.
<scales pt_clust_5="13000.00000" pt_clust_6="13000.00000" pt_clust_7="13000.00000" pt_clust_8="13000.00000" pt_clust_9="141.87188" pt_clust_10="13000.00000"></scales>
<clustering>
<clus scale="   80.796">  5  6 -1 -1</clus>
<clus scale="   88.237">  7  8 -1 -1</clus>
<clus scale="  141.872">  2  9  1 -1</clus>
<clus scale="  289.081">  1  5  2 -1</clus>
<clus scale="  206.573">  7 10 -1 -1</clus>
<clus scale="  141.872">  2  5  1 -1</clus>
</clustering>
</event>
<event>
10    4  0.2956099E-005  0.1578537E+03  0.7546771E-02  0.1215618E+00
         21   -1    0    0  501  502  0.00000000000E+00  0.00000000000E+00  0.20890467701E+03  0.20890467701E+03  0.00000000000E+00 0. -1.
          2   -1    0    0  503    0 -0.00000000000E+00 -0.00000000000E+00 -0.77699640702E+03  0.77699640702E+03  0.00000000000E+00 0. -1.
         24    2    1    2    0    0 -0.33794700194E+02 -0.52273739021E+02 -0.33279412699E+03  0.34812293649E+03  0.81012482977E+02 0.  0.
         23    2    1    2    0    0 -0.31276200883E+02  0.10660604155E+02 -0.34189265498E+03  0.35532040282E+03  0.90940375552E+02 0.  0.
        -11    1    3    3    0    0  0.18181650801E+02 -0.40818519192E+02 -0.10352459849E+03  0.11275666910E+03  0.00000000000E+00 0.  1.
         12    1    3    3    0    0 -0.51976350995E+02 -0.11455219830E+02 -0.22926952850E+03  0.23536626738E+03  0.00000000000E+00 0. -1.
        -11    1    4    4    0    0 -0.81546831102E+01 -0.31753791890E+02 -0.52297368805E+02  0.61723714567E+02  0.00000000000E+00 0. -1.
         11    1    4    4    0    0 -0.23121517773E+02  0.42414396046E+02 -0.28959528618E+03  0.29359668825E+03  0.00000000000E+00 0.  1.
         21    1    1    2  503  502  0.17528366582E+02  0.42876876318E+02  0.18502463198E+03  0.19073485417E+03  0.00000000000E+00 0. -1.
          1    1    1    2  501    0  0.47542534495E+02 -0.12637414522E+01 -0.78429580017E+02  0.91722890547E+02  0.00000000000E+00 0. -1.
<scales pt_clust_5="13000.00000" pt_clust_6="13000.00000" pt_clust_7="13000.00000" pt_clust_8="13000.00000" pt_clust_9="46.32138" pt_clust_10="13000.00000"></scales>
<clustering>
<clus scale="   46.321">  1  9  2 -1</clus>
<clus scale="   81.012">  5  6 -1 -1</clus>
<clus scale="   90.940">  7  8 -1 -1</clus>
<clus scale="   54.488">  7 10 -1 -1</clus>
<clus scale="   93.042">  2  5  1 -1</clus>
<clus scale="   46.321">  1  5  2 -1</clus>
</clustering>
</event>
<event>
10    4  0.2565852E-005  0.3477386E+03  0.7546771E-02  0.1094488E+00
          2   -1    0    0  503    0 -0.00000000000E+00  0.00000000000E+00  0.18930956979E+04  0.18930956979E+04  0.00000000000E+00 0. -1.
         21   -1    0    0  501  502  0.00000000000E+00 -0.00000000000E+00 -0.37942783316E+02  0.37942783316E+02  0.00000000000E+00 0.  1.
         24    2    1    2    0    0  0.12689206888E+03  0.42937140115E+02  0.53289537442E+03  0.55566456699E+03  0.82706927023E+02 0.  0.
         23    2    1    2    0    0 -0.68114569982E+02  0.11841957893E+03  0.87945725045E+03  0.89466408781E+03  0.91192013488E+02 0.  0.
        -11    1    3    3    0    0  0.96182951719E+02  0.26836757462E+02  0.22935415016E+03  0.25014935129E+03  0.00000000000E+00 0.  1.
         12    1    3    3    0    0  0.30709117157E+02  0.16100382653E+02  0.30354122426E+03  0.30551521570E+03  0.00000000000E+00 0. -1.
        -11    1    4    4    0    0 -0.64548238492E+02  0.24642122055E+02  0.31814721143E+03  0.32556313891E+03  0.00000000000E+00 0. -1.
         11    1    4    4    0    0 -0.35663314905E+01  0.93777456877E+02  0.56131003902E+03  0.56910094890E+03  0.00000000000E+00 0.  1.
         21    1    1    2  503  502 -0.22076462149E+02 -0.67727197108E+01  0.26657270627E+02  0.35268257550E+02  0.00000000000E+00 0. -1.
          1    1    1    2  501    0 -0.36701036745E+02 -0.15458399934E+03  0.41614301912E+03  0.44544156891E+03  0.00000000000E+00 0. -1.
<scales pt_clust_5="13000.00000" pt_clust_6="13000.00000" pt_clust_7="13000.00000" pt_clust_8="13000.00000" pt_clust_9="23.09199" pt_clust_10="13000.00000"></scales>
<clustering>
<clus scale="   23.092">  2  9  1 -1</clus>
<clus scale="   82.707">  5  6 -1 -1</clus>
<clus scale="   91.192">  7  8 -1 -1</clus>
<clus scale="  150.843">  1  5  2 -1</clus>
<clus scale="  143.725">  7 10 -1 -1</clus>
<clus scale="   23.092">  2  5  1 -1</clus>
</clustering>
</event>
<event>
10    4  0.2565852E-005  0.4979040E+03  0.7546771E-02  0.1038260E+00
          2   -1    0    0  502    0 -0.00000000000E+00  0.00000000000E+00  0.27140528934E+04  0.27140528934E+04  0.00000000000E+00 0. -1.
         21   -1    0    0  503  502  0.00000000000E+00 -0.00000000000E+00 -0.91484209593E+02  0.91484209593E+02  0.00000000000E+00 0. -1.
         24    2    1    2    0    0 -0.15424413693E+02 -0.23626806221E+03  0.12525484426E+04  0.12772702393E+04  0.80505611486E+02 0.  0.
         23    2    1    2    0    0  0.79413115097E+02 -0.77935756050E+02  0.21088640935E+03  0.25534850212E+03  0.91374804870E+02 0.  0.
        -13    1    3    3    0    0  0.33013114225E+02 -0.97590388807E+02  0.53944330924E+03  0.54919289287E+03  0.00000000000E+00 0.  1.
         14    1    3    3    0    0 -0.48437527918E+02 -0.13867767341E+03  0.71310513336E+03  0.72807734646E+03  0.00000000000E+00 0. -1.
        -11    1    4    4    0    0  0.86911262094E+01 -0.23672739518E+02 -0.12455008288E+01  0.25248476061E+02  0.00000000000E+00 0. -1.
         11    1    4    4    0    0  0.70721988888E+02 -0.54263016532E+02  0.21213191018E+03  0.23010002606E+03  0.00000000000E+00 0.  1.
         21    1    1    2  503  501  0.47281567437E+02  0.28771283638E+02 -0.16714914463E+02  0.57816275796E+02  0.00000000000E+00 0.  1.
          1    1    1    2  501    0 -0.11127026884E+03  0.28543253463E+03  0.11758487463E+04  0.12151020858E+04  0.00000000000E+00 0. -1.
<scales pt_clust_5="13000.00000" pt_clust_6="13000.00000" pt_clust_7="13000.00000" pt_clust_8="13000.00000" pt_clust_9="55.34739" pt_clust_10="13000.00000"></scales>
<clustering>
<clus scale="   55.347">  2  9  1 -1</clus>
<clus scale="   80.506">  5  6 -1 -1</clus>
<clus scale="   91.375">  7  8 -1 -1</clus>
<clus scale="  243.452">  1  5  2 -1</clus>
<clus scale="  145.531">  7 10 -1 -1</clus>
<clus scale="   55.347">  2  5  1 -1</clus>
</clustering>
</event>
<event>
10    4  0.2565852E-005  0.1580185E+03  0.7546771E-02  0.1204841E+00
          2   -1    0    0  503    0 -0.00000000000E+00  0.00000000000E+00  0.65131391072E+02  0.65131391072E+02  0.00000000000E+00 0. -1.
         21   -1    0    0  501  502  0.00000000000E+00 -0.00000000000E+00 -0.76290840186E+03  0.76290840186E+03  0.00000000000E+00 0.  1.
         24    2    1    2    0    0  0.65987628205E+01 -0.70538999724E+02 -0.27011453663E+03  0.29077513361E+03  0.81049498896E+02 0.  0.
         23    2    1    2    0    0 -0.17236891121E+02  0.46919016589E+02 -0.74570310471E+02  0.13117237616E+03  0.95639722550E+02 0.  0.
        -13    1    3    3    0    0 -0.29118764906E+02 -0.48321822949E+02 -0.93343437667E+02  0.10906831987E+03  0.00000000000E+00 0.  1.
         14    1    3    3    0    0  0.35717527727E+02 -0.22217176775E+02 -0.17677109896E+03  0.18170681374E+03  0.00000000000E+00 0. -1.
        -13    1    4    4    0    0 -0.14281609118E+02  0.76133387797E+02 -0.45414447479E+02  0.89792700908E+02  0.00000000000E+00 0.  1.
         13    1    4    4    0    0 -0.29552820032E+01 -0.29214371209E+02 -0.29155862992E+02  0.41379675248E+02  0.00000000000E+00 0. -1.
         21    1    1    2  503  502  0.47604036434E+02 -0.52091490335E+01 -0.35592129371E+03  0.35912845451E+03  0.00000000000E+00 0.  1.
          1    1    1    2  501    0 -0.36965908134E+02  0.28829132169E+02  0.28291300295E+01  0.46963828661E+02  0.00000000000E+00 0. -1.
<scales pt_clust_5="13000.00000" pt_clust_6="13000.00000" pt_clust_7="13000.00000" pt_clust_8="13000.00000" pt_clust_9="47.88820" pt_clust_10="13000.00000"></scales>
<clustering>
<clus scale="   47.888">  2  9  1 -1</clus>
<clus scale="   81.049">  5  6 -1 -1</clus>
<clus scale="   95.640">  7  8 -1 -1</clus>
<clus scale="   44.682">  7 10 -1 -1</clus>
<clus scale="  116.743">  1  5  2 -1</clus>
<clus scale="   47.888">  2  5  1 -1</clus>
</clustering>
</event>
<event>
10    4  0.2565852E-005  0.3640188E+03  0.7546771E-02  0.1115510E+00
         21   -1    0    0  501  502  0.00000000000E+00  0.00000000000E+00  0.17139881825E+03  0.17139881825E+03  0.00000000000E+00 0.  1.
          4   -1    0    0  503    0 -0.00000000000E+00 -0.00000000000E+00 -0.64873315331E+03  0.64873315331E+03  0.00000000000E+00 0. -1.
         24    2    1    2    0    0 -0.67340283077E+01  0.14809041968E+02 -0.21723236978E+03  0.23030360011E+03  0.74734134647E+02 0.  0.
         23    2    1    2    0    0  0.74124076780E+02  0.47033904969E+02  0.12752671959E+02  0.12707892814E+03  0.90993716051E+02 0.  0.
        -13    1    3    3    0    0  0.23714126478E+02 -0.17316182327E+02 -0.57657716468E+02  0.64704112955E+02  0.00000000000E+00 0.  1.
         14    1    3    3    0    0 -0.30448154785E+02  0.32125224295E+02 -0.15957465331E+03  0.16559948715E+03  0.00000000000E+00 0. -1.
        -13    1    4    4    0    0  0.31714081546E+02 -0.41313798511E+01  0.43387559777E+02  0.53901128107E+02  0.00000000000E+00 0.  1.
         13    1    4    4    0    0  0.42409995234E+02  0.51165284821E+02 -0.30634887819E+02  0.73177800037E+02  0.00000000000E+00 0. -1.
         21    1    1    2  503  502  0.16152473325E+02  0.13506489754E+02  0.85030152419E+02  0.87598256149E+02  0.00000000000E+00 0.  1.
          3    1    1    2  501    0 -0.83542521797E+02 -0.75349436692E+02 -0.35788478965E+03  0.37515118715E+03  0.00000000000E+00 0. -1.
<scales pt_clust_5="13000.00000" pt_clust_6="13000.00000" pt_clust_7="13000.00000" pt_clust_8="13000.00000" pt_clust_9="21.05535" pt_clust_10="13000.00000"></scales>
<clustering>
<clus scale="   21.055">  1  9  2 -1</clus>
<clus scale="   74.734">  5  6 -1 -1</clus>
<clus scale="   76.593">  2  5  1 -1</clus>
<clus scale="   90.994">  7  8 -1 -1</clus>
<clus scale="  105.705">  7 10 -1 -1</clus>
<clus scale="   21.055">  1  5  2 -1</clus>
</clustering>
</event>
<event>
10    4  0.2565852E-005  0.2358696E+03  0.7546771E-02  0.1165990E+00
          2   -1    0    0  503    0 -0.00000000000E+00  0.00000000000E+00  0.25879437475E+03  0.25879437475E+03  0.00000000000E+00 0. -1.
         21   -1    0    0  501  502  0.00000000000E+00 -0.00000000000E+00 -0.45952525599E+03  0.45952525599E+03  0.00000000000E+00 0. -1.
         24    2    1    2    0    0  0.14984358343E+01 -0.37157834821E+02 -0.23563032180E+03  0.25204526412E+03  0.81377002985E+02 0.  0.
         23    2    1    2    0    0  0.99858409015E+02 -0.29797958751E+02  0.13949486043E+03  0.18919296595E+03  0.73996905874E+02 0.  0.
        -13    1    3    3    0    0 -0.16485737519E+02 -0.45791633666E+02 -0.70224814846E+02  0.85441078384E+02  0.00000000000E+00 0.  1.
         14    1    3    3    0    0  0.17984173353E+02  0.86337988446E+01 -0.16540550695E+03  0.16660418573E+03  0.00000000000E+00 0. -1.
        -13    1    4    4    0    0  0.79951576554E+02 -0.41668977346E+02  0.13940037940E+03  0.16601513197E+03  0.00000000000E+00 0. -1.
         13    1    4    4    0    0  0.19906832461E+02  0.11871018595E+02  0.94481034771E-01  0.23177833975E+02  0.00000000000E+00 0.  1.
         21    1    1    2  503  502 -0.83256732654E+01  0.24149946047E+02 -0.15905579796E+03  0.16109402098E+03  0.00000000000E+00 0. -1.
          1    1    1    2  501    0 -0.93031171584E+02  0.42805847525E+02  0.54460378091E+02  0.11598737970E+03  0.00000000000E+00 0. -1.
<scales pt_clust_5="13000.00000" pt_clust_6="13000.00000" pt_clust_7="13000.00000" pt_clust_8="13000.00000" pt_clust_9="25.54480" pt_clust_10="13000.00000"></scales>
<clustering>
<clus scale="   25.545">  2  9  1 -1</clus>
<clus scale="   73.997">  7  8 -1 -1</clus>
<clus scale="   81.377">  5  6 -1 -1</clus>
<clus scale="   83.403">  1  5  2 -1</clus>
<clus scale="  103.430">  7 10 -1 -1</clus>
<clus scale="   25.545">  2  5  1 -1</clus>
</clustering>
</event>
<event>
10    4  0.2565852E-005  0.2936371E+03  0.7546771E-02  0.1129487E+00
         21   -1    0    0  503  502  0.00000000000E+00  0.00000000000E+00  0.10746936544E+03  0.10746936544E+03  0.00000000000E+00 0. -1.
          2   -1    0    0  502    0 -0.00000000000E+00 -0.00000000000E+00 -0.94068082939E+03  0.94068082939E+03  0.00000000000E+00 0. -1.
         24    2    1    2    0    0  0.54375008062E+02  0.31565555572E+02 -0.58453575871E+03  0.59371681679E+03  0.82852758105E+02 0.  0.
         23    2    1    2    0    0 -0.11584348485E+03  0.44571321601E+02 -0.24575771831E+03  0.29004499647E+03  0.91230083737E+02 0.  0.
        -11    1    3    3    0    0 -0.18959711240E+02  0.22582702421E+02 -0.13857731842E+03  0.14167964667E+03  0.00000000000E+00 0.  1.
         12    1    3    3    0    0  0.73334719301E+02  0.89828531504E+01 -0.44595844029E+03  0.45203717012E+03  0.00000000000E+00 0. -1.
        -13    1    4    4    0    0  0.42393779237E+01  0.25465044347E+02 -0.16794038359E+02  0.30797411144E+02  0.00000000000E+00 0.  1.
         13    1    4    4    0    0 -0.12008286277E+03  0.19106277254E+02 -0.22896367995E+03  0.25924758533E+03  0.00000000000E+00 0. -1.
         21    1    1    2  503  501 -0.23548672221E+02 -0.50477494244E+01  0.39055179284E+02  0.45883839928E+02  0.00000000000E+00 0. -1.
          1    1    1    2  501    0  0.85017149005E+02 -0.71089127748E+02 -0.41973166205E+02  0.11850454164E+03  0.00000000000E+00 0. -1.
<scales pt_clust_5="13000.00000" pt_clust_6="13000.00000" pt_clust_7="13000.00000" pt_clust_8="13000.00000" pt_clust_9="24.08360" pt_clust_10="13000.00000"></scales>
<clustering>
<clus scale="   24.084">  1  9  2 -1</clus>
<clus scale="   82.853">  5  6 -1 -1</clus>
<clus scale="   91.230">  7  8 -1 -1</clus>
<clus scale="  102.703">  7 10 -1 -1</clus>
<clus scale="  103.039">  2  5  1 -1</clus>
<clus scale="   24.084">  1  5  2 -1</clus>
</clustering>
</event>
<event>
10    4  0.2565852E-005  0.3277834E+03  0.7546771E-02  0.1113705E+00
         21   -1    0    0  501  502  0.00000000000E+00  0.00000000000E+00  0.20912800386E+03  0.20912800386E+03  0.00000000000E+00 0.  1.
          4   -1    0    0  503    0 -0.00000000000E+00 -0.00000000000E+00 -0.44587816257E+03  0.44587816257E+03  0.00000000000E+00 0. -1.
         24    2    1    2    0    0  0.56128345782E+02  0.29730033294E+02 -0.16807336465E+03  0.19814988250E+03  0.83549111021E+02 0.  0.
         23    2    1    2    0    0  0.56228555726E+02  0.56381046039E+02  0.64888571463E+01  0.12545574446E+03  0.96729342600E+02 0.  0.
        -13    1    3    3    0    0  0.45502977237E+02 -0.10927378373E+02 -0.34547631639E+02  0.58167580210E+02  0.00000000000E+00 0.  1.
         14    1    3    3    0    0  0.10625368545E+02  0.40657411666E+02 -0.13352573301E+03  0.13998230230E+03  0.00000000000E+00 0. -1.
        -11    1    4    4    0    0  0.74398641135E+02  0.14006903750E+02  0.18248802468E+02  0.77874064662E+02  0.00000000000E+00 0. -1.
         11    1    4    4    0    0 -0.18170085410E+02  0.42374142289E+02 -0.11759945322E+02  0.47581679799E+02  0.00000000000E+00 0.  1.
         21    1    1    2  503  502  0.95133701875E+02  0.68757510490E+01 -0.23277492904E+02  0.98181153287E+02  0.00000000000E+00 0.  1.
          3    1    1    2  501    0 -0.20749060338E+03 -0.92986830382E+02 -0.51888158301E+02  0.23321938618E+03  0.00000000000E+00 0. -1.
<scales pt_clust_5="13000.00000" pt_clust_6="13000.00000" pt_clust_7="13000.00000" pt_clust_8="13000.00000" pt_clust_9="95.38185" pt_clust_10="13000.00000"></scales>
<clustering>
<clus scale="   83.549">  5  6 -1 -1</clus>
<clus scale="   95.382">  1  9  2 -1</clus>
<clus scale="   96.729">  7  8 -1 -1</clus>
<clus scale="  109.799">  2  5  1 -1</clus>
<clus scale="  145.255">  7 10 -1 -1</clus>
<clus scale="   95.382">  1  5  2 -1</clus>
</clustering>
</event>
<event>
10    4  0.3698604E-005  0.7600052E+03  0.7546771E-02  0.9769602E-01
         21   -1    0    0  503  502  0.00000000000E+00  0.00000000000E+00  0.83485559516E+03  0.83485559516E+03  0.00000000000E+00 0. -1.
          2   -1    0    0  502    0 -0.00000000000E+00 -0.00000000000E+00 -0.10715332828E+04  0.10715332828E+04  0.00000000000E+00 0. -1.
         24    2    1    2    0    0  0.21585026955E+03  0.29460755835E+03  0.79156164870E+02  0.38081020830E+03  0.73251375485E+02 0.  0.
         23    2    1    2    0    0  0.11287387892E+02  0.12061476696E+03 -0.14848728231E+02  0.15255983176E+03  0.91535186691E+02 0.  0.
        -11    1    3    3    0    0  0.12813875300E+03  0.21006077084E+03  0.24467738638E+02  0.24727259795E+03  0.00000000000E+00 0.  1.
         12    1    3    3    0    0  0.87711516553E+02  0.84546787510E+02  0.54688426231E+02  0.13353761035E+03  0.00000000000E+00 0. -1.
        -13    1    4    4    0    0  0.18833087434E+02 -0.72582525298E+01 -0.13817930285E+02  0.24460225049E+02  0.00000000000E+00 0. -1.
         13    1    4    4    0    0 -0.75456995419E+01  0.12787301949E+03 -0.10307979457E+01  0.12809960671E+03  0.00000000000E+00 0.  1.
         21    1    1    2  503  501  0.26128615230E+03 -0.31026664691E+02  0.37287603655E+03  0.45636569321E+03  0.00000000000E+00 0. -1.
          1    1    1    2  501    0 -0.48842380974E+03 -0.38419566062E+03 -0.67386116079E+03  0.91665314464E+03  0.00000000000E+00 0. -1.
<scales pt_clust_5="13000.00000" pt_clust_6="13000.00000" pt_clust_7="13000.00000" pt_clust_8="13000.00000" pt_clust_9="263.12185" pt_clust_10="13000.00000"></scales>
<clustering>
<clus scale="   73.251">  5  6 -1 -1</clus>
<clus scale="   91.535">  7  8 -1 -1</clus>
<clus scale="  263.122">  1  9  2 -1</clus>
<clus scale="  459.579">  2  5  1 -1</clus>
<clus scale="  187.294">  7 10 -1 -1</clus>
<clus scale="  263.122">  1  5  2 -1</clus>
</clustering>
</event>
<event>
10    4  0.2565852E-005  0.2351579E+03  0.7546771E-02  0.1159873E+00
          2   -1    0    0  502    0 -0.00000000000E+00  0.00000000000E+00  0.42918552795E+03  0.42918552795E+03  0.00000000000E+00 0. -1.
         21   -1    0    0  503  502  0.00000000000E+00 -0.00000000000E+00 -0.12068129047E+03  0.12068129047E+03  0.00000000000E+00 0. -1.
         24    2    1    2    0    0  0.15664407775E+02  0.76519484323E+02  0.61880923447E+02  0.12807209231E+03  0.80452513883E+02 0.  0.
         23    2    1    2    0    0 -0.84753758257E+01  0.80233005027E+02  0.19413325651E+03  0.22963089491E+03  0.92376726099E+02 0.  0.
        -13    1    3    3    0    0 -0.25828738352E+02  0.26660954911E+02 -0.18106394253E+01  0.37164615655E+02  0.00000000000E+00 0.  1.
         14    1    3    3    0    0  0.41493146128E+02  0.49858529412E+02  0.63691562872E+02  0.90907476655E+02  0.00000000000E+00 0. -1.
        -13    1    4    4    0    0  0.38088111309E+02  0.29242504537E+02  0.11490001752E+03  0.12453048752E+03  0.00000000000E+00 0.  1.
         13    1    4    4    0    0 -0.46563487135E+02  0.50990500490E+02  0.79233238985E+02  0.10510040739E+03  0.00000000000E+00 0. -1.
         21    1    1    2  503  501  0.18516925528E+01 -0.56539630889E+02 -0.28178540090E+02  0.63199594524E+02  0.00000000000E+00 0. -1.
          1    1    1    2  501    0 -0.90407245022E+01 -0.10021285846E+03  0.80668597607E+02  0.12896423667E+03  0.00000000000E+00 0. -1.
<scales pt_clust_5="13000.00000" pt_clust_6="13000.00000" pt_clust_7="13000.00000" pt_clust_8="13000.00000" pt_clust_9="56.56994" pt_clust_10="13000.00000"></scales>
<clustering>
<clus scale="   56.570">  2  9  1 -1</clus>
<clus scale="   80.453">  5  6 -1 -1</clus>
<clus scale="   92.377">  7  8 -1 -1</clus>
<clus scale="   96.971">  1  5  2 -1</clus>
<clus scale="   95.710">  7 10 -1 -1</clus>
<clus scale="   56.570">  2  5  1 -1</clus>
</clustering>
</event>
<event>
10    4  0.2565852E-005  0.7211579E+03  0.7546771E-02  0.1037326E+00
          2   -1    0    0  502    0 -0.00000000000E+00  0.00000000000E+00  0.67995159018E+03  0.67995159018E+03  0.00000000000E+00 0. -1.
         21   -1    0    0  503  502  0.00000000000E+00 -0.00000000000E+00 -0.63299543163E+03  0.63299543163E+03  0.00000000000E+00 0. -1.
         24    2    1    2    0    0  0.11276566840E+02  0.71116081759E+01  0.22716047943E+02  0.84943382342E+02  0.80756569014E+02 0.  0.
         23    2    1    2    0    0 -0.10221434223E+03  0.20517378808E+03 -0.11667546790E+03  0.28521674514E+03  0.12325328323E+03 0.  0.
        -13    1    3    3    0    0  0.40745034821E+01 -0.35449176951E+02  0.21705502649E+02  0.41765710461E+02  0.00000000000E+00 0.  1.
         14    1    3    3    0    0  0.72020633575E+01  0.42560785127E+02  0.10105452941E+01  0.43177671880E+02  0.00000000000E+00 0. -1.
        -11    1    4    4    0    0  0.22218736264E+02  0.20812506542E+02  0.62578241878E+01  0.31080428461E+02  0.00000000000E+00 0.  1.
         11    1    4    4    0    0 -0.12443307849E+03  0.18436128154E+03 -0.12293329208E+03  0.25413631668E+03  0.00000000000E+00 0. -1.
         21    1    1    2  503  501  0.36256802824E+02 -0.71742622647E+02 -0.38622386055E+03  0.39450022828E+03  0.00000000000E+00 0. -1.
          1    1    1    2  501    0  0.54680972562E+02 -0.14054277361E+03  0.52713943905E+03  0.54828666605E+03  0.00000000000E+00 0. -1.
<scales pt_clust_5="13000.00000" pt_clust_6="13000.00000" pt_clust_7="13000.00000" pt_clust_8="13000.00000" pt_clust_9="80.38383" pt_clust_10="13000.00000"></scales>
<clustering>
<clus scale="   80.384">  2  9  1 -1</clus>
<clus scale="   80.757">  5  6 -1 -1</clus>
<clus scale="   82.338">  1  5  2 -1</clus>
<clus scale="  123.253">  7  8 -1 -1</clus>
<clus scale="  161.789">  7 10 -1 -1</clus>
<clus scale="   80.384">  2  5  1 -1</clus>
</clustering>
</event>
<event>
10    4  0.2565852E-005  0.5018810E+03  0.7546771E-02  0.1045652E+00
          2   -1    0    0  502    0 -0.00000000000E+00  0.00000000000E+00  0.62859556738E+03  0.62859556738E+03  0.00000000000E+00 0. -1.
         21   -1    0    0  503  502  0.00000000000E+00 -0.00000000000E+00 -0.66124611468E+03  0.66124611468E+03  0.00000000000E+00 0. -1.
         24    2    1    2    0    0  0.12287069451E+03 -0.64581573811E+02  0.20021644626E+02  0.16165753999E+03  0.80400912538E+02 0.  0.
         23    2    1    2    0    0 -0.25315307530E+03 -0.17803904030E+03  0.26121021663E+03  0.41517570516E+03  0.91409569976E+02 0.  0.
        -13    1    3    3    0    0  0.96192428597E+02 -0.42578162389E+02  0.49460875195E+02  0.11624225311E+03  0.00000000000E+00 0.  1.
         14    1    3    3    0    0  0.26678265909E+02 -0.22003411422E+02 -0.29439230569E+02  0.45415286883E+02  0.00000000000E+00 0. -1.
        -11    1    4    4    0    0 -0.63622681674E+02 -0.59864176757E+02  0.26763413180E+02  0.91366545120E+02  0.00000000000E+00 0.  1.
         11    1    4    4    0    0 -0.18953039362E+03 -0.11817486354E+03  0.23444680345E+03  0.32380916004E+03  0.00000000000E+00 0. -1.
         21    1    1    2  503  501  0.12483874839E+03  0.33862558440E+02 -0.44701387679E+03  0.46535233104E+03  0.00000000000E+00 0. -1.
          1    1    1    2  501    0  0.54436323999E+01  0.20875805567E+03  0.13313146824E+03  0.24765610587E+03  0.00000000000E+00 0. -1.
<scales pt_clust_5="13000.00000" pt_clust_6="13000.00000" pt_clust_7="13000.00000" pt_clust_8="13000.00000" pt_clust_9="129.34986" pt_clust_10="13000.00000"></scales>
<clustering>
<clus scale="   80.401">  5  6 -1 -1</clus>
<clus scale="   91.410">  7  8 -1 -1</clus>
<clus scale="  129.350">  2  9  1 -1</clus>
<clus scale="  191.864">  1  5  2 -1</clus>
<clus scale="  226.268">  7 10 -1 -1</clus>
<clus scale="  129.350">  2  5  1 -1</clus>
</clustering>
</event>
<event>
10    4  0.2565852E-005  0.2597629E+03  0.7546771E-02  0.1147873E+00
         21   -1    0    0  503  502  0.00000000000E+00  0.00000000000E+00  0.26484910681E+03  0.26484910681E+03  0.00000000000E+00 0.  1.
         -3   -1    0    0    0  501 -0.00000000000E+00 -0.00000000000E+00 -0.26230233841E+03  0.26230233841E+03  0.00000000000E+00 0.  1.
         24    2    1    2    0    0 -0.45857882483E+01 -0.51770365526E+02 -0.50522223580E+02  0.10796799284E+03  0.80021198448E+02 0.  0.
         23    2    1    2    0    0  0.13306663160E+02  0.85269875066E+02  0.61403192585E+02  0.13915876790E+03  0.90259579800E+02 0.  0.
        -13    1    3    3    0    0 -0.36199760304E+02 -0.13914838402E+02 -0.43288617163E+02  0.58120132052E+02  0.00000000000E+00 0.  1.
         14    1    3    3    0    0  0.31613972056E+02 -0.37855527124E+02 -0.72336064171E+01  0.49847860785E+02  0.00000000000E+00 0. -1.
        -13    1    4    4    0    0 -0.10720249158E+02  0.95286673296E+02  0.59951661256E+02  0.11308702639E+03  0.00000000000E+00 0.  1.
         13    1    4    4    0    0  0.24026912317E+02 -0.10016798230E+02  0.14515313282E+01  0.26071741512E+02  0.00000000000E+00 0. -1.
         21    1    1    2  503  501 -0.14230875569E+03 -0.30666895285E+02  0.55927114212E+01  0.14568293940E+03  0.00000000000E+00 0. -1.
         -4    1    1    2    0  502  0.13358788078E+03 -0.28326142542E+01 -0.13926912026E+02  0.13434174508E+03  0.00000000000E+00 0.  1.
<scales pt_clust_5="13000.00000" pt_clust_6="13000.00000" pt_clust_7="13000.00000" pt_clust_8="13000.00000" pt_clust_9="152.65047" pt_clust_10="13000.00000"></scales>
<clustering>
<clus scale="   80.021">  5  6 -1 -1</clus>
<clus scale="   90.260">  7  8 -1 -1</clus>
<clus scale="   95.418">  2  5  1 -1</clus>
<clus scale="  133.863">  7 10 -1 -1</clus>
<clus scale="  152.650">  1  9  2 -1</clus>
<clus scale="  152.650">  1  5  2 -1</clus>
</clustering>
</event>
<event>
10    4  0.2565852E-005  0.3098030E+03  0.7546771E-02  0.1121955E+00
         21   -1    0    0  503  502  0.00000000000E+00  0.00000000000E+00  0.83419535852E+02  0.83419535852E+02  0.00000000000E+00 0. -1.
          2   -1    0    0  502    0 -0.00000000000E+00 -0.00000000000E+00 -0.26948160143E+04  0.26948160143E+04  0.00000000000E+00 0. -1.
         24    2    1    2    0    0 -0.92289323524E+01 -0.69566370535E+02 -0.71562051149E+03  0.72350568907E+03  0.80144323237E+02 0.  0.
         23    2    1    2    0    0  0.99758447819E+01 -0.11196588493E+03 -0.82531614090E+03  0.83698295176E+03  0.82206157001E+02 0.  0.
        -13    1    3    3    0    0 -0.22621771439E+02  0.49601166508E+01 -0.76874948157E+02  0.80287638864E+02  0.00000000000E+00 0.  1.
         14    1    3    3    0    0  0.13392839086E+02 -0.74526487186E+02 -0.63874556333E+03  0.64321805020E+03  0.00000000000E+00 0. -1.
        -11    1    4    4    0    0  0.37814587036E+02 -0.19224873552E+02 -0.24656007038E+03  0.25018274733E+03  0.00000000000E+00 0.  1.
         11    1    4    4    0    0 -0.27838742255E+02 -0.92741011379E+02 -0.57875607052E+03  0.58680020443E+03  0.00000000000E+00 0. -1.
         21    1    1    2  503  501 -0.46768813802E+02  0.15534602030E+02  0.58060368412E+02  0.76155447506E+02  0.00000000000E+00 0. -1.
          1    1    1    2  501    0  0.46021901372E+02  0.16599765344E+03 -0.11285201944E+04  0.11415914618E+04  0.00000000000E+00 0. -1.
<scales pt_clust_5="13000.00000" pt_clust_6="13000.00000" pt_clust_7="13000.00000" pt_clust_8="13000.00000" pt_clust_9="49.28129" pt_clust_10="13000.00000"></scales>
<clustering>
<clus scale="   49.281">  1  9  2 -1</clus>
<clus scale="   80.144">  5  6 -1 -1</clus>
<clus scale="   82.206">  7  8 -1 -1</clus>
<clus scale="  105.716">  2  5  1 -1</clus>
<clus scale="  133.916">  7 10 -1 -1</clus>
<clus scale="   49.281">  1  5  2 -1</clus>
</clustering>
</event>
<event>
10    4  0.2565852E-005  0.9029100E+03  0.7546771E-02  0.9439333E-01
          2   -1    0    0  503    0 -0.00000000000E+00  0.00000000000E+00  0.12545237567E+04  0.12545237567E+04  0.00000000000E+00 0. -1.
         21   -1    0    0  501  502  0.00000000000E+00 -0.00000000000E+00 -0.12062651721E+04  0.12062651721E+04  0.00000000000E+00 0. -1.
         24    2    1    2    0    0  0.84376365150E+03  0.24688777568E+03  0.74411740146E+03  0.11546025067E+04  0.80657100961E+02 0.  0.
         23    2    1    2    0    0 -0.44415141552E+02 -0.10922454899E+02  0.73595602816E+01  0.10134498143E+03  0.90136770043E+02 0.  0.
        -11    1    3    3    0    0  0.66305705321E+02  0.88755307614E+01  0.83436040960E+02  0.10694294991E+03  0.00000000000E+00 0.  1.
         12    1    3    3    0    0  0.77745794618E+03  0.23801224492E+03  0.66068136050E+03  0.10476595568E+04  0.00000000000E+00 0. -1.
        -13    1    4    4    0    0 -0.63463481068E+02 -0.25890127947E+02  0.23245029878E+02  0.72375711177E+02  0.00000000000E+00 0.  1.
         13    1    4    4    0    0  0.19048339516E+02  0.14967673048E+02 -0.15885469596E+02  0.28969270255E+02  0.00000000000E+00 0. -1.
         21    1    1    2  503  502 -0.12502465141E+03 -0.27490000115E+02 -0.42889516795E+03  0.44759125176E+03  0.00000000000E+00 0. -1.
          1    1    1    2  501    0 -0.67432385855E+03 -0.20847532067E+03 -0.27432320911E+03  0.75725018890E+03  0.00000000000E+00 0. -1.
<scales pt_clust_5="13000.00000" pt_clust_6="13000.00000" pt_clust_7="13000.00000" pt_clust_8="13000.00000" pt_clust_9="128.01119" pt_clust_10="13000.00000"></scales>
<clustering>
<clus scale="   80.657">  5  6 -1 -1</clus>
<clus scale="   90.137">  7  8 -1 -1</clus>
<clus scale="  128.011">  2  9  1 -1</clus>
<clus scale="  791.518">  7 10 -1 -1</clus>
<clus scale="  848.856">  1  5  2 -1</clus>
<clus scale="  128.011">  2  5  1 -1</clus>
</clustering>
</event>
<event>
10    4  0.2565852E-005  0.5254486E+03  0.7546771E-02  0.1028158E+00
          2   -1    0    0  502    0 -0.00000000000E+00  0.00000000000E+00  0.10532615187E+04  0.10532615187E+04  0.00000000000E+00 0. -1.
         21   -1    0    0  503  502  0.00000000000E+00 -0.00000000000E+00 -0.18331118608E+03  0.18331118608E+03  0.00000000000E+00 0. -1.
         24    2    1    2    0    0  0.11903749373E+03  0.22163272176E+03  0.29609317514E+03  0.39690820067E+03  0.81079979799E+02 0.  0.
         23    2    1    2    0    0  0.24451626333E+02  0.48887954589E+02 -0.75467442033E+01  0.10877423926E+03  0.93738826766E+02 0.  0.
        -13    1    3    3    0    0  0.46088094024E+02  0.34449709860E+02  0.10452328947E+03  0.11931476422E+03  0.00000000000E+00 0.  1.
         14    1    3    3    0    0  0.72949399709E+02  0.18718301190E+03  0.19156988568E+03  0.27759343645E+03  0.00000000000E+00 0. -1.
        -13    1    4    4    0    0 -0.18768978787E+02  0.60655495009E+02 -0.78718495363E+01  0.63979134525E+02  0.00000000000E+00 0.  1.
         13    1    4    4    0    0  0.43220605119E+02 -0.11767540420E+02  0.32510533299E+00  0.44795104731E+02  0.00000000000E+00 0. -1.
         21    1    1    2  503  501  0.22618185280E+02  0.42683688075E+02 -0.18492384464E+01  0.48341485454E+02  0.00000000000E+00 0. -1.
          1    1    1    2  501    0 -0.16610730535E+03 -0.31320436442E+03  0.58325314012E+03  0.68254877938E+03  0.00000000000E+00 0. -1.
<scales pt_clust_5="13000.00000" pt_clust_6="13000.00000" pt_clust_7="13000.00000" pt_clust_8="13000.00000" pt_clust_9="48.30610" pt_clust_10="13000.00000"></scales>
<clustering>
<clus scale="   48.306">  2  9  1 -1</clus>
<clus scale="   81.080">  5  6 -1 -1</clus>
<clus scale="   93.739">  7  8 -1 -1</clus>
<clus scale="  279.008">  1  5  2 -1</clus>
<clus scale="  102.312">  7 10 -1 -1</clus>
<clus scale="   48.306">  2  5  1 -1</clus>
</clustering>
</event>
<event>
10    4  0.2565852E-005  0.1206728E+03  0.7546771E-02  0.1259409E+00
         21   -1    0    0  503  502  0.00000000000E+00  0.00000000000E+00  0.43768775371E+03  0.43768775371E+03  0.00000000000E+00 0.  1.
          2   -1    0    0  502    0 -0.00000000000E+00 -0.00000000000E+00 -0.11886142372E+03  0.11886142372E+03  0.00000000000E+00 0. -1.
         24    2    1    2    0    0  0.30360168692E+02 -0.12680607249E+02 -0.74685168789E+02  0.11445762518E+03  0.80250457203E+02 0.  0.
         23    2    1    2    0    0  0.14384412891E+02 -0.27356090885E+02  0.10880933260E+03  0.14627439502E+03  0.92744060377E+02 0.  0.
        -13    1    3    3    0    0 -0.19219314105E+02  0.19339779439E+02 -0.18339948990E+02  0.32859744862E+02  0.00000000000E+00 0.  1.
         14    1    3    3    0    0  0.49579482798E+02 -0.32020386687E+02 -0.56345219799E+02  0.81597880317E+02  0.00000000000E+00 0. -1.
        -13    1    4    4    0    0 -0.38582350121E+02 -0.13554249910E+01  0.47004508811E+02  0.60826464358E+02  0.00000000000E+00 0. -1.
         13    1    4    4    0    0  0.52966763013E+02 -0.26000665895E+02  0.61804823786E+02  0.85447930661E+02  0.00000000000E+00 0.  1.
         21    1    1    2  503  501 -0.28020013746E+02  0.28215892812E+02  0.26295378959E+03  0.26594351512E+03  0.00000000000E+00 0. -1.
          1    1    1    2  501    0 -0.16724567837E+02  0.11820805322E+02  0.21748376596E+02  0.29873642100E+02  0.00000000000E+00 0. -1.
<scales pt_clust_5="13000.00000" pt_clust_6="13000.00000" pt_clust_7="13000.00000" pt_clust_8="13000.00000" pt_clust_9="39.76503" pt_clust_10="13000.00000"></scales>
<clustering>
<clus scale="   39.765">  1  9  2 -1</clus>
<clus scale="   80.250">  5  6 -1 -1</clus>
<clus scale="   85.241">  2  5  1 -1</clus>
<clus scale="   92.744">  7  8 -1 -1</clus>
<clus scale="   19.350">  7 10 -1 -1</clus>
<clus scale="   39.765">  1  5  2 -1</clus>
</clustering>
</event>
<event>
10    4  0.4386838E-005  0.2511654E+03  0.7546771E-02  0.1149104E+00
         21   -1    0    0  503  502  0.00000000000E+00  0.00000000000E+00  0.60677523434E+03  0.60677523434E+03  0.00000000000E+00 0.  1.
          2   -1    0    0  502    0 -0.00000000000E+00 -0.00000000000E+00 -0.84664387036E+03  0.84664387036E+03  0.00000000000E+00 0. -1.
         24    2    1    2    0    0 -0.43822886279E+02 -0.15136845871E+02 -0.23847041208E+03  0.25668719334E+03  0.82889132713E+02 0.  0.
         23    2    1    2    0    0  0.86299749311E+01  0.86345033561E+02 -0.32676627420E+03  0.35030545376E+03  0.91693902158E+02 0.  0.
        -11    1    3    3    0    0  0.17960693604E+02 -0.18155339550E+02 -0.12369909600E+03  0.12630783515E+03  0.00000000000E+00 0.  1.
         12    1    3    3    0    0 -0.61783579883E+02  0.30184936789E+01 -0.11477131608E+03  0.13037935819E+03  0.00000000000E+00 0. -1.
        -13    1    4    4    0    0  0.32708187510E+02  0.86504425803E+02 -0.30166352472E+03  0.31552135167E+03  0.00000000000E+00 0.  1.
         13    1    4    4    0    0 -0.24078212579E+02 -0.15939224249E+00 -0.25102749484E+02  0.34784102095E+02  0.00000000000E+00 0. -1.
         21    1    1    2  503  501 -0.67117461099E+02  0.20662543869E+02  0.56542904802E+03  0.56977337833E+03  0.00000000000E+00 0.  1.
          1    1    1    2  501    0  0.10231037245E+03 -0.91870731560E+02 -0.24006099776E+03  0.27665307927E+03  0.00000000000E+00 0. -1.
<scales pt_clust_5="13000.00000" pt_clust_6="13000.00000" pt_clust_7="13000.00000" pt_clust_8="13000.00000" pt_clust_9="70.22602" pt_clust_10="13000.00000"></scales>
<clustering>
<clus scale="   70.226">  1  9  2 -1</clus>
<clus scale="   82.889">  5  6 -1 -1</clus>
<clus scale="   91.694">  7  8 -1 -1</clus>
<clus scale="  102.514">  2  5  1 -1</clus>
<clus scale="  100.104">  7 10 -1 -1</clus>
<clus scale="   70.226">  1  5  2 -1</clus>
</clustering>
</event>
<event>
10    4  0.2565852E-005  0.1365416E+03  0.7546771E-02  0.1228706E+00
          2   -1    0    0  502    0 -0.00000000000E+00  0.00000000000E+00  0.95039170958E+02  0.95039170958E+02  0.00000000000E+00 0. -1.
         21   -1    0    0  503  502  0.00000000000E+00 -0.00000000000E+00 -0.35438497817E+03  0.35438497817E+03  0.00000000000E+00 0.  1.
         24    2    1    2    0    0  0.69483060465E+02  0.62433544845E+02 -0.15701616622E+03  0.20037686100E+03  0.82285884318E+02 0.  0.
         23    2    1    2    0    0 -0.30511052708E+02 -0.34998700557E+02  0.24741823052E+02  0.10482096994E+03  0.90661152389E+02 0.  0.
        -13    1    3    3    0    0  0.55706344772E+02  0.26094155072E+02 -0.14829442764E+03  0.16054699949E+03  0.00000000000E+00 0.  1.
         14    1    3    3    0    0  0.13776715693E+02  0.36339389773E+02 -0.87217385814E+01  0.39829861514E+02  0.00000000000E+00 0. -1.
        -13    1    4    4    0    0 -0.19553397965E+02  0.20340391537E+02 -0.18501901385E+02  0.33739994884E+02  0.00000000000E+00 0.  1.
         13    1    4    4    0    0 -0.10957654742E+02 -0.55339092094E+02  0.43243724438E+02  0.71080975053E+02  0.00000000000E+00 0. -1.
         21    1    1    2  503  501 -0.15165013335E+02 -0.27082979366E+02 -0.11158887942E+03  0.11582548688E+03  0.00000000000E+00 0.  1.
          1    1    1    2  501    0 -0.23806994422E+02 -0.35186492176E+00 -0.15482584626E+02  0.28400831309E+02  0.00000000000E+00 0. -1.
<scales pt_clust_5="13000.00000" pt_clust_6="13000.00000" pt_clust_7="13000.00000" pt_clust_8="13000.00000" pt_clust_9="31.03974" pt_clust_10="13000.00000"></scales>
<clustering>
<clus scale="   31.040">  2  9  1 -1</clus>
<clus scale="   82.286">  5  6 -1 -1</clus>
<clus scale="   90.661">  7  8 -1 -1</clus>
<clus scale="   25.347">  7 10 -1 -1</clus>
<clus scale="  109.327">  1  5  2 -1</clus>
<clus scale="   31.040">  2  5  1 -1</clus>
</clustering>
</event>
<event>
10    4  0.2565852E-005  0.1297709E+03  0.7546771E-02  0.1249502E+00
          4   -1    0    0  503    0 -0.00000000000E+00  0.00000000000E+00  0.38926359158E+03  0.38926359158E+03  0.00000000000E+00 0. -1.
         21   -1    0    0  501  502  0.00000000000E+00 -0.00000000000E+00 -0.87550420675E+02  0.87550420675E+02  0.00000000000E+00 0. -1.
         24    2    1    2    0    0 -0.28242880581E+02  0.30373310620E+02  0.14498069359E+03  0.17075633029E+03  0.80113198161E+02 0.  0.
         23    2    1    2    0    0 -0.16403064157E+02  0.56314347978E+02  0.14657903226E+03  0.18155835574E+03  0.89652984005E+02 0.  0.
        -11    1    3    3    0    0  0.19697835239E+02  0.80972210758E+01  0.60979413854E+01  0.22152981546E+02  0.00000000000E+00 0.  1.
         12    1    3    3    0    0 -0.47940715819E+02  0.22276089544E+02  0.13888275221E+03  0.14860334875E+03  0.00000000000E+00 0. -1.
        -11    1    4    4    0    0 -0.31038154543E+02  0.40911999403E+02  0.15131380902E+03  0.15979057397E+03  0.00000000000E+00 0.  1.
         11    1    4    4    0    0  0.14635090386E+02  0.15402348575E+02 -0.47347767566E+01  0.21767781770E+02  0.00000000000E+00 0. -1.
         21    1    1    2  503  502  0.14726716364E+02 -0.83654409018E+02 -0.13797951208E+02  0.86054167711E+02  0.00000000000E+00 0. -1.
          3    1    1    2  501    0  0.29919228374E+02 -0.30332495806E+01  0.23951396262E+02  0.38445158504E+02  0.00000000000E+00 0. -1.
<scales pt_clust_5="13000.00000" pt_clust_6="13000.00000" pt_clust_7="13000.00000" pt_clust_8="13000.00000" pt_clust_9="84.94078" pt_clust_10="13000.00000"></scales>
<clustering>
<clus scale="   80.113">  5  6 -1 -1</clus>
<clus scale="   84.941">  2  9  1 -1</clus>
<clus scale="   83.422">  1  5  2 -1</clus>
<clus scale="   89.653">  7  8 -1 -1</clus>
<clus scale="   32.260">  7 10 -1 -1</clus>
<clus scale="   84.941">  2  5  1 -1</clus>
</clustering>
</event>
<event>
10    4  0.2565852E-005  0.1343020E+03  0.7546771E-02  0.1246209E+00
          2   -1    0    0  502    0 -0.00000000000E+00  0.00000000000E+00  0.50206792879E+03  0.50206792879E+03  0.00000000000E+00 0. -1.
         21   -1    0    0  503  502  0.00000000000E+00 -0.00000000000E+00 -0.21094678646E+03  0.21094678646E+03  0.00000000000E+00 0. -1.
         24    2    1    2    0    0  0.11809605209E+02 -0.10134335081E+02  0.42514549688E+03  0.43271101806E+03  0.79044039044E+02 0.  0.
         23    2    1    2    0    0 -0.38722706356E+00  0.37111687485E+02  0.23048632350E+02  0.10505579904E+03  0.95540850771E+02 0.  0.
        -13    1    3    3    0    0 -0.28897473940E+02 -0.24186776632E+01  0.80112407739E+02  0.85199248093E+02  0.00000000000E+00 0.  1.
         14    1    3    3    0    0  0.40707079149E+02 -0.77156574176E+01  0.34503308914E+03  0.34751176997E+03  0.00000000000E+00 0. -1.
        -13    1    4    4    0    0 -0.37109211790E+02 -0.45604087259E+01 -0.12132897078E+02  0.39307736120E+02  0.00000000000E+00 0.  1.
         13    1    4    4    0    0  0.36721984726E+02  0.41672096211E+02  0.35181529428E+02  0.65748062920E+02  0.00000000000E+00 0. -1.
         21    1    1    2  503  501 -0.24760798236E+02 -0.39736456612E+01 -0.14296171182E+03  0.14514454187E+03  0.00000000000E+00 0. -1.
          1    1    1    2  501    0  0.13338420090E+02 -0.23003706743E+02 -0.14111275093E+02  0.30103356277E+02  0.00000000000E+00 0. -1.
<scales pt_clust_5="13000.00000" pt_clust_6="13000.00000" pt_clust_7="13000.00000" pt_clust_8="13000.00000" pt_clust_9="25.07762" pt_clust_10="13000.00000"></scales>
<clustering>
<clus scale="   25.078">  2  9  1 -1</clus>
<clus scale="   79.044">  5  6 -1 -1</clus>
<clus scale="   80.397">  1  5  2 -1</clus>
<clus scale="   95.541">  7  8 -1 -1</clus>
<clus scale="   26.228">  7 10 -1 -1</clus>
<clus scale="   25.078">  2  5  1 -1</clus>
</clustering>
</event>
<event>
10    4  0.2565852E-005  0.2866858E+03  0.7546771E-02  0.1137799E+00
          2   -1    0    0  503    0 -0.00000000000E+00  0.00000000000E+00  0.60448629089E+03  0.60448629089E+03  0.00000000000E+00 0. -1.
         21   -1    0    0  501  502  0.00000000000E+00 -0.00000000000E+00 -0.15288002396E+03  0.15288002396E+03  0.00000000000E+00 0. -1.
         24    2    1    2    0    0  0.40187540704E+02 -0.26347822119E+02  0.10021285946E+03  0.13711476979E+03  0.80303155201E+02 0.  0.
         23    2    1    2    0    0 -0.88270684257E+02  0.44154832814E+02  0.80623064024E+02  0.15666573489E+03  0.91119213536E+02 0.  0.
        -13    1    3    3    0    0  0.62749293729E+02 -0.61518515486E+01  0.62888615090E+02  0.89052215295E+02  0.00000000000E+00 0.  1.
         14    1    3    3    0    0 -0.22561753025E+02 -0.20195970570E+02  0.37324244373E+02  0.48062554498E+02  0.00000000000E+00 0. -1.
        -11    1    4    4    0    0 -0.64579008850E+01 -0.19905676662E+02 -0.55758283584E+01  0.21657107589E+02  0.00000000000E+00 0.  1.
         11    1    4    4    0    0 -0.81812783372E+02  0.64060509477E+02  0.86198892382E+02  0.13500862730E+03  0.00000000000E+00 0. -1.
         21    1    1    2  503  502 -0.25854285609E+02  0.92665051045E+00 -0.90616667515E+02  0.94237376858E+02  0.00000000000E+00 0. -1.
          1    1    1    2  501    0  0.73937429162E+02 -0.18733661206E+02  0.36138701096E+03  0.36934843330E+03  0.00000000000E+00 0. -1.
<scales pt_clust_5="13000.00000" pt_clust_6="13000.00000" pt_clust_7="13000.00000" pt_clust_8="13000.00000" pt_clust_9="25.87089" pt_clust_10="13000.00000"></scales>
<clustering>
<clus scale="   25.871">  2  9  1 -1</clus>
<clus scale="   80.303">  5  6 -1 -1</clus>
<clus scale="   90.394">  1  5  2 -1</clus>
<clus scale="   91.119">  7  8 -1 -1</clus>
<clus scale="  102.220">  7 10 -1 -1</clus>
<clus scale="   25.871">  2  5  1 -1</clus>
</clustering>
</event>
<event>
10    4  0.2565852E-005  0.9218480E+03  0.7546771E-02  0.9922826E-01
         21   -1    0    0  503  502  0.00000000000E+00  0.00000000000E+00  0.77465010369E+03  0.77465010369E+03  0.00000000000E+00 0.  1.
          2   -1    0    0  502    0 -0.00000000000E+00 -0.00000000000E+00 -0.48413571398E+03  0.48413571398E+03  0.00000000000E+00 0. -1.
         24    2    1    2    0    0 -0.13611530682E+03  0.17321962276E+02 -0.18487433959E+02  0.16626254005E+03  0.92054439766E+02 0.  0.
         23    2    1    2    0    0 -0.41702854181E+03 -0.64316010272E+02  0.12490326495E+03  0.45019201677E+03  0.94987749243E+02 0.  0.
        -11    1    3    3    0    0  0.13770929099E+00  0.22520995699E+02 -0.19675026247E+02  0.29905198025E+02  0.00000000000E+00 0.  1.
         12    1    3    3    0    0 -0.13625301611E+03 -0.51990334221E+01  0.11875922875E+01  0.13635734202E+03  0.00000000000E+00 0. -1.
        -13    1    4    4    0    0 -0.38705054538E+03 -0.31991277365E+02  0.11446135533E+03  0.40488636476E+03  0.00000000000E+00 0.  1.
         13    1    4    4    0    0 -0.29977996439E+02 -0.32324732907E+02  0.10441909619E+02  0.45305652015E+02  0.00000000000E+00 0. -1.
         21    1    1    2  503  501  0.87919889834E+02 -0.85540084891E+02  0.83105024479E+02  0.14816699445E+03  0.00000000000E+00 0. -1.
          1    1    1    2  501    0  0.46522395880E+03  0.13253413289E+03  0.10099353424E+03  0.49416426639E+03  0.00000000000E+00 0. -1.
<scales pt_clust_5="13000.00000" pt_clust_6="13000.00000" pt_clust_7="13000.00000" pt_clust_8="13000.00000" pt_clust_9="122.66627" pt_clust_10="13000.00000"></scales>
<clustering>
<clus scale="   92.054">  5  6 -1 -1</clus>
<clus scale="   94.988">  7  8 -1 -1</clus>
<clus scale="  122.666">  1  9  2 -1</clus>
<clus scale="  156.444">  2  5  1 -1</clus>
<clus scale="  441.341">  7 10 -1 -1</clus>
<clus scale="  122.666">  1  5  2 -1</clus>
</clustering>
</event>
<event>
10    4  0.2565852E-005  0.2661776E+03  0.7546771E-02  0.1139004E+00
          2   -1    0    0  503    0 -0.00000000000E+00  0.00000000000E+00  0.10256526487E+04  0.10256526487E+04  0.00000000000E+00 0. -1.
         21   -1    0    0  501  502  0.00000000000E+00 -0.00000000000E+00 -0.16851892795E+03  0.16851892795E+03  0.00000000000E+00 0.  1.
         24    2    1    2    0    0  0.61829937762E+02 -0.47347159251E+02  0.87031205732E+02  0.14002591186E+03  0.77253676474E+02 0.  0.
         23    2    1    2    0    0 -0.95230979436E+01 -0.63668431260E+01  0.32639642027E+03  0.33883370876E+03  0.90235430636E+02 0.  0.
        -13    1    3    3    0    0  0.37839532042E+02 -0.67940145067E+02  0.56994455563E+02  0.96416085078E+02  0.00000000000E+00 0.  1.
         14    1    3    3    0    0  0.23990405719E+02  0.20592985815E+02  0.30036750169E+02  0.43609826783E+02  0.00000000000E+00 0. -1.
        -13    1    4    4    0    0 -0.15495958785E-01 -0.48089648066E+02  0.17968067086E+03  0.18600472567E+03  0.00000000000E+00 0.  1.
         13    1    4    4    0    0 -0.95076019848E+01  0.41722804940E+02  0.14671574941E+03  0.15282898309E+03  0.00000000000E+00 0. -1.
         21    1    1    2  503  502  0.59680476362E+02 -0.12805754957E+03 -0.70973853404E+02  0.15810687249E+03  0.00000000000E+00 0.  1.
          1    1    1    2  501    0 -0.11198731618E+03  0.18177155195E+03  0.51467994813E+03  0.55720508351E+03  0.00000000000E+00 0. -1.
<scales pt_clust_5="13000.00000" pt_clust_6="13000.00000" pt_clust_7="13000.00000" pt_clust_8="13000.00000" pt_clust_9="144.58918" pt_clust_10="13000.00000"></scales>
<clustering>
<clus scale="   77.254">  5  6 -1 -1</clus>
<clus scale="   90.235">  7  8 -1 -1</clus>
<clus scale="  109.694">  1  5  2 -1</clus>
<clus scale="  144.589">  2  9  1 -1</clus>
<clus scale="   93.521">  7 10 -1 -1</clus>
<clus scale="  144.589">  2  5  1 -1</clus>
</clustering>
</event>
<event>
10    4  0.2565852E-005  0.1377230E+03  0.7546771E-02  0.1229164E+00
         21   -1    0    0  501  502  0.00000000000E+00  0.00000000000E+00  0.13615943396E+03  0.13615943396E+03  0.00000000000E+00 0. -1.
          2   -1    0    0  503    0 -0.00000000000E+00 -0.00000000000E+00 -0.23678052078E+03  0.23678052078E+03  0.00000000000E+00 0. -1.
         24    2    1    2    0    0 -0.85450929522E+01 -0.34692413061E+02 -0.13707729132E+03  0.17219545047E+03  0.97900496571E+02 0.  0.
         23    2    1    2    0    0 -0.20732966389E+02  0.27467088588E+02  0.24835978844E+02  0.10055198546E+03  0.91156892683E+02 0.  0.
        -11    1    3    3    0    0 -0.19256394786E+02 -0.62909352290E+02 -0.12164710685E+03  0.13829827892E+03  0.00000000000E+00 0.  1.
         12    1    3    3    0    0  0.10711301833E+02  0.28216939229E+02 -0.15430184464E+02  0.33897171549E+02  0.00000000000E+00 0. -1.
        -13    1    4    4    0    0 -0.31638158275E+02 -0.26109519474E+02  0.13409779060E+01  0.41042396226E+02  0.00000000000E+00 0. -1.
         13    1    4    4    0    0  0.10905191886E+02  0.53576608062E+02  0.23495000938E+02  0.59509589232E+02  0.00000000000E+00 0.  1.
         21    1    1    2  503  502  0.25189739429E+02 -0.22365677460E+02  0.44472130554E+02  0.55789935443E+02  0.00000000000E+00 0. -1.
          1    1    1    2  501    0  0.40883199121E+01  0.29591001932E+02 -0.32851904894E+02  0.44402583373E+02  0.00000000000E+00 0. -1.
<scales pt_clust_5="13000.00000" pt_clust_6="13000.00000" pt_clust_7="13000.00000" pt_clust_8="13000.00000" pt_clust_9="33.68600" pt_clust_10="13000.00000"></scales>
<clustering>
<clus scale="   33.686">  1  9  2 -1</clus>
<clus scale="   91.157">  7  8 -1 -1</clus>
<clus scale="   28.678">  7 10 -1 -1</clus>
<clus scale="   97.900">  5  6 -1 -1</clus>
<clus scale="  105.533">  2  5  1 -1</clus>
<clus scale="   33.686">  1  5  2 -1</clus>
</clustering>
</event>
<event>
10    4  0.2565852E-005  0.1477325E+03  0.7546771E-02  0.1227671E+00
         21   -1    0    0  501  502  0.00000000000E+00  0.00000000000E+00  0.53363262448E+02  0.53363262448E+02  0.00000000000E+00 0.  1.
         -1   -1    0    0    0  501 -0.00000000000E+00 -0.00000000000E+00 -0.62116080492E+03  0.62116080492E+03  0.00000000000E+00 0.  1.
         24    2    1    2    0    0  0.58130861446E+02 -0.27830896424E+01 -0.36496792212E+02  0.99390492341E+02  0.71829739563E+02 0.  0.
         23    2    1    2    0    0 -0.54938647105E+02 -0.19532024187E+02 -0.39671902265E+03  0.41109767719E+03  0.90639739322E+02 0.  0.
        -11    1    3    3    0    0  0.38525110335E+02  0.21349698431E+02  0.83395542915E+01  0.44827914464E+02  0.00000000000E+00 0.  1.
         12    1    3    3    0    0  0.19605751111E+02 -0.24132788073E+02 -0.44836346504E+02  0.54562577877E+02  0.00000000000E+00 0. -1.
        -11    1    4    4    0    0 -0.77377408951E+02 -0.26190378096E+02 -0.26465488545E+03  0.27697546410E+03  0.00000000000E+00 0.  1.
         11    1    4    4    0    0  0.22438761846E+02  0.66583539089E+01 -0.13206413720E+03  0.13412221309E+03  0.00000000000E+00 0. -1.
         21    1    1    2  503  502 -0.12134195668E+02 -0.16087916896E+02  0.34841368977E+01  0.20449914046E+02  0.00000000000E+00 0.  1.
         -2    1    1    2    0  503  0.89419813268E+01  0.38403030726E+02 -0.13806586451E+03  0.14358598379E+03  0.00000000000E+00 0.  1.
<scales pt_clust_5="13000.00000" pt_clust_6="13000.00000" pt_clust_7="13000.00000" pt_clust_8="13000.00000" pt_clust_9="20.15092" pt_clust_10="13000.00000"></scales>
<clustering>
<clus scale="   20.151">  1  9  2 -1</clus>
<clus scale="   71.830">  5  6 -1 -1</clus>
<clus scale="   88.188">  2  5  1 -1</clus>
<clus scale="   90.640">  7  8 -1 -1</clus>
<clus scale="   39.166">  7 10 -1 -1</clus>
<clus scale="   20.151">  1  5  2 -1</clus>
</clustering>
</event>
<event>
10    4  0.2565852E-005  0.6841554E+03  0.7546771E-02  0.1002309E+00
         21   -1    0    0  501  502  0.00000000000E+00  0.00000000000E+00  0.69050839764E+03  0.69050839764E+03  0.00000000000E+00 0.  1.
          2   -1    0    0  503    0 -0.00000000000E+00 -0.00000000000E+00 -0.43750308937E+03  0.43750308937E+03  0.00000000000E+00 0. -1.
         24    2    1    2    0    0 -0.17511524737E+03  0.18360291023E+03  0.27691565433E+03  0.38380922746E+03  0.79068735699E+02 0.  0.
         23    2    1    2    0    0  0.10656904598E+03 -0.17580110137E+02 -0.32202139318E+03  0.35185252140E+03  0.91849862920E+02 0.  0.
        -13    1    3    3    0    0 -0.18030643436E+03  0.17710097866E+03  0.24943128448E+03  0.35509313228E+03  0.00000000000E+00 0.  1.
         14    1    3    3    0    0  0.51911869903E+01  0.65019315715E+01  0.27484369851E+02  0.28716095184E+02  0.00000000000E+00 0. -1.
        -13    1    4    4    0    0  0.48255927293E+02 -0.10226698867E+02 -0.26641016611E+03  0.27093836291E+03  0.00000000000E+00 0. -1.
         13    1    4    4    0    0  0.58313118689E+02 -0.73534112701E+01 -0.55611227064E+02  0.80914158490E+02  0.00000000000E+00 0.  1.
         21    1    1    2  503  502  0.42581771469E+01  0.39007025408E+02  0.34401527418E+02  0.52183763687E+02  0.00000000000E+00 0.  1.
          1    1    1    2  501    0  0.64288024237E+02 -0.20502982550E+03  0.26370951969E+03  0.34016597446E+03  0.00000000000E+00 0. -1.
<scales pt_clust_5="13000.00000" pt_clust_6="13000.00000" pt_clust_7="13000.00000" pt_clust_8="13000.00000" pt_clust_9="39.23876" pt_clust_10="13000.00000"></scales>
<clustering>
<clus scale="   39.239">  1  9  2 -1</clus>
<clus scale="   79.069">  5  6 -1 -1</clus>
<clus scale="   91.850">  7  8 -1 -1</clus>
<clus scale="  198.239">  7 10 -1 -1</clus>
<clus scale="  278.529">  2  5  1 -1</clus>
<clus scale="   39.239">  1  5  2 -1</clus>
</clustering>
</event>
<event>
10    4  0.2565852E-005  0.4213838E+03  0.7546771E-02  0.1085987E+00
          2   -1    0    0  502    0 -0.00000000000E+00  0.00000000000E+00  0.57356641080E+03  0.57356641080E+03  0.00000000000E+00 0. -1.
         21   -1    0    0  503  502  0.00000000000E+00 -0.00000000000E+00 -0.31359079887E+03  0.31359079887E+03  0.00000000000E+00 0. -1.
         24    2    1    2    0    0  0.41914384149E+02  0.51926511421E+02 -0.10636251324E+01  0.10612868874E+03  0.82516598864E+02 0.  0.
         23    2    1    2    0    0  0.21969395357E+02  0.22138028570E+02  0.37275553619E+03  0.38535419879E+03  0.92619771787E+02 0.  0.
        -13    1    3    3    0    0  0.20469238043E+02 -0.17280843700E+02  0.16649881577E+02  0.31541018080E+02  0.00000000000E+00 0.  1.
         14    1    3    3    0    0  0.21445146106E+02  0.69207355121E+02 -0.17713506709E+02  0.74587670659E+02  0.00000000000E+00 0. -1.
        -13    1    4    4    0    0  0.57309778023E+02  0.24425279464E+02  0.23407683896E+03  0.24222504303E+03  0.00000000000E+00 0. -1.
         13    1    4    4    0    0 -0.35340382667E+02 -0.22872508945E+01  0.13867869723E+03  0.14312915576E+03  0.00000000000E+00 0.  1.
         21    1    1    2  503  501  0.11973322463E+03  0.24174661236E+02 -0.13968449188E+03  0.18555919971E+03  0.00000000000E+00 0. -1.
          1    1    1    2  501    0 -0.18361700413E+03 -0.98239201227E+02  0.27968192761E+02  0.21011512242E+03  0.00000000000E+00 0. -1.
<scales pt_clust_5="13000.00000" pt_clust_6="13000.00000" pt_clust_7="13000.00000" pt_clust_8="13000.00000" pt_clust_9="124.42457" pt_clust_10="13000.00000"></scales>
<clustering>
<clus scale="   82.517">  5  6 -1 -1</clus>
<clus scale="   92.620">  7  8 -1 -1</clus>
<clus scale="  106.123">  1  5  2 -1</clus>
<clus scale="  124.425">  2  9  1 -1</clus>
<clus scale="  122.286">  7 10 -1 -1</clus>
<clus scale="  124.425">  2  5  1 -1</clus>
</clustering>
</event>
<event>
10    4  0.2565852E-005  0.4584770E+03  0.7546771E-02  0.1048915E+00
         21   -1    0    0  501  502  0.00000000000E+00  0.00000000000E+00  0.58434094165E+03  0.58434094165E+03  0.00000000000E+00 0. -1.
          2   -1    0    0  503    0 -0.00000000000E+00 -0.00000000000E+00 -0.61132953702E+03  0.61132953702E+03  0.00000000000E+00 0. -1.
         24    2    1    2    0    0 -0.21131087672E+03  0.94871572324E+01  0.37069411911E+03  0.43414763495E+03  0.79547132032E+02 0.  0.
         23    2    1    2    0    0  0.83356265134E+01  0.16015746819E+03 -0.30150836195E+03  0.35323876725E+03  0.90279771129E+02 0.  0.
        -11    1    3    3    0    0 -0.29245749632E+02  0.31040507069E+02  0.70781888090E+02  0.82637174638E+02  0.00000000000E+00 0.  1.
         12    1    3    3    0    0 -0.18206512709E+03 -0.21553349836E+02  0.29991223102E+03  0.35151046031E+03  0.00000000000E+00 0. -1.
        -11    1    4    4    0    0  0.46123911409E+02  0.11162157870E+03 -0.17582394991E+03  0.21330929046E+03  0.00000000000E+00 0. -1.
         11    1    4    4    0    0 -0.37788284895E+02  0.48535889486E+02 -0.12568441204E+03  0.13992947679E+03  0.00000000000E+00 0.  1.
         21    1    1    2  503  502 -0.43308244054E+01 -0.19763754966E+02  0.89776502064E+02  0.92028160762E+02  0.00000000000E+00 0. -1.
          1    1    1    2  501    0  0.20730607461E+03 -0.14988087045E+03 -0.18595085460E+03  0.31625591572E+03  0.00000000000E+00 0. -1.
<scales pt_clust_5="13000.00000" pt_clust_6="13000.00000" pt_clust_7="13000.00000" pt_clust_8="13000.00000" pt_clust_9="20.23270" pt_clust_10="13000.00000"></scales>
<clustering>
<clus scale="   20.233">  1  9  2 -1</clus>
<clus scale="   79.547">  5  6 -1 -1</clus>
<clus scale="   90.280">  7  8 -1 -1</clus>
<clus scale="  229.193">  2  5  1 -1</clus>
<clus scale="  191.848">  7 10 -1 -1</clus>
<clus scale="   20.233">  1  5  2 -1</clus>
</clustering>
</event>
<event>
10    4  0.2565852E-005  0.3652718E+03  0.7546771E-02  0.1063506E+00
          2   -1    0    0  502    0 -0.00000000000E+00  0.00000000000E+00  0.19731501523E+04  0.19731501523E+04  0.00000000000E+00 0. -1.
         21   -1    0    0  503  502  0.00000000000E+00 -0.00000000000E+00 -0.95026171501E+02  0.95026171501E+02  0.00000000000E+00 0.  1.
         24    2    1    2    0    0  0.20718136750E+03  0.20843370685E+03  0.35342307686E+03  0.46631200406E+03  0.78551159648E+02 0.  0.
         23    2    1    2    0    0 -0.23330374090E+03 -0.10889216521E+03  0.13580271767E+04  0.13850204446E+04  0.88066339332E+02 0.  0.
        -13    1    3    3    0    0  0.11474774118E+03  0.82043406647E+02  0.11980093430E+03  0.18506871302E+03  0.00000000000E+00 0.  1.
         14    1    3    3    0    0  0.92433626320E+02  0.12639030020E+03  0.23362214256E+03  0.28124329104E+03  0.00000000000E+00 0. -1.
        -11    1    4    4    0    0 -0.18298508385E+03 -0.11806646158E+03  0.11735416942E+04  0.11935758619E+04  0.00000000000E+00 0. -1.
         11    1    4    4    0    0 -0.50318657053E+02  0.91742963658E+01  0.18448548253E+03  0.19144458265E+03  0.00000000000E+00 0.  1.
         21    1    1    2  503  501  0.15878838220E+02 -0.24968107631E+02 -0.44253649853E+01  0.29918685752E+02  0.00000000000E+00 0. -1.
          1    1    1    2  501    0  0.10243535185E+02 -0.74573434005E+02  0.17109909226E+03  0.18692518943E+03  0.00000000000E+00 0. -1.
<scales pt_clust_5="13000.00000" pt_clust_6="13000.00000" pt_clust_7="13000.00000" pt_clust_8="13000.00000" pt_clust_9="29.58959" pt_clust_10="13000.00000"></scales>
<clustering>
<clus scale="   29.590">  2  9  1 -1</clus>
<clus scale="   78.551">  5  6 -1 -1</clus>
<clus scale="   88.066">  7  8 -1 -1</clus>
<clus scale="   78.018">  7 10 -1 -1</clus>
<clus scale="  300.372">  1  5  2 -1</clus>
<clus scale="   29.590">  2  5  1 -1</clus>
</clustering>
</event>
<event>
10    4  0.2565852E-005  0.2557453E+03  0.7546771E-02  0.1155686E+00
         21   -1    0    0  503  502  0.00000000000E+00  0.00000000000E+00  0.53034631817E+02  0.53034631817E+02  0.00000000000E+00 0. -1.
          2   -1    0    0  502    0 -0.00000000000E+00 -0.00000000000E+00 -0.10897775080E+04  0.10897775080E+04  0.00000000000E+00 0. -1.
         24    2    1    2    0    0 -0.65331118157E+01  0.67365503453E+00 -0.12322080403E+03  0.14723117406E+03  0.80315108846E+02 0.  0.
         23    2    1    2    0    0 -0.34382066027E+02  0.95000775053E+02 -0.34595295947E+03  0.36960529432E+03  0.81959439367E+02 0.  0.
        -11    1    3    3    0    0  0.78609799981E+01  0.38316678608E+02 -0.73199449892E+02  0.82994712666E+02  0.00000000000E+00 0.  1.
         12    1    3    3    0    0 -0.14394091814E+02 -0.37643023573E+02 -0.50021354135E+02  0.64236461393E+02  0.00000000000E+00 0. -1.
        -13    1    4    4    0    0  0.99949528851E+01  0.26293299130E+02 -0.22644524143E+02  0.36111094361E+02  0.00000000000E+00 0. -1.
         13    1    4    4    0    0 -0.44377018912E+02  0.68707475924E+02 -0.32330843532E+03  0.33349419996E+03  0.00000000000E+00 0.  1.
         21    1    1    2  503  501 -0.36809165206E+02 -0.71109090230E+01  0.81134353228E+01  0.38357626400E+02  0.00000000000E+00 0. -1.
          1    1    1    2  501    0  0.77724343048E+02 -0.88563521065E+02 -0.57568254797E+03  0.58761804499E+03  0.00000000000E+00 0. -1.
<scales pt_clust_5="13000.00000" pt_clust_6="13000.00000" pt_clust_7="13000.00000" pt_clust_8="13000.00000" pt_clust_9="37.48973" pt_clust_10="13000.00000"></scales>
<clustering>
<clus scale="   37.490">  1  9  2 -1</clus>
<clus scale="   80.315">  5  6 -1 -1</clus>
<clus scale="   81.959">  7  8 -1 -1</clus>
<clus scale="   83.137">  2  5  1 -1</clus>
<clus scale="  108.016">  7 10 -1 -1</clus>
<clus scale="   37.490">  1  5  2 -1</clus>
</clustering>
</event>
<event>
10    4  0.2565852E-005  0.2600335E+03  0.7546771E-02  0.1137348E+00
         21   -1    0    0  503  502  0.00000000000E+00  0.00000000000E+00  0.16967090862E+03  0.16967090862E+03  0.00000000000E+00 0.  1.
          2   -1    0    0  502    0 -0.00000000000E+00 -0.00000000000E+00 -0.17406300247E+04  0.17406300247E+04  0.00000000000E+00 0. -1.
         24    2    1    2    0    0  0.86568026555E+02 -0.24025226899E+02 -0.11563916905E+04  0.11626853023E+04  0.80772121523E+02 0.  0.
         23    2    1    2    0    0 -0.31222717447E+02  0.97508123118E+02 -0.16564956896E+03  0.21561010761E+03  0.92548617740E+02 0.  0.
        -11    1    3    3    0    0  0.40148594817E+02  0.79227937098E+01 -0.17680596157E+03  0.18148010462E+03  0.00000000000E+00 0.  1.
         12    1    3    3    0    0  0.46419431738E+02 -0.31948020609E+02 -0.97958572896E+03  0.98120519773E+03  0.00000000000E+00 0. -1.
        -11    1    4    4    0    0  0.14825081374E+02  0.72116106469E+02 -0.13748653324E+03  0.15595852869E+03  0.00000000000E+00 0.  1.
         11    1    4    4    0    0 -0.46047798821E+02  0.25392016649E+02 -0.28163035726E+02  0.59651578915E+02  0.00000000000E+00 0. -1.
         21    1    1    2  503  501  0.21394711965E+02 -0.12999012128E+02  0.13425578591E+03  0.13656985050E+03  0.00000000000E+00 0.  1.
          1    1    1    2  501    0 -0.76740021073E+02 -0.60483884091E+02 -0.38317364247E+03  0.39543567284E+03  0.00000000000E+00 0. -1.
<scales pt_clust_5="13000.00000" pt_clust_6="13000.00000" pt_clust_7="13000.00000" pt_clust_8="13000.00000" pt_clust_9="25.03414" pt_clust_10="13000.00000"></scales>
<clustering>
<clus scale="   25.034">  1  9  2 -1</clus>
<clus scale="   80.772">  5  6 -1 -1</clus>
<clus scale="   92.549">  7  8 -1 -1</clus>
<clus scale="   96.235">  7 10 -1 -1</clus>
<clus scale="  122.467">  2  5  1 -1</clus>
<clus scale="   25.034">  1  5  2 -1</clus>
</clustering>
</event>
<event>
10    4  0.2565852E-005  0.1825643E+03  0.7546771E-02  0.1194779E+00
          4   -1    0    0  502    0 -0.00000000000E+00  0.00000000000E+00  0.16143385533E+03  0.16143385533E+03  0.00000000000E+00 0. -1.
         21   -1    0    0  503  502  0.00000000000E+00 -0.00000000000E+00 -0.39409617625E+03  0.39409617625E+03  0.00000000000E+00 0. -1.
         24    2    1    2    0    0  0.57393700267E+02  0.32139615809E+02 -0.24610441502E+03  0.26796814939E+03  0.83141772044E+02 0.  0.
         23    2    1    2    0    0 -0.10882099824E+02 -0.97646970217E+02  0.42944855960E+02  0.13541319212E+03  0.82698978578E+02 0.  0.
        -11    1    3    3    0    0 -0.15728415013E+02  0.26244891159E+02 -0.50329785851E+02  0.58900464298E+02  0.00000000000E+00 0.  1.
         12    1    3    3    0    0  0.73122115280E+02  0.58947246492E+01 -0.19577462917E+03  0.20906768509E+03  0.00000000000E+00 0. -1.
        -13    1    4    4    0    0 -0.18936526121E+02 -0.32130737581E+02  0.56814611828E+02  0.67962316295E+02  0.00000000000E+00 0. -1.
         13    1    4    4    0    0  0.80544262970E+01 -0.65516232636E+02 -0.13869755868E+02  0.67450875826E+02  0.00000000000E+00 0.  1.
         21    1    1    2  503  501 -0.65119459241E+02  0.14727603747E+02 -0.60255973607E+02  0.89934579776E+02  0.00000000000E+00 0.  1.
          3    1    1    2  501    0  0.18607858798E+02  0.50779750662E+02  0.30753211752E+02  0.62214110292E+02  0.00000000000E+00 0. -1.
<scales pt_clust_5="13000.00000" pt_clust_6="13000.00000" pt_clust_7="13000.00000" pt_clust_8="13000.00000" pt_clust_9="66.76411" pt_clust_10="13000.00000"></scales>
<clustering>
<clus scale="   66.764">  2  9  1 -1</clus>
<clus scale="   82.699">  7  8 -1 -1</clus>
<clus scale="   53.758">  7 10 -1 -1</clus>
<clus scale="   83.142">  5  6 -1 -1</clus>
<clus scale="   94.199">  1  5  2 -1</clus>
<clus scale="   66.764">  2  5  1 -1</clus>
</clustering>
</event>
<event>
10    4  0.2565852E-005  0.1898624E+03  0.7546771E-02  0.1190685E+00
          2   -1    0    0  503    0 -0.00000000000E+00  0.00000000000E+00  0.63147395286E+03  0.63147395286E+03  0.00000000000E+00 0. -1.
         21   -1    0    0  501  502  0.00000000000E+00 -0.00000000000E+00 -0.61625443789E+02  0.61625443789E+02  0.00000000000E+00 0.  1.
         24    2    1    2    0    0  0.22454328861E+01 -0.54222731885E+02  0.39443440360E+02  0.10599967278E+03  0.82067039798E+02 0.  0.
         23    2    1    2    0    0  0.47479123478E+02 -0.45462434645E+02  0.24131798211E+03  0.26610467731E+03  0.90863802835E+02 0.  0.
        -11    1    3    3    0    0 -0.36323763985E+02 -0.45126294553E+02  0.30113666340E+02  0.65288828988E+02  0.00000000000E+00 0.  1.
         12    1    3    3    0    0  0.38569196871E+02 -0.90964373315E+01  0.93297740204E+01  0.40710843797E+02  0.00000000000E+00 0. -1.
        -13    1    4    4    0    0 -0.14658232596E+02 -0.42959220778E+02  0.14049407618E+03  0.14764465406E+03  0.00000000000E+00 0. -1.
         13    1    4    4    0    0  0.62137356074E+02 -0.25032138673E+01  0.10082390593E+03  0.11846002324E+03  0.00000000000E+00 0.  1.
         21    1    1    2  503  502 -0.33639922653E+02  0.28354370471E+02  0.33908059958E+02  0.55546118236E+02  0.00000000000E+00 0.  1.
          1    1    1    2  501    0 -0.16084633711E+02  0.71330796059E+02  0.25517902664E+03  0.26544892832E+03  0.00000000000E+00 0. -1.
<scales pt_clust_5="13000.00000" pt_clust_6="13000.00000" pt_clust_7="13000.00000" pt_clust_8="13000.00000" pt_clust_9="43.99562" pt_clust_10="13000.00000"></scales>
<clustering>
<clus scale="   43.996">  2  9  1 -1</clus>
<clus scale="   82.067">  5  6 -1 -1</clus>
<clus scale="   90.864">  7  8 -1 -1</clus>
<clus scale="   76.712">  7 10 -1 -1</clus>
<clus scale="   91.638">  1  5  2 -1</clus>
<clus scale="   43.996">  2  5  1 -1</clus>
</clustering>
</event>
<event>
10    4  0.2565852E-005  0.2623280E+03  0.7546771E-02  0.1146328E+00
          2   -1    0    0  503    0 -0.00000000000E+00  0.00000000000E+00  0.48365618280E+03  0.48365618280E+03  0.00000000000E+00 0. -1.
         21   -1    0    0  501  502  0.00000000000E+00 -0.00000000000E+00 -0.85088748028E+02  0.85088748028E+02  0.00000000000E+00 0. -1.
         24    2    1    2    0    0  0.27178193927E+02  0.27123907027E+02  0.62192830195E+02  0.10926764716E+03  0.81222595563E+02 0.  0.
         23    2    1    2    0    0 -0.75372662378E+01  0.58170061155E+01  0.37951542073E+00  0.91477722728E+02  0.90980117504E+02 0.  0.
        -13    1    3    3    0    0  0.33026418351E+02  0.51411145127E+02  0.28766996646E+02  0.67538065181E+02  0.00000000000E+00 0.  1.
         14    1    3    3    0    0 -0.58482244241E+01 -0.24287238100E+02  0.33425833549E+02  0.41729581976E+02  0.00000000000E+00 0. -1.
        -11    1    4    4    0    0 -0.15495952019E+02 -0.38998101353E+02  0.13544601459E+02  0.44095721639E+02  0.00000000000E+00 0.  1.
         11    1    4    4    0    0  0.79586857816E+01  0.44815107469E+02 -0.13165086039E+02  0.47382001089E+02  0.00000000000E+00 0. -1.
         21    1    1    2  503  502  0.22063239278E+02  0.35545444276E+02  0.29504734625E+02  0.51193695916E+02  0.00000000000E+00 0. -1.
          1    1    1    2  501    0 -0.41704166968E+02 -0.68486357418E+02  0.30649035453E+03  0.31680586503E+03  0.00000000000E+00 0. -1.
<scales pt_clust_5="13000.00000" pt_clust_6="13000.00000" pt_clust_7="13000.00000" pt_clust_8="13000.00000" pt_clust_9="41.83617" pt_clust_10="13000.00000"></scales>
<clustering>
<clus scale="   41.836">  2  9  1 -1</clus>
<clus scale="   81.223">  5  6 -1 -1</clus>
<clus scale="   90.980">  7  8 -1 -1</clus>
<clus scale="   77.279">  7 10 -1 -1</clus>
<clus scale="   96.119">  1  5  2 -1</clus>
<clus scale="   41.836">  2  5  1 -1</clus>
</clustering>
</event>
<event>
10    4  0.2565852E-005  0.1220463E+03  0.7546771E-02  0.1260166E+00
          2   -1    0    0  503    0 -0.00000000000E+00  0.00000000000E+00  0.26502476993E+03  0.26502476993E+03  0.00000000000E+00 0. -1.
         21   -1    0    0  501  502  0.00000000000E+00 -0.00000000000E+00 -0.68874886892E+02  0.68874886892E+02  0.00000000000E+00 0. -1.
         24    2    1    2    0    0 -0.24122299919E+01 -0.10547156148E+02  0.15868629935E+02  0.82995474285E+02  0.80742640404E+02 0.  0.
         23    2    1    2    0    0 -0.11753280416E+02 -0.31507991759E+02  0.13336889724E+03  0.16555809556E+03  0.92148397219E+02 0.  0.
        -13    1    3    3    0    0  0.63727947384E+01  0.34149702163E+02  0.13851222594E+02  0.37398810649E+02  0.00000000000E+00 0.  1.
         14    1    3    3    0    0 -0.87850247303E+01 -0.44696858311E+02  0.20174073408E+01  0.45596663636E+02  0.00000000000E+00 0. -1.
        -11    1    4    4    0    0 -0.41785359193E+02 -0.44248728476E+02  0.60961720423E+02  0.86141149119E+02  0.00000000000E+00 0. -1.
         11    1    4    4    0    0  0.30032078777E+02  0.12740736717E+02  0.72407176820E+02  0.79416946446E+02  0.00000000000E+00 0.  1.
         21    1    1    2  503  502  0.16279592251E+02  0.19688429268E+02 -0.73776415604E+01  0.26591144501E+02  0.00000000000E+00 0. -1.
          1    1    1    2  501    0 -0.21140818433E+01  0.22366718639E+02  0.54289997425E+02  0.58754942474E+02  0.00000000000E+00 0. -1.
<scales pt_clust_5="13000.00000" pt_clust_6="13000.00000" pt_clust_7="13000.00000" pt_clust_8="13000.00000" pt_clust_9="25.54720" pt_clust_10="13000.00000"></scales>
<clustering>
<clus scale="   25.547">  2  9  1 -1</clus>
<clus scale="   80.743">  5  6 -1 -1</clus>
<clus scale="   81.179">  1  5  2 -1</clus>
<clus scale="   92.148">  7  8 -1 -1</clus>
<clus scale="   23.878">  7 10 -1 -1</clus>
<clus scale="   25.547">  2  5  1 -1</clus>
</clustering>
</event>
<event>
10    4  0.2565852E-005  0.1504733E+03  0.7546771E-02  0.1226946E+00
          2   -1    0    0  503    0 -0.00000000000E+00  0.00000000000E+00  0.89509906440E+03  0.89509906440E+03  0.00000000000E+00 0. -1.
         21   -1    0    0  501  502  0.00000000000E+00 -0.00000000000E+00 -0.10173533885E+03  0.10173533885E+03  0.00000000000E+00 0.  1.
         24    2    1    2    0    0  0.26094893762E+02 -0.42451680459E+01  0.74274445271E+03  0.74761727843E+03  0.81014245883E+02 0.  0.
         23    2    1    2    0    0 -0.22699252733E+00  0.51415690878E+02  0.97004445242E+02  0.14310093253E+03  0.91784474173E+02 0.  0.
        -11    1    3    3    0    0  0.15624766138E+02  0.30173760330E+02  0.15081033710E+03  0.15459090176E+03  0.00000000000E+00 0.  1.
         12    1    3    3    0    0  0.10470127625E+02 -0.34418928376E+02  0.59193411561E+03  0.59302637667E+03  0.00000000000E+00 0. -1.
        -11    1    4    4    0    0  0.37571785325E+02  0.23202532592E+02  0.11793147394E+02  0.45706398859E+02  0.00000000000E+00 0. -1.
         11    1    4    4    0    0 -0.37798777852E+02  0.28213158286E+02  0.85211297848E+02  0.97394533668E+02  0.00000000000E+00 0.  1.
         21    1    1    2  503  502 -0.48240824178E+02 -0.50458049477E+02 -0.22788977631E+02  0.73433843532E+02  0.00000000000E+00 0.  1.
          1    1    1    2  501    0  0.22372922943E+02  0.32875266452E+01 -0.23596194772E+02  0.32682348756E+02  0.00000000000E+00 0. -1.
<scales pt_clust_5="13000.00000" pt_clust_6="13000.00000" pt_clust_7="13000.00000" pt_clust_8="13000.00000" pt_clust_9="69.80825" pt_clust_10="13000.00000"></scales>
<clustering>
<clus scale="   69.808">  2  9  1 -1</clus>
<clus scale="   81.014">  5  6 -1 -1</clus>
<clus scale="   84.720">  1  5  2 -1</clus>
<clus scale="   91.784">  7  8 -1 -1</clus>
<clus scale="   24.533">  7 10 -1 -1</clus>
<clus scale="   69.808">  2  5  1 -1</clus>
</clustering>
</event>
<event>
10    4  0.2565852E-005  0.2424438E+03  0.7546771E-02  0.1157115E+00
         21   -1    0    0  501  502  0.00000000000E+00  0.00000000000E+00  0.48219064363E+02  0.48219064363E+02  0.00000000000E+00 0. -1.
          2   -1    0    0  503    0 -0.00000000000E+00 -0.00000000000E+00 -0.13528409410E+04  0.13528409410E+04  0.00000000000E+00 0. -1.
         24    2    1    2    0    0 -0.25763291174E+02  0.45466420056E+02 -0.65076754853E+03  0.65765490943E+03  0.79250458410E+02 0.  0.
         23    2    1    2    0    0 -0.10542125237E+03  0.21430520214E+02 -0.35539370675E+03  0.38298021969E+03  0.93788348053E+02 0.  0.
        -11    1    3    3    0    0 -0.36428492589E+02 -0.93616587000E+01 -0.20740888686E+03  0.21079165561E+03  0.00000000000E+00 0.  1.
         12    1    3    3    0    0  0.10665201414E+02  0.54828078756E+02 -0.44335866167E+03  0.44686325382E+03  0.00000000000E+00 0. -1.
        -11    1    4    4    0    0 -0.11878706331E+03  0.16304436699E+01 -0.29275110377E+03  0.31593707209E+03  0.00000000000E+00 0. -1.
         11    1    4    4    0    0  0.13365810946E+02  0.19800076544E+02 -0.62642602975E+02  0.67043147605E+02  0.00000000000E+00 0.  1.
         21    1    1    2  503  502  0.71886305771E+02  0.23515962968E+02 -0.53443729059E+02  0.92611412080E+02  0.00000000000E+00 0. -1.
          1    1    1    2  501    0  0.59298237770E+02 -0.90412903238E+02 -0.24501689234E+03  0.26781346420E+03  0.00000000000E+00 0. -1.
<scales pt_clust_5="13000.00000" pt_clust_6="13000.00000" pt_clust_7="13000.00000" pt_clust_8="13000.00000" pt_clust_9="75.63492" pt_clust_10="13000.00000"></scales>
<clustering>
<clus scale="   75.635">  1  9  2 -1</clus>
<clus scale="   79.250">  5  6 -1 -1</clus>
<clus scale="   93.788">  7  8 -1 -1</clus>
<clus scale="   94.372">  2  5  1 -1</clus>
<clus scale="   97.404">  7 10 -1 -1</clus>
<clus scale="   75.635">  1  5  2 -1</clus>
</clustering>
</event>
<event>
10    4  0.2565852E-005  0.2607293E+03  0.7546771E-02  0.1125618E+00
          2   -1    0    0  502    0 -0.00000000000E+00  0.00000000000E+00  0.20660961711E+03  0.20660961711E+03  0.00000000000E+00 0. -1.
         21   -1    0    0  503  502  0.00000000000E+00 -0.00000000000E+00 -0.67001005889E+03  0.67001005889E+03  0.00000000000E+00 0. -1.
         24    2    1    2    0    0  0.11039755705E+02 -0.80755937714E+02 -0.38749474562E+03  0.40456580959E+03  0.82933218488E+02 0.  0.
         23    2    1    2    0    0  0.20607196124E+02  0.17429428515E+03  0.41671346919E+02  0.20232134412E+03  0.91620253025E+02 0.  0.
        -13    1    3    3    0    0  0.23503984356E+02 -0.49098199962E+01 -0.27726553842E+02  0.36678405104E+02  0.00000000000E+00 0.  1.
         14    1    3    3    0    0 -0.12464228651E+02 -0.75846117717E+02 -0.35976819178E+03  0.36788740449E+03  0.00000000000E+00 0. -1.
        -11    1    4    4    0    0 -0.68164357259E+00  0.82708697950E+02 -0.25742061903E+02  0.86624748805E+02  0.00000000000E+00 0.  1.
         11    1    4    4    0    0  0.21288839697E+02  0.91585587200E+02  0.67413408822E+02  0.11569659531E+03  0.00000000000E+00 0. -1.
         21    1    1    2  503  501 -0.90932628026E+02 -0.55286952833E+02 -0.15642222082E+03  0.18919117622E+03  0.00000000000E+00 0. -1.
          1    1    1    2  501    0  0.59285676197E+02 -0.38251394603E+02  0.38845177741E+02  0.80541346059E+02  0.00000000000E+00 0. -1.
<scales pt_clust_5="13000.00000" pt_clust_6="13000.00000" pt_clust_7="13000.00000" pt_clust_8="13000.00000" pt_clust_9="106.42082" pt_clust_10="13000.00000"></scales>
<clustering>
<clus scale="   82.933">  5  6 -1 -1</clus>
<clus scale="   91.620">  7  8 -1 -1</clus>
<clus scale="   70.555">  7 10 -1 -1</clus>
<clus scale="  106.421">  2  9  1 -1</clus>
<clus scale="  161.926">  1  5  2 -1</clus>
<clus scale="  106.421">  2  5  1 -1</clus>
</clustering>
</event>
<event>
10    4  0.2565852E-005  0.4477845E+03  0.7546771E-02  0.1052035E+00
         21   -1    0    0  503  502  0.00000000000E+00  0.00000000000E+00  0.82173631790E+02  0.82173631790E+02  0.00000000000E+00 0.  1.
          2   -1    0    0  502    0 -0.00000000000E+00 -0.00000000000E+00 -0.18868675710E+04  0.18868675710E+04  0.00000000000E+00 0. -1.
         24    2    1    2    0    0  0.23792915004E+03 -0.53401703792E+02 -0.50688083894E+03  0.56818140291E+03  0.80248983335E+02 0.  0.
         23    2    1    2    0    0  0.30767941146E+02  0.14364569519E+03 -0.34318741463E+03  0.38426196236E+03  0.91098310660E+02 0.  0.
        -13    1    3    3    0    0  0.20922609639E+03 -0.25699214950E+02 -0.46386267617E+03  0.50951407381E+03  0.00000000000E+00 0.  1.
         14    1    3    3    0    0  0.28703053646E+02 -0.27702488842E+02 -0.43018162764E+02  0.58667329104E+02  0.00000000000E+00 0. -1.
        -13    1    4    4    0    0 -0.26542791972E+02  0.89262916534E+02 -0.20307426895E+03  0.22340892279E+03  0.00000000000E+00 0.  1.
         13    1    4    4    0    0  0.57310733118E+02  0.54382778659E+02 -0.14011314568E+03  0.16085303957E+03  0.00000000000E+00 0. -1.
         21    1    1    2  503  501 -0.67272002969E+02  0.47863859321E+02 -0.11103686312E+03  0.13836783002E+03  0.00000000000E+00 0. -1.
          1    1    1    2  501    0 -0.20142508822E+03 -0.13810785072E+03 -0.84358882255E+03  0.87823000753E+03  0.00000000000E+00 0. -1.
<scales pt_clust_5="13000.00000" pt_clust_6="13000.00000" pt_clust_7="13000.00000" pt_clust_8="13000.00000" pt_clust_9="82.56192" pt_clust_10="13000.00000"></scales>
<clustering>
<clus scale="   80.249">  5  6 -1 -1</clus>
<clus scale="   82.562">  1  9  2 -1</clus>
<clus scale="   91.098">  7  8 -1 -1</clus>
<clus scale="  225.072">  2  5  1 -1</clus>
<clus scale="  167.158">  7 10 -1 -1</clus>
<clus scale="   82.562">  1  5  2 -1</clus>
</clustering>
</event>
<event>
10    4  0.2565852E-005  0.3263845E+03  0.7546771E-02  0.1114830E+00
          2   -1    0    0  503    0 -0.00000000000E+00  0.00000000000E+00  0.78193750542E+03  0.78193750542E+03  0.00000000000E+00 0. -1.
         21   -1    0    0  501  502  0.00000000000E+00 -0.00000000000E+00 -0.14931818776E+03  0.14931818776E+03  0.00000000000E+00 0. -1.
         24    2    1    2    0    0 -0.22880714618E+02  0.68416210908E+02  0.37593317498E+03  0.39116629123E+03  0.80504722377E+02 0.  0.
         23    2    1    2    0    0  0.16166172610E+03 -0.66826834730E+02  0.48791492996E+02  0.20252602149E+03  0.89642847271E+02 0.  0.
        -11    1    3    3    0    0  0.20955850646E+02 -0.49903159243E+01  0.55842751146E+02  0.59853686477E+02  0.00000000000E+00 0.  1.
         12    1    3    3    0    0 -0.43836565264E+02  0.73406526833E+02  0.32009042384E+03  0.33131260475E+03  0.00000000000E+00 0. -1.
        -13    1    4    4    0    0  0.47898218189E+02 -0.15562297490E+02 -0.26378319786E+02  0.56852793806E+02  0.00000000000E+00 0.  1.
         13    1    4    4    0    0  0.11376350791E+03 -0.51264537240E+02  0.75169812781E+02  0.14567322769E+03  0.00000000000E+00 0. -1.
         21    1    1    2  503  502 -0.83743012657E+02 -0.11147613411E+03  0.13802898809E+03  0.19619332863E+03  0.00000000000E+00 0. -1.
          1    1    1    2  501    0 -0.55037998825E+02  0.10988675793E+03  0.69865661596E+02  0.14137005183E+03  0.00000000000E+00 0. -1.
<scales pt_clust_5="13000.00000" pt_clust_6="13000.00000" pt_clust_7="13000.00000" pt_clust_8="13000.00000" pt_clust_9="124.75839" pt_clust_10="13000.00000"></scales>
<clustering>
<clus scale="   80.505">  5  6 -1 -1</clus>
<clus scale="   89.643">  7  8 -1 -1</clus>
<clus scale="  108.099">  1  5  2 -1</clus>
<clus scale="  124.758">  2  9  1 -1</clus>
<clus scale="  136.931">  7 10 -1 -1</clus>
<clus scale="  124.758">  2  5  1 -1</clus>
</clustering>
</event>
<event>
10    4  0.2565852E-005  0.2107745E+03  0.7546771E-02  0.1169238E+00
          2   -1    0    0  503    0 -0.00000000000E+00  0.00000000000E+00  0.90940296129E+03  0.90940296129E+03  0.00000000000E+00 0. -1.
         21   -1    0    0  501  502  0.00000000000E+00 -0.00000000000E+00 -0.16691029482E+03  0.16691029482E+03  0.00000000000E+00 0. -1.
         24    2    1    2    0    0 -0.32759111677E+02 -0.63561601842E+02  0.38355723876E+03  0.39836459241E+03  0.80404952913E+02 0.  0.
         23    2    1    2    0    0  0.39429484787E+02  0.75629564391E+02  0.16615797735E+03  0.20665353177E+03  0.88445991860E+02 0.  0.
        -13    1    3    3    0    0 -0.28108186685E+02  0.12899822990E+02  0.11703690196E+03  0.12105416975E+03  0.00000000000E+00 0.  1.
         14    1    3    3    0    0 -0.46509249916E+01 -0.76461424832E+02  0.26652033679E+03  0.27731042266E+03  0.00000000000E+00 0. -1.
        -13    1    4    4    0    0 -0.27315620662E+02  0.28663629534E+02  0.39132949278E+02  0.55669870751E+02  0.00000000000E+00 0.  1.
         13    1    4    4    0    0  0.66745105450E+02  0.46965934857E+02  0.12702502807E+03  0.15098366102E+03  0.00000000000E+00 0. -1.
         21    1    1    2  503  502  0.56209092111E+02 -0.27773052972E+02 -0.12880146237E+03  0.14325020494E+03  0.00000000000E+00 0. -1.
          1    1    1    2  501    0 -0.62879465221E+02  0.15705090424E+02  0.32157891273E+03  0.32804492699E+03  0.00000000000E+00 0. -1.
<scales pt_clust_5="13000.00000" pt_clust_6="13000.00000" pt_clust_7="13000.00000" pt_clust_8="13000.00000" pt_clust_9="62.69613" pt_clust_10="13000.00000"></scales>
<clustering>
<clus scale="   62.696">  2  9  1 -1</clus>
<clus scale="   80.405">  5  6 -1 -1</clus>
<clus scale="   88.446">  7  8 -1 -1</clus>
<clus scale="   58.415">  7 10 -1 -1</clus>
<clus scale="  108.479">  1  5  2 -1</clus>
<clus scale="   62.696">  2  5  1 -1</clus>
</clustering>
</event>
<event>
10    4  0.2565852E-005  0.7607389E+03  0.7546771E-02  0.1023026E+00
         21   -1    0    0  503  502  0.00000000000E+00  0.00000000000E+00  0.34424468746E+03  0.34424468746E+03  0.00000000000E+00 0.  1.
          2   -1    0    0  502    0 -0.00000000000E+00 -0.00000000000E+00 -0.10279216448E+04  0.10279216448E+04  0.00000000000E+00 0. -1.
         24    2    1    2    0    0  0.48327743647E+02 -0.49422543488E+02 -0.15968482278E+03  0.19229668839E+03  0.81857285114E+02 0.  0.
         23    2    1    2    0    0 -0.16218732606E+03  0.17665930830E+03  0.58228021419E+02  0.26327019077E+03  0.91692153048E+02 0.  0.
        -13    1    3    3    0    0  0.12129083038E+02 -0.57940033210E+02 -0.13568949925E+03  0.14803986730E+03  0.00000000000E+00 0.  1.
         14    1    3    3    0    0  0.36198660609E+02  0.85174897213E+01 -0.23995323529E+02  0.44256821082E+02  0.00000000000E+00 0. -1.
        -11    1    4    4    0    0 -0.13805125721E+03  0.17915443430E+03  0.69365653499E+02  0.23657145819E+03  0.00000000000E+00 0.  1.
         11    1    4    4    0    0 -0.24136068847E+02 -0.24951260012E+01 -0.11137632080E+02  0.26698732582E+02  0.00000000000E+00 0. -1.
         21    1    1    2  503  501 -0.28938293251E+02 -0.28498526263E+02  0.15447449563E+03  0.15972463998E+03  0.00000000000E+00 0.  1.
          1    1    1    2  501    0  0.14279787566E+03 -0.98738238544E+02 -0.73669465163E+03  0.75687481315E+03  0.00000000000E+00 0. -1.
<scales pt_clust_5="13000.00000" pt_clust_6="13000.00000" pt_clust_7="13000.00000" pt_clust_8="13000.00000" pt_clust_9="40.61515" pt_clust_10="13000.00000"></scales>
<clustering>
<clus scale="   40.615">  1  9  2 -1</clus>
<clus scale="   81.857">  5  6 -1 -1</clus>
<clus scale="   91.692">  7  8 -1 -1</clus>
<clus scale="  107.206">  2  5  1 -1</clus>
<clus scale="  232.520">  7 10 -1 -1</clus>
<clus scale="   40.615">  1  5  2 -1</clus>
</clustering>
</event>
<event>
10    4  0.2565852E-005  0.3136172E+03  0.7546771E-02  0.1098941E+00
          2   -1    0    0  503    0 -0.00000000000E+00  0.00000000000E+00  0.42852556701E+03  0.42852556701E+03  0.00000000000E+00 0. -1.
         21   -1    0    0  501  502  0.00000000000E+00 -0.00000000000E+00 -0.16719540027E+03  0.16719540027E+03  0.00000000000E+00 0. -1.
         24    2    1    2    0    0 -0.41663431300E+02 -0.15260775745E+03  0.13610542073E+03  0.22354545226E+03  0.80143087868E+02 0.  0.
         23    2    1    2    0    0  0.13126446950E+02 -0.40917901654E+02  0.61647686421E+01  0.97400118539E+02  0.87190598310E+02 0.  0.
        -13    1    3    3    0    0 -0.23321857584E+02 -0.88823956361E+02  0.26794020051E+02  0.95663596918E+02  0.00000000000E+00 0.  1.
         14    1    3    3    0    0 -0.18341573716E+02 -0.63783801086E+02  0.10931140068E+03  0.12788185534E+03  0.00000000000E+00 0. -1.
        -13    1    4    4    0    0  0.10079248501E+02 -0.64199171762E+02  0.22529453508E+02  0.68780092910E+02  0.00000000000E+00 0. -1.
         13    1    4    4    0    0  0.30471984487E+01  0.23281270108E+02 -0.16364684866E+02  0.28620025629E+02  0.00000000000E+00 0.  1.
         21    1    1    2  503  502 -0.12319840177E+02 -0.19639817978E+02 -0.64353724513E+01  0.24060651088E+02  0.00000000000E+00 0.  1.
          1    1    1    2  501    0  0.40856824527E+02  0.21316547708E+03  0.12549534982E+03  0.25071474539E+03  0.00000000000E+00 0. -1.
<scales pt_clust_5="13000.00000" pt_clust_6="13000.00000" pt_clust_7="13000.00000" pt_clust_8="13000.00000" pt_clust_9="23.18407" pt_clust_10="13000.00000"></scales>
<clustering>
<clus scale="   23.184">  2  9  1 -1</clus>
<clus scale="   80.143">  5  6 -1 -1</clus>
<clus scale="   87.191">  7  8 -1 -1</clus>
<clus scale="  183.064">  1  5  2 -1</clus>
<clus scale="   86.700">  7 10 -1 -1</clus>
<clus scale="   23.184">  2  5  1 -1</clus>
</clustering>
</event>
<event>
10    4  0.2565852E-005  0.4751311E+03  0.7546771E-02  0.1073719E+00
          2   -1    0    0  502    0 -0.00000000000E+00  0.00000000000E+00  0.12659110847E+04  0.12659110847E+04  0.00000000000E+00 0. -1.
         21   -1    0    0  503  502  0.00000000000E+00 -0.00000000000E+00 -0.11094125104E+03  0.11094125104E+03  0.00000000000E+00 0. -1.
         24    2    1    2    0    0 -0.34698604014E+02 -0.81621546230E+02  0.28313536184E+02  0.12317412328E+03  0.80648238579E+02 0.  0.
         23    2    1    2    0    0 -0.11578331820E+03  0.91865949840E+02  0.98209044086E+03  0.99728727706E+03  0.90747724234E+02 0.  0.
        -13    1    3    3    0    0  0.24338892041E+02 -0.42081859955E+02  0.15068187309E+02  0.50895136033E+02  0.00000000000E+00 0.  1.
         14    1    3    3    0    0 -0.59037496055E+02 -0.39539686276E+02  0.13245348875E+02  0.72278987251E+02  0.00000000000E+00 0. -1.
        -13    1    4    4    0    0 -0.17408845276E+02  0.70529053397E+02  0.43076262275E+03  0.43684534154E+03  0.00000000000E+00 0. -1.
         13    1    4    4    0    0 -0.98374472923E+02  0.21336896444E+02  0.55132781810E+03  0.56044193552E+03  0.00000000000E+00 0.  1.
         21    1    1    2  503  501  0.52841426580E+01  0.53045200317E+02  0.34049909063E+02  0.63254341728E+02  0.00000000000E+00 0.  1.
          1    1    1    2  501    0  0.14519777956E+03 -0.63289603926E+02  0.11051594759E+03  0.19313659370E+03  0.00000000000E+00 0. -1.
<scales pt_clust_5="13000.00000" pt_clust_6="13000.00000" pt_clust_7="13000.00000" pt_clust_8="13000.00000" pt_clust_9="53.30774" pt_clust_10="13000.00000"></scales>
<clustering>
<clus scale="   53.308">  2  9  1 -1</clus>
<clus scale="   80.648">  5  6 -1 -1</clus>
<clus scale="   90.748">  7  8 -1 -1</clus>
<clus scale="  103.031">  1  5  2 -1</clus>
<clus scale="  150.918">  7 10 -1 -1</clus>
<clus scale="   53.308">  2  5  1 -1</clus>
</clustering>
</event>
<event>
10    4  0.2565852E-005  0.2409873E+03  0.7546771E-02  0.1163005E+00
          2   -1    0    0  503    0 -0.00000000000E+00  0.00000000000E+00  0.17491544087E+03  0.17491544087E+03  0.00000000000E+00 0. -1.
         21   -1    0    0  501  502  0.00000000000E+00 -0.00000000000E+00 -0.21744545647E+03  0.21744545647E+03  0.00000000000E+00 0. -1.
         24    2    1    2    0    0 -0.10395396645E+02 -0.22736125326E+02  0.62889423121E+02  0.10489341042E+03  0.80140828190E+02 0.  0.
         23    2    1    2    0    0 -0.11233411244E+00 -0.96785820918E+02 -0.57649073190E+02  0.14478095694E+03  0.90942850760E+02 0.  0.
        -11    1    3    3    0    0 -0.27004560537E+02  0.20826641705E+01 -0.77742504458E+01  0.28178409285E+02  0.00000000000E+00 0.  1.
         12    1    3    3    0    0  0.16609163892E+02 -0.24818789496E+02  0.70663673567E+02  0.76715001135E+02  0.00000000000E+00 0. -1.
        -11    1    4    4    0    0  0.38490244815E+02 -0.75309720200E+02 -0.20407973670E+02  0.87003093576E+02  0.00000000000E+00 0. -1.
         11    1    4    4    0    0 -0.38602578927E+02 -0.21476100718E+02 -0.37241099520E+02  0.57777863368E+02  0.00000000000E+00 0.  1.
         21    1    1    2  503  502 -0.18566861820E+02  0.15502670352E+02 -0.19425812958E+02  0.31022948844E+02  0.00000000000E+00 0.  1.
          1    1    1    2  501    0  0.29074592577E+02  0.10401927589E+03 -0.28344552580E+02  0.11166358113E+03  0.00000000000E+00 0. -1.
<scales pt_clust_5="13000.00000" pt_clust_6="13000.00000" pt_clust_7="13000.00000" pt_clust_8="13000.00000" pt_clust_9="24.18804" pt_clust_10="13000.00000"></scales>
<clustering>
<clus scale="   24.188">  2  9  1 -1</clus>
<clus scale="   80.141">  5  6 -1 -1</clus>
<clus scale="   83.784">  1  5  2 -1</clus>
<clus scale="   90.943">  7  8 -1 -1</clus>
<clus scale="  100.100">  7 10 -1 -1</clus>
<clus scale="   24.188">  2  5  1 -1</clus>
</clustering>
</event>
<event>
10    4  0.2565852E-005  0.2969246E+03  0.7546771E-02  0.1112664E+00
          2   -1    0    0  503    0 -0.00000000000E+00  0.00000000000E+00  0.10834639567E+04  0.10834639567E+04  0.00000000000E+00 0. -1.
         21   -1    0    0  501  502  0.00000000000E+00 -0.00000000000E+00 -0.10946843241E+03  0.10946843241E+03  0.00000000000E+00 0.  1.
         24    2    1    2    0    0 -0.47897009541E+02  0.94293546748E+02  0.24868438847E+03  0.28825873086E+03  0.10031836505E+03 0.  0.
         23    2    1    2    0    0 -0.31060571586E+02 -0.38198839108E+02  0.88178248951E+02  0.13560496721E+03  0.90495265769E+02 0.  0.
        -13    1    3    3    0    0  0.14846235066E+02  0.32070186827E+02  0.14938437262E+02  0.38367492576E+02  0.00000000000E+00 0.  1.
         14    1    3    3    0    0 -0.62743244606E+02  0.62223359921E+02  0.23374595121E+03  0.24989123828E+03  0.00000000000E+00 0. -1.
        -11    1    4    4    0    0 -0.95191051036E+00 -0.62816561600E+02  0.43736199146E+02  0.76548557535E+02  0.00000000000E+00 0. -1.
         11    1    4    4    0    0 -0.30108661075E+02  0.24617722492E+02  0.44442049805E+02  0.59056409672E+02  0.00000000000E+00 0.  1.
         21    1    1    2  503  502  0.34802076944E+01  0.23000500058E+02 -0.59512103422E+02  0.63896989774E+02  0.00000000000E+00 0.  1.
          1    1    1    2  501    0  0.75477373432E+02 -0.79095207698E+02  0.69664499032E+03  0.70517170130E+03  0.00000000000E+00 0. -1.
<scales pt_clust_5="13000.00000" pt_clust_6="13000.00000" pt_clust_7="13000.00000" pt_clust_8="13000.00000" pt_clust_9="23.26231" pt_clust_10="13000.00000"></scales>
<clustering>
<clus scale="   23.262">  2  9  1 -1</clus>
<clus scale="   90.495">  7  8 -1 -1</clus>
<clus scale="  100.318">  5  6 -1 -1</clus>
<clus scale="  108.071">  7 10 -1 -1</clus>
<clus scale="  151.660">  1  5  2 -1</clus>
<clus scale="   23.262">  2  5  1 -1</clus>
</clustering>
</event>
<event>
10    4  0.2565852E-005  0.2945255E+03  0.7546771E-02  0.1128049E+00
         21   -1    0    0  501  502  0.00000000000E+00  0.00000000000E+00  0.23133774928E+03  0.23133774928E+03  0.00000000000E+00 0. -1.
          2   -1    0    0  503    0 -0.00000000000E+00 -0.00000000000E+00 -0.74419598786E+03  0.74419598786E+03  0.00000000000E+00 0. -1.
         24    2    1    2    0    0 -0.12522796752E+02 -0.69984664221E+02 -0.35568471658E+03  0.37108337283E+03  0.78336315483E+02 0.  0.
         23    2    1    2    0    0 -0.19515784541E+02  0.14706449017E+03 -0.70746939622E+02  0.18816583147E+03  0.91610155298E+02 0.  0.
        -11    1    3    3    0    0 -0.42301780694E+02 -0.19601451603E+02 -0.17821020775E+03  0.18420786004E+03  0.00000000000E+00 0.  1.
         12    1    3    3    0    0  0.29778983942E+02 -0.50383212618E+02 -0.17747450883E+03  0.18687551280E+03  0.00000000000E+00 0. -1.
        -13    1    4    4    0    0  0.92246701855E+00  0.15232265093E+03 -0.55462042855E+02  0.16210823276E+03  0.00000000000E+00 0.  1.
         13    1    4    4    0    0 -0.20438251559E+02 -0.52581607624E+01 -0.15284896767E+02  0.26057598711E+02  0.00000000000E+00 0. -1.
         21    1    1    2  503  502  0.13981685365E+03 -0.18155584865E+03  0.23323124580E+02  0.23033724598E+03  0.00000000000E+00 0. -1.
          1    1    1    2  501    0 -0.10777827236E+03  0.10447602270E+03 -0.10974970697E+03  0.18594728686E+03  0.00000000000E+00 0. -1.
<scales pt_clust_5="13000.00000" pt_clust_6="13000.00000" pt_clust_7="13000.00000" pt_clust_8="13000.00000" pt_clust_9="242.56980" pt_clust_10="13000.00000"></scales>
<clustering>
<clus scale="   78.336">  5  6 -1 -1</clus>
<clus scale="   91.610">  7  8 -1 -1</clus>
<clus scale="  105.789">  2  5  1 -1</clus>
<clus scale="  136.616">  7 10 -1 -1</clus>
<clus scale="  242.570">  1  9  2 -1</clus>
<clus scale="  242.570">  1  5  2 -1</clus>
</clustering>
</event>
<event>
10    4  0.2565852E-005  0.3642825E+03  0.7546771E-02  0.1066290E+00
         21   -1    0    0  501  502  0.00000000000E+00  0.00000000000E+00  0.13153342514E+03  0.13153342514E+03  0.00000000000E+00 0. -1.
          2   -1    0    0  503    0 -0.00000000000E+00 -0.00000000000E+00 -0.16333052593E+04  0.16333052593E+04  0.00000000000E+00 0. -1.
         24    2    1    2    0    0 -0.86598865742E+02 -0.25315980795E+03 -0.10776892906E+04  0.11131960061E+04  0.78752073760E+02 0.  0.
         23    2    1    2    0    0  0.91567822919E+02  0.40574660694E+02 -0.20978145462E+03  0.24944619750E+03  0.90466443828E+02 0.  0.
        -13    1    3    3    0    0 -0.65110271896E+02 -0.83638366327E+02 -0.47973906582E+03  0.49130875741E+03  0.00000000000E+00 0.  1.
         14    1    3    3    0    0 -0.21488593846E+02 -0.16952144163E+03 -0.59795022473E+03  0.62188724870E+03  0.00000000000E+00 0. -1.
        -11    1    4    4    0    0  0.73854695900E+02  0.55432758667E+02 -0.20635433913E+03  0.22607392622E+03  0.00000000000E+00 0.  1.
         11    1    4    4    0    0  0.17713127019E+02 -0.14858097973E+02 -0.34271154961E+01  0.23372271280E+02  0.00000000000E+00 0. -1.
         21    1    1    2  503  502  0.28271200584E+02 -0.16445448038E+02  0.44360888319E+02  0.55114444169E+02  0.00000000000E+00 0. -1.
          1    1    1    2  501    0 -0.33240157761E+02  0.22903059530E+03 -0.25866197729E+03  0.34708203665E+03  0.00000000000E+00 0. -1.
<scales pt_clust_5="13000.00000" pt_clust_6="13000.00000" pt_clust_7="13000.00000" pt_clust_8="13000.00000" pt_clust_9="32.70648" pt_clust_10="13000.00000"></scales>
<clustering>
<clus scale="   32.706">  1  9  2 -1</clus>
<clus scale="   78.752">  5  6 -1 -1</clus>
<clus scale="   90.466">  7  8 -1 -1</clus>
<clus scale="  220.873">  7 10 -1 -1</clus>
<clus scale="  280.332">  2  5  1 -1</clus>
<clus scale="   32.706">  1  5  2 -1</clus>
</clustering>
</event>
<event>
10    4  0.2565852E-005  0.1532203E+03  0.7546771E-02  0.1224252E+00
          4   -1    0    0  502    0 -0.00000000000E+00  0.00000000000E+00  0.19704607734E+03  0.19704607734E+03  0.00000000000E+00 0. -1.
         21   -1    0    0  503  502  0.00000000000E+00 -0.00000000000E+00 -0.14502766869E+03  0.14502766869E+03  0.00000000000E+00 0. -1.
         24    2    1    2    0    0 -0.35811566636E+02  0.21876933992E+02 -0.64584171138E+02  0.10893572679E+03  0.77037710667E+02 0.  0.
         23    2    1    2    0    0 -0.25330378721E+02 -0.19825598373E+02  0.12817240904E+03  0.16044905249E+03  0.91000272368E+02 0.  0.
        -13    1    3    3    0    0  0.72878835021E+01  0.32194125522E+02 -0.31131851806E+01  0.33155193952E+02  0.00000000000E+00 0.  1.
         14    1    3    3    0    0 -0.43099450138E+02 -0.10317191530E+02 -0.61470985958E+02  0.75780532842E+02  0.00000000000E+00 0. -1.
        -13    1    4    4    0    0  0.32986264901E+02 -0.81379899523E+01  0.28343570219E+02  0.44245661091E+02  0.00000000000E+00 0.  1.
         13    1    4    4    0    0 -0.58316643622E+02 -0.11687608421E+02  0.99828838816E+02  0.11620339140E+03  0.00000000000E+00 0. -1.
         21    1    1    2  503  501  0.18667272398E+02  0.80664205457E+01 -0.19657190205E+02  0.28283198651E+02  0.00000000000E+00 0. -1.
          3    1    1    2  501    0  0.42474672958E+02 -0.10117756164E+02  0.80873609509E+01  0.44405768092E+02  0.00000000000E+00 0. -1.
<scales pt_clust_5="13000.00000" pt_clust_6="13000.00000" pt_clust_7="13000.00000" pt_clust_8="13000.00000" pt_clust_9="20.33554" pt_clust_10="13000.00000"></scales>
<clustering>
<clus scale="   20.336">  2  9  1 -1</clus>
<clus scale="   77.038">  5  6 -1 -1</clus>
<clus scale="   84.871">  1  5  2 -1</clus>
<clus scale="   91.000">  7  8 -1 -1</clus>
<clus scale="   41.584">  7 10 -1 -1</clus>
<clus scale="   20.336">  2  5  1 -1</clus>
</clustering>
</event>
<event>
10    4  0.2565852E-005  0.2320499E+03  0.7546771E-02  0.1143854E+00
          2   -1    0    0  503    0 -0.00000000000E+00  0.00000000000E+00  0.27504122778E+03  0.27504122778E+03  0.00000000000E+00 0. -1.
         21   -1    0    0  501  502  0.00000000000E+00 -0.00000000000E+00 -0.45493979947E+03  0.45493979947E+03  0.00000000000E+00 0.  1.
         24    2    1    2    0    0 -0.65780876318E+02 -0.10492363548E+03 -0.40375751460E+02  0.15275853991E+03  0.79805245690E+02 0.  0.
         23    2    1    2    0    0  0.11722917515E+03 -0.26502658769E+02  0.53641932277E+02  0.16020597430E+03  0.91342360783E+02 0.  0.
        -11    1    3    3    0    0 -0.78032249974E+02 -0.85485758225E+02 -0.12176088262E+02  0.11638343534E+03  0.00000000000E+00 0.  1.
         12    1    3    3    0    0  0.12251373656E+02 -0.19437877250E+02 -0.28199663198E+02  0.36375104576E+02  0.00000000000E+00 0. -1.
        -13    1    4    4    0    0  0.10136015943E+02  0.19055569869E+02  0.36730828827E+02  0.42602903053E+02  0.00000000000E+00 0. -1.
         13    1    4    4    0    0  0.10709315921E+03 -0.45558228638E+02  0.16911103450E+02  0.11760307125E+03  0.00000000000E+00 0.  1.
         21    1    1    2  503  502 -0.15415312092E+03  0.64133738951E+02 -0.23414085414E+03  0.28757305287E+03  0.00000000000E+00 0.  1.
          1    1    1    2  501    0  0.10270482209E+03  0.67292555294E+02  0.40976101627E+02  0.12944346018E+03  0.00000000000E+00 0. -1.
<scales pt_clust_5="13000.00000" pt_clust_6="13000.00000" pt_clust_7="13000.00000" pt_clust_8="13000.00000" pt_clust_9="170.11086" pt_clust_10="13000.00000"></scales>
<clustering>
<clus scale="   79.805">  5  6 -1 -1</clus>
<clus scale="   91.342">  7  8 -1 -1</clus>
<clus scale="  122.787">  7 10 -1 -1</clus>
<clus scale="  147.326">  1  5  2 -1</clus>
<clus scale="  170.111">  2  9  1 -1</clus>
<clus scale="  170.111">  2  5  1 -1</clus>
</clustering>
</event>
<event>
10    4  0.2565852E-005  0.2588700E+03  0.7546771E-02  0.1138664E+00
          2   -1    0    0  503    0 -0.00000000000E+00  0.00000000000E+00  0.65579068793E+03  0.65579068793E+03  0.00000000000E+00 0. -1.
         21   -1    0    0  501  502  0.00000000000E+00 -0.00000000000E+00 -0.74477271442E+02  0.74477271442E+02  0.00000000000E+00 0. -1.
         24    2    1    2    0    0 -0.41259947690E+02  0.81565936632E+02  0.28146299087E+03  0.30605220588E+03  0.78045833923E+02 0.  0.
         23    2    1    2    0    0  0.32067993379E+02  0.42848969372E+02  0.62762943474E+02  0.12642334850E+03  0.95808588322E+02 0.  0.
        -11    1    3    3    0    0  0.72959482169E+01  0.63012464310E+02  0.11107529846E+03  0.12791217083E+03  0.00000000000E+00 0.  1.
         12    1    3    3    0    0 -0.48555895907E+02  0.18553472322E+02  0.17038769241E+03  0.17814003505E+03  0.00000000000E+00 0. -1.
        -13    1    4    4    0    0  0.52418694755E+02 -0.95806561951E+01  0.26576486002E+02  0.59546772718E+02  0.00000000000E+00 0.  1.
         13    1    4    4    0    0 -0.20350701376E+02  0.52429625567E+02  0.36186457472E+02  0.66876575779E+02  0.00000000000E+00 0. -1.
         21    1    1    2  503  502  0.34012730300E+02  0.15983751926E+02  0.51934948106E+02  0.64106044823E+02  0.00000000000E+00 0.  1.
          1    1    1    2  501    0 -0.24820775990E+02 -0.14039865793E+03  0.18515253404E+03  0.23368636017E+03  0.00000000000E+00 0. -1.
<scales pt_clust_5="13000.00000" pt_clust_6="13000.00000" pt_clust_7="13000.00000" pt_clust_8="13000.00000" pt_clust_9="37.58121" pt_clust_10="13000.00000"></scales>
<clustering>
<clus scale="   37.581">  2  9  1 -1</clus>
<clus scale="   78.046">  5  6 -1 -1</clus>
<clus scale="   95.809">  7  8 -1 -1</clus>
<clus scale="  120.235">  1  5  2 -1</clus>
<clus scale="   91.995">  7 10 -1 -1</clus>
<clus scale="   37.581">  2  5  1 -1</clus>
</clustering>
</event>
<event>
10    4  0.2565852E-005  0.2391355E+03  0.7546771E-02  0.1156767E+00
         21   -1    0    0  503  502  0.00000000000E+00  0.00000000000E+00  0.13052178415E+03  0.13052178415E+03  0.00000000000E+00 0. -1.
          2   -1    0    0  502    0 -0.00000000000E+00 -0.00000000000E+00 -0.34074507217E+03  0.34074507217E+03  0.00000000000E+00 0. -1.
         24    2    1    2    0    0 -0.44482189097E+02  0.34740748173E+02 -0.29560484059E+02  0.10192966596E+03  0.79562867309E+02 0.  0.
         23    2    1    2    0    0  0.11997499860E+03  0.10006707974E+01 -0.22016560477E+03  0.26631878839E+03  0.89765259959E+02 0.  0.
        -13    1    3    3    0    0 -0.77660836465E+01  0.49924783147E+02 -0.35508798933E+02  0.61754925546E+02  0.00000000000E+00 0.  1.
         14    1    3    3    0    0 -0.36716105451E+02 -0.15184034974E+02  0.59483148735E+01  0.40174740415E+02  0.00000000000E+00 0. -1.
        -13    1    4    4    0    0  0.10513340821E+03  0.15983061908E+02 -0.22095676933E+03  0.24521497855E+03  0.00000000000E+00 0. -1.
         13    1    4    4    0    0  0.14841590383E+02 -0.14982391110E+02  0.79116456237E+00  0.21103809842E+02  0.00000000000E+00 0.  1.
         21    1    1    2  503  501 -0.20396133236E+02 -0.19449029245E+02  0.35635970744E+02  0.45433351190E+02  0.00000000000E+00 0. -1.
          1    1    1    2  501    0 -0.55096676262E+02 -0.16292389726E+02  0.38668300631E+01  0.57585050776E+02  0.00000000000E+00 0. -1.
<scales pt_clust_5="13000.00000" pt_clust_6="13000.00000" pt_clust_7="13000.00000" pt_clust_8="13000.00000" pt_clust_9="28.18274" pt_clust_10="13000.00000"></scales>
<clustering>
<clus scale="   28.183">  1  9  2 -1</clus>
<clus scale="   79.563">  5  6 -1 -1</clus>
<clus scale="   89.765">  7  8 -1 -1</clus>
<clus scale="   66.163">  7 10 -1 -1</clus>
<clus scale="   99.149">  2  5  1 -1</clus>
<clus scale="   28.183">  1  5  2 -1</clus>
</clustering>
</event>
<event>
10    4  0.2565852E-005  0.1121051E+04  0.7546771E-02  0.9633068E-01
         21   -1    0    0  503  502  0.00000000000E+00  0.00000000000E+00  0.10663768085E+04  0.10663768085E+04  0.00000000000E+00 0. -1.
          2   -1    0    0  502    0 -0.00000000000E+00 -0.00000000000E+00 -0.46860040338E+03  0.46860040338E+03  0.00000000000E+00 0. -1.
         24    2    1    2    0    0  0.20119762956E+03  0.77460936291E+02  0.10130050089E+03  0.25162608294E+03  0.81075343636E+02 0.  0.
         23    2    1    2    0    0  0.24083654325E+03 -0.48464703216E+02 -0.28083946160E+03  0.38413142450E+03  0.91296659679E+02 0.  0.
        -13    1    3    3    0    0  0.65804093765E+02  0.60952326971E+02  0.17034359986E+02  0.91299147529E+02  0.00000000000E+00 0.  1.
         14    1    3    3    0    0  0.13539353579E+03  0.16508609319E+02  0.84266140903E+02  0.16032693541E+03  0.00000000000E+00 0. -1.
        -11    1    4    4    0    0  0.35253161720E+02  0.25542090406E+02 -0.49439779972E+02  0.65874696487E+02  0.00000000000E+00 0.  1.
         11    1    4    4    0    0  0.20558338153E+03 -0.74006793622E+02 -0.23139968163E+03  0.31825672801E+03  0.00000000000E+00 0. -1.
         21    1    1    2  503  501 -0.21564762936E+02 -0.97569412879E+01  0.91753763657E+02  0.94757532941E+02  0.00000000000E+00 0.  1.
          1    1    1    2  501    0 -0.42046940987E+03 -0.19239291787E+02  0.68556160214E+03  0.80446217146E+03  0.00000000000E+00 0. -1.
<scales pt_clust_5="13000.00000" pt_clust_6="13000.00000" pt_clust_7="13000.00000" pt_clust_8="13000.00000" pt_clust_9="23.66932" pt_clust_10="13000.00000"></scales>
<clustering>
<clus scale="   23.669">  1  9  2 -1</clus>
<clus scale="   81.075">  5  6 -1 -1</clus>
<clus scale="   91.297">  7  8 -1 -1</clus>
<clus scale="  226.329">  2  5  1 -1</clus>
<clus scale="  404.623">  7 10 -1 -1</clus>
<clus scale="   23.669">  1  5  2 -1</clus>
</clustering>
</event>
<event>
10    4  0.2565852E-005  0.2076934E+03  0.7546771E-02  0.1179804E+00
         21   -1    0    0  503  502  0.00000000000E+00  0.00000000000E+00  0.48384329884E+03  0.48384329884E+03  0.00000000000E+00 0.  1.
         -3   -1    0    0    0  501 -0.00000000000E+00 -0.00000000000E+00 -0.10100192007E+03  0.10100192007E+03  0.00000000000E+00 0.  1.
         24    2    1    2    0    0  0.30625986468E+01 -0.33009119192E+02 -0.12028863071E+02  0.87339536287E+02  0.79903188872E+02 0.  0.
         23    2    1    2    0    0 -0.87398884521E+02  0.28488244897E+01  0.99078980029E+02  0.15986689344E+03  0.89967208019E+02 0.  0.
        -11    1    3    3    0    0 -0.34588084615E+02 -0.22900754594E+02 -0.22201922915E+02  0.47050032300E+02  0.00000000000E+00 0.  1.
         12    1    3    3    0    0  0.37650683262E+02 -0.10108364598E+02  0.10173059844E+02  0.40289503987E+02  0.00000000000E+00 0. -1.
        -11    1    4    4    0    0 -0.22021576634E+02 -0.26131668255E+02  0.78243695620E+02  0.85380851645E+02  0.00000000000E+00 0.  1.
         11    1    4    4    0    0 -0.65377307887E+02  0.28980492745E+02  0.20835284409E+02  0.74486041797E+02  0.00000000000E+00 0. -1.
         21    1    1    2  503  501  0.32834844030E+02 -0.48306196995E+02  0.17611037858E+03  0.18554374443E+03  0.00000000000E+00 0.  1.
         -4    1    1    2    0  502  0.51501441844E+02  0.78466491697E+02  0.11968088322E+03  0.15209504476E+03  0.00000000000E+00 0.  1.
<scales pt_clust_5="13000.00000" pt_clust_6="13000.00000" pt_clust_7="13000.00000" pt_clust_8="13000.00000" pt_clust_9="58.40904" pt_clust_10="13000.00000"></scales>
<clustering>
<clus scale="   58.409">  1  9  2 -1</clus>
<clus scale="   79.903">  5  6 -1 -1</clus>
<clus scale="   89.205">  2  5  1 -1</clus>
<clus scale="   89.967">  7  8 -1 -1</clus>
<clus scale="   80.982">  7 10 -1 -1</clus>
<clus scale="   58.409">  1  5  2 -1</clus>
</clustering>
</event>
<event>
10    4  0.2565852E-005  0.2605080E+03  0.7546771E-02  0.1143004E+00
         21   -1    0    0  501  502  0.00000000000E+00  0.00000000000E+00  0.20046619223E+03  0.20046619223E+03  0.00000000000E+00 0. -1.
          2   -1    0    0  503    0 -0.00000000000E+00 -0.00000000000E+00 -0.24787588326E+03  0.24787588326E+03  0.00000000000E+00 0. -1.
         24    2    1    2    0    0  0.45106768115E+02 -0.55098423122E+02 -0.10224389678E+03  0.14760515220E+03  0.79139179710E+02 0.  0.
         23    2    1    2    0    0 -0.52450960008E+02 -0.51188711814E+02 -0.32245960259E+02  0.12340258629E+03  0.93898929313E+02 0.  0.
        -13    1    3    3    0    0  0.17041922020E+02 -0.17346312913E+02  0.96989955272E+01  0.26179996029E+02  0.00000000000E+00 0.  1.
         14    1    3    3    0    0  0.28064846095E+02 -0.37752110209E+02 -0.11194289231E+03  0.12142515617E+03  0.00000000000E+00 0. -1.
        -11    1    4    4    0    0 -0.47835297942E+02  0.11568081162E+02 -0.35040636781E+02  0.60414257067E+02  0.00000000000E+00 0.  1.
         11    1    4    4    0    0 -0.46156620659E+01 -0.62756792976E+02  0.27946765214E+01  0.62988329219E+02  0.00000000000E+00 0. -1.
         21    1    1    2  503  502 -0.23085295186E+02 -0.15274646920E+02  0.25801725480E+02  0.37841441967E+02  0.00000000000E+00 0. -1.
          1    1    1    2  501    0  0.30429487078E+02  0.12156178186E+03  0.61278440540E+02  0.13949289504E+03  0.00000000000E+00 0. -1.
<scales pt_clust_5="13000.00000" pt_clust_6="13000.00000" pt_clust_7="13000.00000" pt_clust_8="13000.00000" pt_clust_9="27.68114" pt_clust_10="13000.00000"></scales>
<clustering>
<clus scale="   27.681">  1  9  2 -1</clus>
<clus scale="   79.139">  5  6 -1 -1</clus>
<clus scale="   93.899">  7  8 -1 -1</clus>
<clus scale="  106.271">  2  5  1 -1</clus>
<clus scale="  100.073">  7 10 -1 -1</clus>
<clus scale="   27.681">  1  5  2 -1</clus>
</clustering>
</event>
<event>
10    4  0.2565852E-005  0.4163375E+03  0.7546771E-02  0.1073800E+00
         21   -1    0    0  501  502  0.00000000000E+00  0.00000000000E+00  0.44652849641E+03  0.44652849641E+03  0.00000000000E+00 0. -1.
          2   -1    0    0  503    0 -0.00000000000E+00 -0.00000000000E+00 -0.67204241612E+03  0.67204241612E+03  0.00000000000E+00 0. -1.
         24    2    1    2    0    0  0.45772280661E+02 -0.12143656874E+03 -0.52138453211E+03  0.54312918982E+03  0.79407459426E+02 0.  0.
         23    2    1    2    0    0 -0.72401110464E+02 -0.28040690931E+02 -0.50659803194E+02  0.12935390984E+03  0.90209850828E+02 0.  0.
        -13    1    3    3    0    0 -0.97296115465E+01 -0.63642860170E+02 -0.15058920948E+03  0.16377481187E+03  0.00000000000E+00 0.  1.
         14    1    3    3    0    0  0.55501892207E+02 -0.57793708571E+02 -0.37079532263E+03  0.37935437796E+03  0.00000000000E+00 0. -1.
        -13    1    4    4    0    0 -0.78481326031E+02  0.51524669021E+01 -0.14649145240E+02  0.80002899366E+02  0.00000000000E+00 0.  1.
         13    1    4    4    0    0  0.60802155672E+01 -0.33193157833E+02 -0.36010657955E+02  0.49351010472E+02  0.00000000000E+00 0. -1.
         21    1    1    2  503  502 -0.44939994270E+02 -0.45897946294E+02  0.40210625800E+02  0.75783368798E+02  0.00000000000E+00 0. -1.
          1    1    1    2  501    0  0.71568824073E+02  0.19537520597E+03  0.30631978978E+03  0.37030444407E+03  0.00000000000E+00 0. -1.
<scales pt_clust_5="13000.00000" pt_clust_6="13000.00000" pt_clust_7="13000.00000" pt_clust_8="13000.00000" pt_clust_9="64.23570" pt_clust_10="13000.00000"></scales>
<clustering>
<clus scale="   64.236">  1  9  2 -1</clus>
<clus scale="   79.407">  5  6 -1 -1</clus>
<clus scale="   90.210">  7  8 -1 -1</clus>
<clus scale="  152.799">  2  5  1 -1</clus>
<clus scale="  132.022">  7 10 -1 -1</clus>
<clus scale="   64.236">  1  5  2 -1</clus>
</clustering>
</event>
<event>
10    4  0.2565852E-005  0.2758558E+03  0.7546771E-02  0.1121362E+00
         21   -1    0    0  501  502  0.00000000000E+00  0.00000000000E+00  0.22815598287E+03  0.22815598287E+03  0.00000000000E+00 0. -1.
         -3   -1    0    0    0  501 -0.00000000000E+00 -0.00000000000E+00 -0.23420217130E+03  0.23420217130E+03  0.00000000000E+00 0.  1.
         24    2    1    2    0    0 -0.12855154641E+03 -0.19855424485E+02 -0.37609623792E+02  0.15694896200E+03  0.79364695596E+02 0.  0.
         23    2    1    2    0    0  0.92346591108E+01  0.36515063812E+02  0.93612593104E+02  0.13468528566E+03  0.89208630583E+02 0.  0.
        -13    1    3    3    0    0 -0.29124085933E+02 -0.14893105093E+02  0.23373773141E+02  0.40203858416E+02  0.00000000000E+00 0.  1.
         14    1    3    3    0    0 -0.99427460473E+02 -0.49623193925E+01 -0.60983396933E+02  0.11674510359E+03  0.00000000000E+00 0. -1.
        -13    1    4    4    0    0 -0.37880092534E+02  0.19051130291E+02  0.23656868830E+02  0.48554036070E+02  0.00000000000E+00 0.  1.
         13    1    4    4    0    0  0.47114751645E+02  0.17463933521E+02  0.69955724274E+02  0.86131249586E+02  0.00000000000E+00 0. -1.
         21    1    1    2  503  502  0.51173824525E+01 -0.19644962415E+02  0.21213744082E+02  0.29362137004E+02  0.00000000000E+00 0.  1.
         -4    1    1    2    0  503  0.11419950484E+03  0.29853230878E+01 -0.83262901820E+02  0.14136176951E+03  0.00000000000E+00 0.  1.
<scales pt_clust_5="13000.00000" pt_clust_6="13000.00000" pt_clust_7="13000.00000" pt_clust_8="13000.00000" pt_clust_9="20.30055" pt_clust_10="13000.00000"></scales>
<clustering>
<clus scale="   20.301">  1  9  2 -1</clus>
<clus scale="   79.365">  5  6 -1 -1</clus>
<clus scale="   89.209">  7  8 -1 -1</clus>
<clus scale="  114.932">  7 10 -1 -1</clus>
<clus scale="  151.976">  2  5  1 -1</clus>
<clus scale="   20.301">  1  5  2 -1</clus>
</clustering>
</event>
<event>
10    4  0.2565852E-005  0.5126873E+03  0.7546771E-02  0.1053592E+00
         21   -1    0    0  503  502  0.00000000000E+00  0.00000000000E+00  0.23203187926E+03  0.23203187926E+03  0.00000000000E+00 0. -1.
          2   -1    0    0  502    0 -0.00000000000E+00 -0.00000000000E+00 -0.92862078130E+03  0.92862078130E+03  0.00000000000E+00 0. -1.
         24    2    1    2    0    0 -0.10995486460E+03 -0.39564621205E+02 -0.18403262380E+03  0.23335428692E+03  0.83251336939E+02 0.  0.
         23    2    1    2    0    0  0.46428865951E+02 -0.17880790654E+03 -0.18768388301E+03  0.27839053078E+03  0.90267051858E+02 0.  0.
        -13    1    3    3    0    0 -0.16202306590E+02  0.17971378121E+02 -0.73638699353E+02  0.77512213313E+02  0.00000000000E+00 0.  1.
         14    1    3    3    0    0 -0.93752558012E+02 -0.57535999326E+02 -0.11039392445E+03  0.15584207361E+03  0.00000000000E+00 0. -1.
        -13    1    4    4    0    0 -0.22527295862E+02 -0.69379303109E+02 -0.92488059463E+02  0.11779222344E+03  0.00000000000E+00 0.  1.
         13    1    4    4    0    0  0.68956161813E+02 -0.10942860343E+03 -0.95195823550E+02  0.16059830734E+03  0.00000000000E+00 0. -1.
         21    1    1    2  503  501  0.13529042904E+03 -0.66272119391E+02  0.62307032579E+02  0.16302656319E+03  0.00000000000E+00 0. -1.
          1    1    1    2  501    0 -0.71764430386E+02  0.28464464713E+03 -0.38717942781E+03  0.48588127967E+03  0.00000000000E+00 0. -1.
<scales pt_clust_5="13000.00000" pt_clust_6="13000.00000" pt_clust_7="13000.00000" pt_clust_8="13000.00000" pt_clust_9="145.07920" pt_clust_10="13000.00000"></scales>
<clustering>
<clus scale="   83.251">  5  6 -1 -1</clus>
<clus scale="   90.267">  7  8 -1 -1</clus>
<clus scale="  143.479">  2  5  1 -1</clus>
<clus scale="  145.079">  1  9  2 -1</clus>
<clus scale="  237.423">  7 10 -1 -1</clus>
<clus scale="  145.079">  1  5  2 -1</clus>
</clustering>
</event>
<event>
10    4  0.2565852E-005  0.2456993E+03  0.7546771E-02  0.1138667E+00
         21   -1    0    0  501  502  0.00000000000E+00  0.00000000000E+00  0.57926394677E+02  0.57926394677E+02  0.00000000000E+00 0. -1.
          2   -1    0    0  503    0 -0.00000000000E+00 -0.00000000000E+00 -0.88178196649E+03  0.88178196649E+03  0.00000000000E+00 0. -1.
         24    2    1    2    0    0  0.13085962012E+03 -0.69940862635E+01 -0.30204805962E+03  0.33891314282E+03  0.80348806084E+02 0.  0.
         23    2    1    2    0    0 -0.48546455431E+02 -0.33142736677E+02 -0.85907562274E+02  0.13517593947E+03  0.86239353123E+02 0.  0.
        -11    1    3    3    0    0  0.20163407778E+02  0.26519739047E+02 -0.10789806198E+03  0.11292409553E+03  0.00000000000E+00 0.  1.
         12    1    3    3    0    0  0.11069621234E+03 -0.33513825311E+02 -0.19414999764E+03  0.22598904729E+03  0.00000000000E+00 0. -1.
        -11    1    4    4    0    0  0.22823487670E+02 -0.22186371173E+02 -0.31347302520E+02  0.44674377786E+02  0.00000000000E+00 0.  1.
         11    1    4    4    0    0 -0.71369943101E+02 -0.10956365504E+02 -0.54560259753E+02  0.90501561686E+02  0.00000000000E+00 0. -1.
         21    1    1    2  503  502 -0.37513690263E+02  0.13296856770E+02 -0.16672584219E+02  0.43151574961E+02  0.00000000000E+00 0. -1.
          1    1    1    2  501    0 -0.44799474424E+02  0.26839966170E+02 -0.41922736570E+03  0.42246770391E+03  0.00000000000E+00 0. -1.
<scales pt_clust_5="13000.00000" pt_clust_6="13000.00000" pt_clust_7="13000.00000" pt_clust_8="13000.00000" pt_clust_9="39.80054" pt_clust_10="13000.00000"></scales>
<clustering>
<clus scale="   39.801">  1  9  2 -1</clus>
<clus scale="   80.349">  5  6 -1 -1</clus>
<clus scale="   86.239">  7  8 -1 -1</clus>
<clus scale="   53.640">  7 10 -1 -1</clus>
<clus scale="  140.613">  2  5  1 -1</clus>
<clus scale="   39.801">  1  5  2 -1</clus>
</clustering>
</event>
<event>
10    4  0.2565852E-005  0.2204478E+03  0.7546771E-02  0.1151706E+00
          2   -1    0    0  502    0 -0.00000000000E+00  0.00000000000E+00  0.27319190580E+04  0.27319190580E+04  0.00000000000E+00 0. -1.
         21   -1    0    0  503  502  0.00000000000E+00 -0.00000000000E+00 -0.27078397124E+02  0.27078397124E+02  0.00000000000E+00 0. -1.
         24    2    1    2    0    0 -0.51489207516E+02 -0.10218314527E+03  0.15713761018E+04  0.15776098432E+04  0.80854378266E+02 0.  0.
         23    2    1    2    0    0  0.40604601476E+02  0.63482494582E+01  0.35179914840E+03  0.36580586155E+03  0.91445358561E+02 0.  0.
        -11    1    3    3    0    0 -0.28393420088E+02 -0.62061350668E+01  0.14874335930E+03  0.15155622506E+03  0.00000000000E+00 0.  1.
         12    1    3    3    0    0 -0.23095787428E+02 -0.95977010205E+02  0.14226327425E+04  0.14260536181E+04  0.00000000000E+00 0. -1.
        -13    1    4    4    0    0  0.21018853263E+02 -0.42520045748E+02  0.15589877986E+03  0.16295452140E+03  0.00000000000E+00 0. -1.
         13    1    4    4    0    0  0.19585748213E+02  0.48868295206E+02  0.19590036854E+03  0.20285134016E+03  0.00000000000E+00 0.  1.
         21    1    1    2  503  501  0.80315795526E+01 -0.19134054109E+02 -0.43459762265E+01  0.21201551974E+02  0.00000000000E+00 0. -1.
          1    1    1    2  501    0  0.28530264868E+01  0.11496894992E+03  0.78601138693E+03  0.79438019839E+03  0.00000000000E+00 0. -1.
<scales pt_clust_5="13000.00000" pt_clust_6="13000.00000" pt_clust_7="13000.00000" pt_clust_8="13000.00000" pt_clust_9="20.75134" pt_clust_10="13000.00000"></scales>
<clustering>
<clus scale="   20.751">  2  9  1 -1</clus>
<clus scale="   80.854">  5  6 -1 -1</clus>
<clus scale="   91.445">  7  8 -1 -1</clus>
<clus scale="  109.496">  7 10 -1 -1</clus>
<clus scale="  142.556">  1  5  2 -1</clus>
<clus scale="   20.751">  2  5  1 -1</clus>
</clustering>
</event>
<event>
10    4  0.2565852E-005  0.2547311E+03  0.7546771E-02  0.1138748E+00
          2   -1    0    0  502    0 -0.00000000000E+00  0.00000000000E+00  0.11119411502E+04  0.11119411502E+04  0.00000000000E+00 0. -1.
         21   -1    0    0  503  502  0.00000000000E+00 -0.00000000000E+00 -0.41833636968E+02  0.41833636968E+02  0.00000000000E+00 0. -1.
         24    2    1    2    0    0 -0.51938817163E+02 -0.87263573998E+02  0.30445449377E+03  0.33057701222E+03  0.79221525855E+02 0.  0.
         23    2    1    2    0    0  0.52264266796E+02 -0.60662378927E+02  0.47217737831E+03  0.48751000277E+03  0.91121064583E+02 0.  0.
        -11    1    3    3    0    0 -0.19744269541E+02  0.12656096709E+02  0.65787362384E+02  0.69842608865E+02  0.00000000000E+00 0.  1.
         12    1    3    3    0    0 -0.32194547622E+02 -0.99919670707E+02  0.23866713138E+03  0.26073440336E+03  0.00000000000E+00 0. -1.
        -11    1    4    4    0    0  0.22782372905E+02  0.22112572525E+02  0.16428660652E+03  0.16732630236E+03  0.00000000000E+00 0. -1.
         11    1    4    4    0    0  0.29481893891E+02 -0.82774951452E+02  0.30789077179E+03  0.32018370041E+03  0.00000000000E+00 0.  1.
         21    1    1    2  503  501 -0.23829509723E+02  0.28210911022E+02  0.40363370681E+02  0.54707428444E+02  0.00000000000E+00 0. -1.
          1    1    1    2  501    0  0.23504060090E+02  0.11971504190E+03  0.25311227045E+03  0.28098034370E+03  0.00000000000E+00 0. -1.
<scales pt_clust_5="13000.00000" pt_clust_6="13000.00000" pt_clust_7="13000.00000" pt_clust_8="13000.00000" pt_clust_9="36.92832" pt_clust_10="13000.00000"></scales>
<clustering>
<clus scale="   36.928">  2  9  1 -1</clus>
<clus scale="   79.222">  5  6 -1 -1</clus>
<clus scale="   91.121">  7  8 -1 -1</clus>
<clus scale="  125.935">  1  5  2 -1</clus>
<clus scale="   99.823">  7 10 -1 -1</clus>
<clus scale="   36.928">  2  5  1 -1</clus>
</clustering>
</event>
<event>
10    4  0.2565852E-005  0.3123293E+03  0.7546771E-02  0.1128638E+00
         21   -1    0    0  501  502  0.00000000000E+00  0.00000000000E+00  0.24283648560E+03  0.24283648560E+03  0.00000000000E+00 0. -1.
         -1   -1    0    0    0  501 -0.00000000000E+00 -0.00000000000E+00 -0.19154730984E+03  0.19154730984E+03  0.00000000000E+00 0.  1.
         24    2    1    2    0    0  0.16305208937E+02  0.32779817327E+02 -0.83287669037E+01  0.88785091343E+02  0.80455253553E+02 0.  0.
         23    2    1    2    0    0 -0.50588546455E+02 -0.14228939100E+03  0.58935501742E+02  0.18485688939E+03  0.88843707516E+02 0.  0.
        -13    1    3    3    0    0 -0.56936962242E+01  0.29167409888E+02 -0.40137587900E+02  0.49941785498E+02  0.00000000000E+00 0.  1.
         14    1    3    3    0    0  0.21998905161E+02  0.36124074395E+01  0.31808820997E+02  0.38843305845E+02  0.00000000000E+00 0. -1.
        -13    1    4    4    0    0 -0.30297684409E+02 -0.13036006175E+03  0.77700200958E+02  0.15475469818E+03  0.00000000000E+00 0. -1.
         13    1    4    4    0    0 -0.20290862046E+02 -0.11929329254E+02 -0.18764699216E+02  0.30102191211E+02  0.00000000000E+00 0.  1.
         21    1    1    2  503  502 -0.20466973971E+02 -0.48697256545E+01  0.23884401431E+02  0.31828852998E+02  0.00000000000E+00 0.  1.
         -2    1    1    2    0  503  0.54750311489E+02  0.11437929933E+03 -0.23201960512E+02  0.12891296170E+03  0.00000000000E+00 0.  1.
<scales pt_clust_5="13000.00000" pt_clust_6="13000.00000" pt_clust_7="13000.00000" pt_clust_8="13000.00000" pt_clust_9="21.03833" pt_clust_10="13000.00000"></scales>
<clustering>
<clus scale="   21.038">  1  9  2 -1</clus>
<clus scale="   80.455">  5  6 -1 -1</clus>
<clus scale="   87.432">  2  5  1 -1</clus>
<clus scale="   88.844">  7  8 -1 -1</clus>
<clus scale="  141.230">  7 10 -1 -1</clus>
<clus scale="   21.038">  1  5  2 -1</clus>
</clustering>
</event>
<event>
10    4  0.2565852E-005  0.1253725E+03  0.7546771E-02  0.1256326E+00
         -3   -1    0    0    0  501 -0.00000000000E+00  0.00000000000E+00  0.13190435758E+03  0.13190435758E+03  0.00000000000E+00 0.  1.
         21   -1    0    0  501  502  0.00000000000E+00 -0.00000000000E+00 -0.15703478812E+03  0.15703478812E+03  0.00000000000E+00 0. -1.
         24    2    1    2    0    0 -0.12070487852E+02  0.13269291333E+01  0.66890125656E+02  0.10519001721E+03  0.80269504750E+02 0.  0.
         23    2    1    2    0    0 -0.12429612136E+02 -0.41080563586E+02 -0.70792645194E+02  0.12347626440E+03  0.91611578392E+02 0.  0.
        -13    1    3    3    0    0  0.34238410070E+02 -0.37117085669E+01  0.25172719640E+02  0.42658074484E+02  0.00000000000E+00 0.  1.
         14    1    3    3    0    0 -0.46308897922E+02  0.50386377001E+01  0.41717406016E+02  0.62531942728E+02  0.00000000000E+00 0. -1.
        -13    1    4    4    0    0 -0.29046183871E+02 -0.13463614503E+02 -0.83039629615E+02  0.88997358385E+02  0.00000000000E+00 0. -1.
         13    1    4    4    0    0  0.16616571735E+02 -0.27616949083E+02  0.12246984421E+02  0.34478906020E+02  0.00000000000E+00 0.  1.
         21    1    1    2  503  502  0.26382986156E+02  0.17537988879E+02 -0.20940683846E+02  0.37975719248E+02  0.00000000000E+00 0.  1.
         -4    1    1    2    0  503 -0.18828861688E+01  0.22215645574E+02 -0.28722715590E+00  0.22297144840E+02  0.00000000000E+00 0.  1.
<scales pt_clust_5="13000.00000" pt_clust_6="13000.00000" pt_clust_7="13000.00000" pt_clust_8="13000.00000" pt_clust_9="31.68033" pt_clust_10="13000.00000"></scales>
<clustering>
<clus scale="   31.680">  2  9  1 -1</clus>
<clus scale="   80.270">  5  6 -1 -1</clus>
<clus scale="   80.775">  1  5  2 -1</clus>
<clus scale="   91.612">  7  8 -1 -1</clus>
<clus scale="   25.034">  7 10 -1 -1</clus>
<clus scale="   31.680">  2  5  1 -1</clus>
</clustering>
</event>
<event>
10    4  0.2565852E-005  0.3465463E+03  0.7546771E-02  0.1103688E+00
          2   -1    0    0  502    0 -0.00000000000E+00  0.00000000000E+00  0.66370472902E+03  0.66370472902E+03  0.00000000000E+00 0. -1.
         21   -1    0    0  503  502  0.00000000000E+00 -0.00000000000E+00 -0.15962553863E+03  0.15962553863E+03  0.00000000000E+00 0. -1.
         24    2    1    2    0    0 -0.95502527092E+02  0.25482875895E+01  0.77429703108E+02  0.14706214949E+03  0.80651661109E+02 0.  0.
         23    2    1    2    0    0 -0.79347140220E+02  0.11674988384E+03  0.20768855502E+03  0.26442269536E+03  0.82814985946E+02 0.  0.
        -13    1    3    3    0    0  0.20331383461E+01  0.24696275104E+02  0.19013699556E+02  0.31233962706E+02  0.00000000000E+00 0.  1.
         14    1    3    3    0    0 -0.97535665438E+02 -0.22147987514E+02  0.58416003552E+02  0.11582818679E+03  0.00000000000E+00 0. -1.
        -11    1    4    4    0    0 -0.27083038563E+02  0.84694096474E+01  0.96755181484E+02  0.10083048657E+03  0.00000000000E+00 0.  1.
         11    1    4    4    0    0 -0.52264101657E+02  0.10828047419E+03  0.11093337354E+03  0.16359220879E+03  0.00000000000E+00 0. -1.
         21    1    1    2  503  501  0.18341210693E+02 -0.30744241612E+02 -0.65887091987E+02  0.74984780406E+02  0.00000000000E+00 0. -1.
          1    1    1    2  501    0  0.15650845662E+03 -0.88553929816E+02  0.28484802425E+03  0.33686064240E+03  0.00000000000E+00 0. -1.
<scales pt_clust_5="13000.00000" pt_clust_6="13000.00000" pt_clust_7="13000.00000" pt_clust_8="13000.00000" pt_clust_9="35.79956" pt_clust_10="13000.00000"></scales>
<clustering>
<clus scale="   35.800">  2  9  1 -1</clus>
<clus scale="   80.652">  5  6 -1 -1</clus>
<clus scale="   82.815">  7  8 -1 -1</clus>
<clus scale="  119.994">  1  5  2 -1</clus>
<clus scale="  148.893">  7 10 -1 -1</clus>
<clus scale="   35.800">  2  5  1 -1</clus>
</clustering>
</event>
<event>
10    4  0.2565852E-005  0.3538027E+03  0.7546771E-02  0.1120258E+00
          2   -1    0    0  502    0 -0.00000000000E+00  0.00000000000E+00  0.95274106091E+03  0.95274106091E+03  0.00000000000E+00 0. -1.
         21   -1    0    0  503  502  0.00000000000E+00 -0.00000000000E+00 -0.12686258924E+03  0.12686258924E+03  0.00000000000E+00 0.  1.
         24    2    1    2    0    0  0.58922380338E+00 -0.82941818127E+01  0.97954136516E+02  0.12279276907E+03  0.73579281309E+02 0.  0.
         23    2    1    2    0    0 -0.47103368135E+02 -0.31430490193E+02  0.18546799764E+03  0.21528765412E+03  0.93508250254E+02 0.  0.
        -11    1    3    3    0    0 -0.22937713240E+02 -0.22048069928E+02  0.88339473575E+02  0.93894188680E+02  0.00000000000E+00 0.  1.
         12    1    3    3    0    0  0.23526937044E+02  0.13753888115E+02  0.96146629412E+01  0.28898580388E+02  0.00000000000E+00 0. -1.
        -13    1    4    4    0    0  0.21432543021E+02 -0.89269570316E+01  0.94594044922E+01  0.25070396797E+02  0.00000000000E+00 0.  1.
         13    1    4    4    0    0 -0.68535911156E+02 -0.22503533162E+02  0.17600859315E+03  0.19021725732E+03  0.00000000000E+00 0. -1.
         21    1    1    2  503  501 -0.18289137820E+03  0.11685998288E+03  0.10392264794E+03  0.24063546824E+03  0.00000000000E+00 0.  1.
          1    1    1    2  501    0  0.22940552253E+03 -0.77135310873E+02  0.43853368957E+03  0.50088775872E+03  0.00000000000E+00 0. -1.
<scales pt_clust_5="13000.00000" pt_clust_6="13000.00000" pt_clust_7="13000.00000" pt_clust_8="13000.00000" pt_clust_9="216.02746" pt_clust_10="13000.00000"></scales>
<clustering>
<clus scale="   73.579">  5  6 -1 -1</clus>
<clus scale="   74.048">  1  5  2 -1</clus>
<clus scale="   93.508">  7  8 -1 -1</clus>
<clus scale="  216.027">  2  9  1 -1</clus>
<clus scale="  115.399">  7 10 -1 -1</clus>
<clus scale="  216.027">  2  5  1 -1</clus>
</clustering>
</event>
<event>
10    4  0.2565852E-005  0.8348047E+03  0.7546771E-02  0.9985451E-01
         21   -1    0    0  501  502  0.00000000000E+00  0.00000000000E+00  0.25000698882E+03  0.25000698882E+03  0.00000000000E+00 0. -1.
          2   -1    0    0  503    0 -0.00000000000E+00 -0.00000000000E+00 -0.13204307451E+04  0.13204307451E+04  0.00000000000E+00 0. -1.
         24    2    1    2    0    0  0.14574297215E+03  0.13522813027E+02 -0.37111569683E+02  0.17126642585E+03  0.80814847743E+02 0.  0.
         23    2    1    2    0    0  0.84798864929E+02 -0.23350603821E+03 -0.87540496494E+03  0.91506647189E+03  0.96420319297E+02 0.  0.
        -13    1    3    3    0    0  0.96147585788E+02 -0.75985957051E+01 -0.59026721748E+02  0.11307630517E+03  0.00000000000E+00 0.  1.
         14    1    3    3    0    0  0.49595386364E+02  0.21121408732E+02  0.21915152065E+02  0.58190120686E+02  0.00000000000E+00 0. -1.
        -13    1    4    4    0    0 -0.20073420360E+02 -0.61228423624E+02 -0.23294567737E+03  0.24169309190E+03  0.00000000000E+00 0.  1.
         13    1    4    4    0    0  0.10487228529E+03 -0.17227761459E+03 -0.64245928757E+03  0.67337338000E+03  0.00000000000E+00 0. -1.
         21    1    1    2  503  502  0.21257743607E+02 -0.68451898958E+02 -0.51016052898E+01  0.71858058078E+02  0.00000000000E+00 0.  1.
          1    1    1    2  501    0 -0.25179958069E+03  0.28843512414E+03 -0.15280561641E+03  0.41224677813E+03  0.00000000000E+00 0. -1.
<scales pt_clust_5="13000.00000" pt_clust_6="13000.00000" pt_clust_7="13000.00000" pt_clust_8="13000.00000" pt_clust_9="71.67673" pt_clust_10="13000.00000"></scales>
<clustering>
<clus scale="   71.677">  1  9  2 -1</clus>
<clus scale="   80.815">  5  6 -1 -1</clus>
<clus scale="   96.420">  7  8 -1 -1</clus>
<clus scale="  172.606">  2  5  1 -1</clus>
<clus scale="  321.361">  7 10 -1 -1</clus>
<clus scale="   71.677">  1  5  2 -1</clus>
</clustering>
</event>
<event>
10    4  0.2565852E-005  0.1710358E+03  0.7546771E-02  0.1204697E+00
          2   -1    0    0  503    0 -0.00000000000E+00  0.00000000000E+00  0.25242203876E+03  0.25242203876E+03  0.00000000000E+00 0. -1.
         21   -1    0    0  501  502  0.00000000000E+00 -0.00000000000E+00 -0.85391556368E+02  0.85391556368E+02  0.00000000000E+00 0. -1.
         24    2    1    2    0    0  0.36339309682E+02  0.98545940766E+01  0.29968556837E+02  0.97758851971E+02  0.85094184802E+02 0.  0.
         23    2    1    2    0    0 -0.55637734574E+02  0.12117548258E+02  0.17815992511E+02  0.11073771031E+03  0.93290076698E+02 0.  0.
        -13    1    3    3    0    0  0.40339265245E+02  0.18337521162E+02  0.55232266046E+02  0.70810480972E+02  0.00000000000E+00 0.  1.
         14    1    3    3    0    0 -0.39999555639E+01 -0.84829270850E+01 -0.25263709210E+02  0.26948370998E+02  0.00000000000E+00 0. -1.
        -11    1    4    4    0    0  0.24779192950E+02 -0.35672177545E+01 -0.53363899697E+01  0.25597079983E+02  0.00000000000E+00 0. -1.
         11    1    4    4    0    0 -0.80416927523E+02  0.15684766013E+02  0.23152382481E+02  0.85140630323E+02  0.00000000000E+00 0.  1.
         21    1    1    2  503  502 -0.11074406119E+01 -0.23036892896E+02  0.30439744708E+02  0.38190351097E+02  0.00000000000E+00 0. -1.
          1    1    1    2  501    0  0.20405865504E+02  0.10647505610E+01  0.88806188340E+02  0.91126681758E+02  0.00000000000E+00 0. -1.
<scales pt_clust_5="13000.00000" pt_clust_6="13000.00000" pt_clust_7="13000.00000" pt_clust_8="13000.00000" pt_clust_9="23.06351" pt_clust_10="13000.00000"></scales>
<clustering>
<clus scale="   23.064">  2  9  1 -1</clus>
<clus scale="   85.094">  5  6 -1 -1</clus>
<clus scale="   92.349">  1  5  2 -1</clus>
<clus scale="   93.290">  7  8 -1 -1</clus>
<clus scale="   39.309">  7 10 -1 -1</clus>
<clus scale="   23.064">  2  5  1 -1</clus>
</clustering>
</event>
<event>
10    4  0.2565852E-005  0.2100351E+03  0.7546771E-02  0.1165085E+00
          2   -1    0    0  503    0 -0.00000000000E+00  0.00000000000E+00  0.13529482298E+04  0.13529482298E+04  0.00000000000E+00 0. -1.
         21   -1    0    0  501  502  0.00000000000E+00 -0.00000000000E+00 -0.99589597233E+02  0.99589597233E+02  0.00000000000E+00 0.  1.
         24    2    1    2    0    0 -0.23099896445E+02 -0.87576581971E+02  0.27686171877E+02  0.12374564657E+03  0.79644196311E+02 0.  0.
         23    2    1    2    0    0 -0.64155996972E+02 -0.36202014974E+01  0.54966184172E+03  0.56084985770E+03  0.91078673853E+02 0.  0.
        -13    1    3    3    0    0 -0.25448540967E+02 -0.10205904390E+03  0.28729377539E+02  0.10903693784E+03  0.00000000000E+00 0.  1.
         14    1    3    3    0    0  0.23486445219E+01  0.14482461927E+02 -0.10432056615E+01  0.14708708734E+02  0.00000000000E+00 0. -1.
        -11    1    4    4    0    0  0.22146746187E+02 -0.11115799065E+02  0.12990450570E+03  0.13224681454E+03  0.00000000000E+00 0. -1.
         11    1    4    4    0    0 -0.86302743159E+02  0.74955975681E+01  0.41975733602E+03  0.42860304316E+03  0.00000000000E+00 0.  1.
         21    1    1    2  503  502  0.15238409509E+03  0.27272443306E+02  0.98988161704E+02  0.18374807416E+03  0.00000000000E+00 0.  1.
          1    1    1    2  501    0 -0.65128201668E+02  0.63924340162E+02  0.57702245726E+03  0.58419424860E+03  0.00000000000E+00 0. -1.
<scales pt_clust_5="13000.00000" pt_clust_6="13000.00000" pt_clust_7="13000.00000" pt_clust_8="13000.00000" pt_clust_9="150.85508" pt_clust_10="13000.00000"></scales>
<clustering>
<clus scale="   79.644">  5  6 -1 -1</clus>
<clus scale="   91.079">  7  8 -1 -1</clus>
<clus scale="   91.258">  7 10 -1 -1</clus>
<clus scale="  120.609">  1  5  2 -1</clus>
<clus scale="  150.855">  2  9  1 -1</clus>
<clus scale="  150.855">  2  5  1 -1</clus>
</clustering>
</event>
<event>
10    4  0.2565852E-005  0.4873632E+03  0.7546771E-02  0.1053943E+00
         -1   -1    0    0    0  501 -0.00000000000E+00  0.00000000000E+00  0.74179223692E+03  0.74179223692E+03  0.00000000000E+00 0.  1.
         21   -1    0    0  503  502  0.00000000000E+00 -0.00000000000E+00 -0.18886566415E+03  0.18886566415E+03  0.00000000000E+00 0. -1.
         24    2    1    2    0    0  0.84275210778E+01  0.13419326448E+03 -0.88134908965E+01  0.15682619481E+03  0.80236665011E+02 0.  0.
         23    2    1    2    0    0 -0.19550477643E+03  0.33188297393E+02  0.26102756488E+03  0.34007383953E+03  0.90505502676E+02 0.  0.
        -13    1    3    3    0    0  0.25437918587E+02  0.72100957315E+02  0.29451220990E+02  0.81932961411E+02  0.00000000000E+00 0.  1.
         14    1    3    3    0    0 -0.17010397509E+02  0.62092307168E+02 -0.38264711887E+02  0.74893233397E+02  0.00000000000E+00 0. -1.
        -13    1    4    4    0    0 -0.15663981904E+02  0.34745314708E+02  0.43976383738E+02  0.58193810237E+02  0.00000000000E+00 0.  1.
         13    1    4    4    0    0 -0.17984079453E+03 -0.15570173152E+01  0.21705118114E+03  0.28188002929E+03  0.00000000000E+00 0. -1.
         21    1    1    2  503  501 -0.93674326078E+01  0.21806693446E+02 -0.48071515210E+01  0.24215478076E+02  0.00000000000E+00 0. -1.
         -2    1    1    2    0  502  0.19644468796E+03 -0.18918825532E+03  0.30551965031E+03  0.40954238866E+03  0.00000000000E+00 0.  1.
<scales pt_clust_5="13000.00000" pt_clust_6="13000.00000" pt_clust_7="13000.00000" pt_clust_8="13000.00000" pt_clust_9="23.73353" pt_clust_10="13000.00000"></scales>
<clustering>
<clus scale="   23.734">  2  9  1 -1</clus>
<clus scale="   80.237">  5  6 -1 -1</clus>
<clus scale="   90.506">  7  8 -1 -1</clus>
<clus scale="  165.375">  1  5  2 -1</clus>
<clus scale="  223.012">  7 10 -1 -1</clus>
<clus scale="   23.734">  2  5  1 -1</clus>
</clustering>
</event>
<event>
10    4  0.2565852E-005  0.5793377E+03  0.7546771E-02  0.1007675E+00
          2   -1    0    0  502    0 -0.00000000000E+00  0.00000000000E+00  0.34241873616E+04  0.34241873616E+04  0.00000000000E+00 0. -1.
         21   -1    0    0  503  502  0.00000000000E+00 -0.00000000000E+00 -0.81998657449E+02  0.81998657449E+02  0.00000000000E+00 0.  1.
         24    2    1    2    0    0  0.45811417007E+02 -0.38220904468E+03  0.20125957355E+04  0.20507061380E+04  0.81680046319E+02 0.  0.
         23    2    1    2    0    0  0.58112070257E+02 -0.67518318218E+02  0.35549164573E+03  0.37714158931E+03  0.89026581429E+02 0.  0.
        -13    1    3    3    0    0  0.41614949756E+02 -0.33242569782E+03  0.18658642911E+04  0.18957025615E+04  0.00000000000E+00 0.  1.
         14    1    3    3    0    0  0.41964672511E+01 -0.49783346860E+02  0.14673144438E+03  0.15500357651E+03  0.00000000000E+00 0. -1.
        -11    1    4    4    0    0  0.10963239151E+02 -0.74768536901E+02  0.17856371961E+03  0.19389566443E+03  0.00000000000E+00 0.  1.
         11    1    4    4    0    0  0.47148831105E+02  0.72502186832E+01  0.17692792613E+03  0.18324592489E+03  0.00000000000E+00 0. -1.
         21    1    1    2  503  501 -0.58229291940E+00  0.23425382134E+02  0.39721995362E+02  0.46118591790E+02  0.00000000000E+00 0.  1.
          1    1    1    2  501    0 -0.10334119434E+03  0.42630198077E+03  0.93437932751E+03  0.10322196999E+04  0.00000000000E+00 0. -1.
<scales pt_clust_5="13000.00000" pt_clust_6="13000.00000" pt_clust_7="13000.00000" pt_clust_8="13000.00000" pt_clust_9="23.43262" pt_clust_10="13000.00000"></scales>
<clustering>
<clus scale="   23.433">  2  9  1 -1</clus>
<clus scale="   81.680">  5  6 -1 -1</clus>
<clus scale="   89.027">  7  8 -1 -1</clus>
<clus scale="  387.999">  1  5  2 -1</clus>
<clus scale="  176.954">  7 10 -1 -1</clus>
<clus scale="   23.433">  2  5  1 -1</clus>
</clustering>
</event>
<event>
10    4  0.2565852E-005  0.2296501E+03  0.7546771E-02  0.1149013E+00
         21   -1    0    0  503  502  0.00000000000E+00  0.00000000000E+00  0.78380582372E+02  0.78380582372E+02  0.00000000000E+00 0. -1.
          2   -1    0    0  502    0 -0.00000000000E+00 -0.00000000000E+00 -0.84001227937E+03  0.84001227937E+03  0.00000000000E+00 0. -1.
         24    2    1    2    0    0  0.23786998775E+02  0.10135043483E+03 -0.46782311534E+03  0.48590480785E+03  0.80045506353E+02 0.  0.
         23    2    1    2    0    0  0.14881142292E+02  0.92856692809E+01 -0.17423625984E+03  0.19774842892E+03  0.91861280457E+02 0.  0.
        -13    1    3    3    0    0 -0.28758486510E+02  0.50824783616E+02 -0.21298546762E+03  0.22084614236E+03  0.00000000000E+00 0.  1.
         14    1    3    3    0    0  0.52545485285E+02  0.50525651212E+02 -0.25483764772E+03  0.26505866549E+03  0.00000000000E+00 0. -1.
        -13    1    4    4    0    0  0.48968693700E+02 -0.59638147133E+01 -0.13429775915E+03  0.14307126951E+03  0.00000000000E+00 0.  1.
         13    1    4    4    0    0 -0.34087551408E+02  0.15249483994E+02 -0.39938500696E+02  0.54677159408E+02  0.00000000000E+00 0. -1.
         21    1    1    2  503  501  0.11384846511E+02  0.18546073037E+02  0.25916142188E+02  0.33841069444E+02  0.00000000000E+00 0.  1.
          1    1    1    2  501    0 -0.50052987577E+02 -0.12918217715E+03 -0.14548846400E+03  0.20089855553E+03  0.00000000000E+00 0. -1.
<scales pt_clust_5="13000.00000" pt_clust_6="13000.00000" pt_clust_7="13000.00000" pt_clust_8="13000.00000" pt_clust_9="21.76170" pt_clust_10="13000.00000"></scales>
<clustering>
<clus scale="   21.762">  1  9  2 -1</clus>
<clus scale="   80.046">  5  6 -1 -1</clus>
<clus scale="   91.861">  7  8 -1 -1</clus>
<clus scale="  126.332">  7 10 -1 -1</clus>
<clus scale="  134.399">  2  5  1 -1</clus>
<clus scale="   21.762">  1  5  2 -1</clus>
</clustering>
</event>
<event>
10    4  0.2565852E-005  0.1454676E+03  0.7546771E-02  0.1230035E+00
          2   -1    0    0  502    0 -0.00000000000E+00  0.00000000000E+00  0.13905556482E+03  0.13905556482E+03  0.00000000000E+00 0. -1.
         21   -1    0    0  503  502  0.00000000000E+00 -0.00000000000E+00 -0.17376486221E+03  0.17376486221E+03  0.00000000000E+00 0.  1.
         24    2    1    2    0    0 -0.55273621386E+02  0.51634280732E+01 -0.48071756870E+02  0.10909529987E+03  0.80678723559E+02 0.  0.
         23    2    1    2    0    0 -0.16908549246E+02  0.12538651967E+02  0.52313189001E+02  0.11119719469E+03  0.95838559733E+02 0.  0.
        -13    1    3    3    0    0 -0.65444227742E+02 -0.18322580278E+02 -0.48510185999E+02  0.83497916372E+02  0.00000000000E+00 0.  1.
         14    1    3    3    0    0  0.10170606356E+02  0.23486008352E+02  0.43842912922E+00  0.25597383500E+02  0.00000000000E+00 0. -1.
        -13    1    4    4    0    0  0.30090524570E+02  0.28550163543E+02  0.35932243282E+01  0.41634874424E+02  0.00000000000E+00 0. -1.
         13    1    4    4    0    0 -0.46999073816E+02 -0.16011511576E+02  0.48719964672E+02  0.69562320261E+02  0.00000000000E+00 0.  1.
         21    1    1    2  503  501  0.33173142972E+02 -0.50046099887E+01 -0.39079141143E+02  0.51504201851E+02  0.00000000000E+00 0. -1.
          1    1    1    2  501    0  0.39009027659E+02 -0.12697470052E+02  0.12841161566E+00  0.41023730622E+02  0.00000000000E+00 0. -1.
<scales pt_clust_5="13000.00000" pt_clust_6="13000.00000" pt_clust_7="13000.00000" pt_clust_8="13000.00000" pt_clust_9="33.54853" pt_clust_10="13000.00000"></scales>
<clustering>
<clus scale="   33.549">  2  9  1 -1</clus>
<clus scale="   80.679">  5  6 -1 -1</clus>
<clus scale="   87.962">  1  5  2 -1</clus>
<clus scale="   95.839">  7  8 -1 -1</clus>
<clus scale="   37.885">  7 10 -1 -1</clus>
<clus scale="   33.549">  2  5  1 -1</clus>
</clustering>
</event>
<event>
10    4  0.2565852E-005  0.1749640E+03  0.7546771E-02  0.1199340E+00
         21   -1    0    0  501  502  0.00000000000E+00  0.00000000000E+00  0.39437224678E+02  0.39437224678E+02  0.00000000000E+00 0. -1.
          2   -1    0    0  503    0 -0.00000000000E+00 -0.00000000000E+00 -0.59810928416E+03  0.59810928416E+03  0.00000000000E+00 0. -1.
         24    2    1    2    0    0 -0.44083107420E+02 -0.16685967405E+02 -0.26080042607E+03  0.27738528886E+03  0.81877923578E+02 0.  0.
         23    2    1    2    0    0  0.17487700950E+02  0.68139408998E+02 -0.12702944562E+03  0.17202850976E+03  0.92241689994E+02 0.  0.
        -11    1    3    3    0    0  0.19392588769E+02 -0.23527863145E+02 -0.91567339443E+02  0.96510157476E+02  0.00000000000E+00 0.  1.
         12    1    3    3    0    0 -0.63475696189E+02  0.68418957398E+01 -0.16923308663E+03  0.18087513139E+03  0.00000000000E+00 0. -1.
        -11    1    4    4    0    0 -0.27422469986E+02  0.64540575358E+02 -0.87152590612E+02  0.11186175297E+03  0.00000000000E+00 0. -1.
         11    1    4    4    0    0  0.44910170936E+02  0.35988336396E+01 -0.39876855004E+02  0.60166756786E+02  0.00000000000E+00 0.  1.
         21    1    1    2  503  502 -0.16141239428E+02 -0.14675714276E+02 -0.37935291907E+02  0.43760742359E+02  0.00000000000E+00 0. -1.
          1    1    1    2  501    0  0.42736645898E+02 -0.36777727317E+02 -0.13290689588E+03  0.14437196786E+03  0.00000000000E+00 0. -1.
<scales pt_clust_5="13000.00000" pt_clust_6="13000.00000" pt_clust_7="13000.00000" pt_clust_8="13000.00000" pt_clust_9="21.81550" pt_clust_10="13000.00000"></scales>
<clustering>
<clus scale="   21.816">  1  9  2 -1</clus>
<clus scale="   81.878">  5  6 -1 -1</clus>
<clus scale="   92.242">  7  8 -1 -1</clus>
<clus scale="   56.068">  7 10 -1 -1</clus>
<clus scale="   96.874">  2  5  1 -1</clus>
<clus scale="   21.816">  1  5  2 -1</clus>
</clustering>
</event>
<event>
10    4  0.2565852E-005  0.4166949E+03  0.7546771E-02  0.1060119E+00
         21   -1    0    0  503  502  0.00000000000E+00  0.00000000000E+00  0.11320196054E+03  0.11320196054E+03  0.00000000000E+00 0. -1.
          2   -1    0    0  502    0 -0.00000000000E+00 -0.00000000000E+00 -0.25879634229E+04  0.25879634229E+04  0.00000000000E+00 0. -1.
         24    2    1    2    0    0 -0.20215387956E+03 -0.15738807010E+02 -0.11755627177E+04  0.11954987753E+04  0.78458381344E+02 0.  0.
         23    2    1    2    0    0  0.39741393644E+02 -0.12377659653E+03 -0.49746056708E+03  0.51748280759E+03  0.58492872506E+02 0.  0.
        -11    1    3    3    0    0 -0.37479803144E+02 -0.11651907480E+02 -0.10055084323E+03  0.10793968068E+03  0.00000000000E+00 0.  1.
         12    1    3    3    0    0 -0.16467407642E+03 -0.40868995301E+01 -0.10750118744E+04  0.10875590947E+04  0.00000000000E+00 0. -1.
        -11    1    4    4    0    0  0.36686720898E+02 -0.56647262979E+02 -0.33396479879E+03  0.34071588563E+03  0.00000000000E+00 0.  1.
         11    1    4    4    0    0  0.30546727458E+01 -0.67129333552E+02 -0.16349576830E+03  0.17676692196E+03  0.00000000000E+00 0. -1.
         21    1    1    2  503  501 -0.12056124067E+02 -0.91084183693E+02  0.38471226317E+02  0.99607800402E+02  0.00000000000E+00 0. -1.
          1    1    1    2  501    0  0.17446860998E+03  0.23059958723E+03 -0.84020940394E+03  0.88857600011E+03  0.00000000000E+00 0. -1.
<scales pt_clust_5="13000.00000" pt_clust_6="13000.00000" pt_clust_7="13000.00000" pt_clust_8="13000.00000" pt_clust_9="91.87861" pt_clust_10="13000.00000"></scales>
<clustering>
<clus scale="   58.493">  7  8 -1 -1</clus>
<clus scale="   78.458">  5  6 -1 -1</clus>
<clus scale="   91.879">  1  9  2 -1</clus>
<clus scale="  222.367">  2  5  1 -1</clus>
<clus scale="  175.776">  7 10 -1 -1</clus>
<clus scale="   91.879">  1  5  2 -1</clus>
</clustering>
</event>
<event>
10    4  0.2565852E-005  0.2254937E+03  0.7546771E-02  0.1162715E+00
         21   -1    0    0  501  502  0.00000000000E+00  0.00000000000E+00  0.59580368758E+02  0.59580368758E+02  0.00000000000E+00 0.  1.
          2   -1    0    0  503    0 -0.00000000000E+00 -0.00000000000E+00 -0.87494482363E+03  0.87494482363E+03  0.00000000000E+00 0. -1.
         24    2    1    2    0    0 -0.43651166797E+02 -0.44572712363E+02 -0.45456838362E+03  0.46589271370E+03  0.80817413033E+02 0.  0.
         23    2    1    2    0    0  0.18743998164E+02  0.12132292910E+03 -0.15843819474E+03  0.22022608991E+03  0.91248443997E+02 0.  0.
        -13    1    3    3    0    0 -0.20585731418E+02  0.21654250640E+02 -0.96420942325E+02  0.10094393012E+03  0.00000000000E+00 0.  1.
         14    1    3    3    0    0 -0.23065435379E+02 -0.66226963003E+02 -0.35814744129E+03  0.36494878359E+03  0.00000000000E+00 0. -1.
        -11    1    4    4    0    0 -0.12187542987E+01  0.29656492009E+02 -0.11138620957E+03  0.11527306955E+03  0.00000000000E+00 0. -1.
         11    1    4    4    0    0  0.19962752462E+02  0.91666437092E+02 -0.47051985171E+02  0.10495302036E+03  0.00000000000E+00 0.  1.
         21    1    1    2  503  502  0.20478378786E+02 -0.31425572227E+02  0.34057740511E+01  0.37663375903E+02  0.00000000000E+00 0.  1.
          1    1    1    2  501    0  0.44287898476E+01 -0.45324644511E+02 -0.20576365056E+03  0.21074301287E+03  0.00000000000E+00 0. -1.
<scales pt_clust_5="13000.00000" pt_clust_6="13000.00000" pt_clust_7="13000.00000" pt_clust_8="13000.00000" pt_clust_9="37.50907" pt_clust_10="13000.00000"></scales>
<clustering>
<clus scale="   37.509">  1  9  2 -1</clus>
<clus scale="   80.817">  5  6 -1 -1</clus>
<clus scale="   91.248">  7  8 -1 -1</clus>
<clus scale="   47.675">  7 10 -1 -1</clus>
<clus scale="  102.957">  2  5  1 -1</clus>
<clus scale="   37.509">  1  5  2 -1</clus>
</clustering>
</event>
<event>
10    4  0.2565852E-005  0.2120323E+03  0.7546771E-02  0.1168967E+00
          2   -1    0    0  503    0 -0.00000000000E+00  0.00000000000E+00  0.59556317948E+03  0.59556317948E+03  0.00000000000E+00 0. -1.
         21   -1    0    0  501  502  0.00000000000E+00 -0.00000000000E+00 -0.23355431229E+03  0.23355431229E+03  0.00000000000E+00 0. -1.
         24    2    1    2    0    0  0.38296863003E+02 -0.62335988207E+02  0.48574857839E+03  0.49772668877E+03  0.80173250895E+02 0.  0.
         23    2    1    2    0    0 -0.32636605755E+01  0.31985067505E+02  0.74263899468E+02  0.12403750001E+03  0.94002545815E+02 0.  0.
        -13    1    3    3    0    0  0.72671718122E+01 -0.48271137528E+02  0.10888904688E+03  0.11933037767E+03  0.00000000000E+00 0.  1.
         14    1    3    3    0    0  0.31029691190E+02 -0.14064850678E+02  0.37685953151E+03  0.37839631110E+03  0.00000000000E+00 0. -1.
        -13    1    4    4    0    0 -0.47956322149E+02  0.21552509662E+02  0.31400026313E+02  0.61239539182E+02  0.00000000000E+00 0.  1.
         13    1    4    4    0    0  0.44692661574E+02  0.10432557842E+02  0.42863873155E+02  0.62797960823E+02  0.00000000000E+00 0. -1.
         21    1    1    2  503  502 -0.10692420232E+02  0.35110280658E+02 -0.12256030361E+03  0.12793782740E+03  0.00000000000E+00 0. -1.
          1    1    1    2  501    0 -0.24340782195E+02 -0.47593599556E+01 -0.75443307052E+02  0.79415475595E+02  0.00000000000E+00 0. -1.
<scales pt_clust_5="13000.00000" pt_clust_6="13000.00000" pt_clust_7="13000.00000" pt_clust_8="13000.00000" pt_clust_9="36.70231" pt_clust_10="13000.00000"></scales>
<clustering>
<clus scale="   36.702">  2  9  1 -1</clus>
<clus scale="   80.173">  5  6 -1 -1</clus>
<clus scale="   94.003">  7  8 -1 -1</clus>
<clus scale="   37.905">  7 10 -1 -1</clus>
<clus scale="  107.224">  1  5  2 -1</clus>
<clus scale="   36.702">  2  5  1 -1</clus>
</clustering>
</event>
<event>
10    4  0.2565852E-005  0.4778982E+03  0.7546771E-02  0.1062333E+00
          2   -1    0    0  502    0 -0.00000000000E+00  0.00000000000E+00  0.86271577695E+03  0.86271577695E+03  0.00000000000E+00 0. -1.
         21   -1    0    0  503  502  0.00000000000E+00 -0.00000000000E+00 -0.14375749620E+03  0.14375749620E+03  0.00000000000E+00 0. -1.
         24    2    1    2    0    0  0.43722633632E+02 -0.10735227971E+03  0.10995133725E+03  0.18007789267E+03  0.83081708070E+02 0.  0.
         23    2    1    2    0    0  0.69842447492E+02  0.19559365330E+03  0.13558942917E+03  0.26756564327E+03  0.10035953106E+03 0.  0.
        -11    1    3    3    0    0  0.60647819744E+02 -0.40951825537E+02  0.66914891823E+02  0.99160540550E+02  0.00000000000E+00 0.  1.
         12    1    3    3    0    0 -0.16925186113E+02 -0.66400454178E+02  0.43036445423E+02  0.80917352123E+02  0.00000000000E+00 0. -1.
        -13    1    4    4    0    0 -0.14730522184E+02  0.81966413623E+02  0.22372722056E+02  0.86232360157E+02  0.00000000000E+00 0.  1.
         13    1    4    4    0    0  0.84572969676E+02  0.11362723967E+03  0.11321670712E+03  0.18133328312E+03  0.00000000000E+00 0. -1.
         21    1    1    2  503  501  0.95359724524E+01  0.21967195834E+02 -0.24472414202E+02  0.34240203275E+02  0.00000000000E+00 0. -1.
          1    1    1    2  501    0 -0.12310105358E+03 -0.11020856942E+03  0.49788992854E+03  0.52458953393E+03  0.00000000000E+00 0. -1.
<scales pt_clust_5="13000.00000" pt_clust_6="13000.00000" pt_clust_7="13000.00000" pt_clust_8="13000.00000" pt_clust_9="23.94770" pt_clust_10="13000.00000"></scales>
<clustering>
<clus scale="   23.948">  2  9  1 -1</clus>
<clus scale="   83.082">  5  6 -1 -1</clus>
<clus scale="  100.360">  7  8 -1 -1</clus>
<clus scale="  138.574">  1  5  2 -1</clus>
<clus scale="  198.296">  7 10 -1 -1</clus>
<clus scale="   23.948">  2  5  1 -1</clus>
</clustering>
</event>
<event>
10    4  0.2565852E-005  0.1640285E+03  0.7546771E-02  0.1202517E+00
          2   -1    0    0  503    0 -0.00000000000E+00  0.00000000000E+00  0.93874849958E+03  0.93874849958E+03  0.00000000000E+00 0. -1.
         21   -1    0    0  501  502  0.00000000000E+00 -0.00000000000E+00 -0.34305577328E+03  0.34305577328E+03  0.00000000000E+00 0. -1.
         24    2    1    2    0    0  0.59595419091E+02  0.67887452676E+01  0.90341362053E+03  0.91004177784E+03  0.91772363003E+02 0.  0.
         23    2    1    2    0    0 -0.54350282954E+02 -0.23218494718E+02 -0.23692105366E+03  0.26048251693E+03  0.90700078308E+02 0.  0.
        -11    1    3    3    0    0  0.39348617078E+02  0.56211020179E+01  0.12091891837E+03  0.12728430882E+03  0.00000000000E+00 0.  1.
         12    1    3    3    0    0  0.20246802013E+02  0.11676432497E+01  0.78249470216E+03  0.78275746901E+03  0.00000000000E+00 0. -1.
        -13    1    4    4    0    0  0.20210361080E+02  0.97996169921E+01 -0.26063020127E+02  0.34405990849E+02  0.00000000000E+00 0.  1.
         13    1    4    4    0    0 -0.74560644034E+02 -0.33018111710E+02 -0.21085803353E+03  0.22607652608E+03  0.00000000000E+00 0. -1.
         21    1    1    2  503  502  0.20675979336E+02 -0.27009413634E+02 -0.37957653719E+02  0.50968500294E+02  0.00000000000E+00 0. -1.
          1    1    1    2  501    0 -0.25921115474E+02  0.43439163085E+02 -0.32842186855E+02  0.60311477799E+02  0.00000000000E+00 0. -1.
<scales pt_clust_5="13000.00000" pt_clust_6="13000.00000" pt_clust_7="13000.00000" pt_clust_8="13000.00000" pt_clust_9="34.01477" pt_clust_10="13000.00000"></scales>
<clustering>
<clus scale="   34.015">  2  9  1 -1</clus>
<clus scale="   90.700">  7  8 -1 -1</clus>
<clus scale="   45.319">  7 10 -1 -1</clus>
<clus scale="   91.772">  5  6 -1 -1</clus>
<clus scale="  109.742">  1  5  2 -1</clus>
<clus scale="   34.015">  2  5  1 -1</clus>
</clustering>
</event>
<event>
10    4  0.2565852E-005  0.6923064E+03  0.7546771E-02  0.9956953E-01
          2   -1    0    0  502    0 -0.00000000000E+00  0.00000000000E+00  0.15723686868E+04  0.15723686868E+04  0.00000000000E+00 0. -1.
         21   -1    0    0  503  502  0.00000000000E+00 -0.00000000000E+00 -0.23682676759E+03  0.23682676759E+03  0.00000000000E+00 0.  1.
         24    2    1    2    0    0 -0.29237736439E+03  0.15560041439E+03  0.23260084110E+03  0.41250124728E+03  0.79737792528E+02 0.  0.
         23    2    1    2    0    0  0.19995851147E+03 -0.24904344254E+03  0.21922798204E+03  0.39823035451E+03  0.92306362532E+02 0.  0.
        -13    1    3    3    0    0 -0.26437786796E+03  0.15047742382E+03  0.18212882510E+03  0.35455609017E+03  0.00000000000E+00 0.  1.
         14    1    3    3    0    0 -0.27999496436E+02  0.51229905689E+01  0.50472015997E+02  0.57945157104E+02  0.00000000000E+00 0. -1.
        -11    1    4    4    0    0  0.76843491172E+02 -0.16843922618E+03  0.12829604421E+03  0.22524779691E+03  0.00000000000E+00 0. -1.
         11    1    4    4    0    0  0.12311502029E+03 -0.80604216357E+02  0.90931937832E+02  0.17298255760E+03  0.00000000000E+00 0.  1.
         21    1    1    2  503  501  0.11012440031E+02 -0.22031878036E+02 -0.49142579616E+02  0.54969724545E+02  0.00000000000E+00 0.  1.
          1    1    1    2  501    0  0.81406412896E+02  0.11547490618E+03  0.93285567574E+03  0.94349412811E+03  0.00000000000E+00 0. -1.
<scales pt_clust_5="13000.00000" pt_clust_6="13000.00000" pt_clust_7="13000.00000" pt_clust_8="13000.00000" pt_clust_9="24.63082" pt_clust_10="13000.00000"></scales>
<clustering>
<clus scale="   24.631">  2  9  1 -1</clus>
<clus scale="   79.738">  5  6 -1 -1</clus>
<clus scale="   92.306">  7  8 -1 -1</clus>
<clus scale="  140.951">  7 10 -1 -1</clus>
<clus scale="  331.248">  1  5  2 -1</clus>
<clus scale="   24.631">  2  5  1 -1</clus>
</clustering>
</event>
<event>
10    4  0.2565852E-005  0.2118555E+03  0.7546771E-02  0.1175804E+00
         21   -1    0    0  501  502  0.00000000000E+00  0.00000000000E+00  0.19871050859E+03  0.19871050859E+03  0.00000000000E+00 0. -1.
          2   -1    0    0  503    0 -0.00000000000E+00 -0.00000000000E+00 -0.34584696721E+03  0.34584696721E+03  0.00000000000E+00 0. -1.
         24    2    1    2    0    0 -0.51510900996E+02  0.40607394985E+01 -0.56873491053E+02  0.11154298819E+03  0.80854076605E+02 0.  0.
         23    2    1    2    0    0 -0.34500293155E+02  0.61591306633E+02 -0.11628863553E+03  0.16349302919E+03  0.90681666054E+02 0.  0.
        -13    1    3    3    0    0 -0.34066665971E+02  0.38179481162E+02 -0.51933854370E+02  0.72906349119E+02  0.00000000000E+00 0.  1.
         14    1    3    3    0    0 -0.17444235026E+02 -0.34118741664E+02 -0.49396366830E+01  0.38636639074E+02  0.00000000000E+00 0. -1.
        -13    1    4    4    0    0 -0.31341613163E+02  0.34020187549E+02 -0.12589660823E+03  0.13412541086E+03  0.00000000000E+00 0.  1.
         13    1    4    4    0    0 -0.31586799923E+01  0.27571119084E+02  0.96079726918E+01  0.29367618325E+02  0.00000000000E+00 0. -1.
         21    1    1    2  503  502  0.20150361465E+02  0.24550753234E+01  0.12842285809E+03  0.13001728709E+03  0.00000000000E+00 0. -1.
          1    1    1    2  501    0  0.65860832686E+02 -0.68107121455E+02 -0.10239719012E+03  0.13950417133E+03  0.00000000000E+00 0. -1.
<scales pt_clust_5="13000.00000" pt_clust_6="13000.00000" pt_clust_7="13000.00000" pt_clust_8="13000.00000" pt_clust_9="20.29937" pt_clust_10="13000.00000"></scales>
<clustering>
<clus scale="   20.299">  1  9  2 -1</clus>
<clus scale="   80.854">  5  6 -1 -1</clus>
<clus scale="   90.682">  7  8 -1 -1</clus>
<clus scale="   91.991">  2  5  1 -1</clus>
<clus scale="   82.036">  7 10 -1 -1</clus>
<clus scale="   20.299">  1  5  2 -1</clus>
</clustering>
</event>
<event>
10    4  0.2565852E-005  0.2190201E+03  0.7546771E-02  0.1172585E+00
          2   -1    0    0  503    0 -0.00000000000E+00  0.00000000000E+00  0.66268420541E+03  0.66268420541E+03  0.00000000000E+00 0. -1.
         21   -1    0    0  501  502  0.00000000000E+00 -0.00000000000E+00 -0.10411862516E+03  0.10411862516E+03  0.00000000000E+00 0. -1.
         24    2    1    2    0    0  0.48629390530E+01  0.13103797410E+02  0.28911301281E+03  0.30266933598E+03  0.88470532294E+02 0.  0.
         23    2    1    2    0    0  0.10268300501E+00 -0.21023264910E+02  0.87453672420E+02  0.12717583037E+03  0.89908613594E+02 0.  0.
        -11    1    3    3    0    0 -0.33673709168E+02  0.16859046288E+02  0.64052863257E+02  0.74302862813E+02  0.00000000000E+00 0.  1.
         12    1    3    3    0    0  0.38536648221E+02 -0.37552488779E+01  0.22506014955E+03  0.22836647316E+03  0.00000000000E+00 0. -1.
        -11    1    4    4    0    0 -0.19829765145E+01 -0.45842662173E+02  0.91100067344E+02  0.10200345161E+03  0.00000000000E+00 0. -1.
         11    1    4    4    0    0  0.20856595195E+01  0.24819397263E+02 -0.36463949239E+01  0.25172378753E+02  0.00000000000E+00 0.  1.
         21    1    1    2  503  502  0.11761761025E+03  0.53384997773E+02  0.23151893020E+02  0.13122450372E+03  0.00000000000E+00 0. -1.
          1    1    1    2  501    0 -0.12258323230E+03 -0.45465530274E+02  0.15884700201E+03  0.20573316051E+03  0.00000000000E+00 0. -1.
<scales pt_clust_5="13000.00000" pt_clust_6="13000.00000" pt_clust_7="13000.00000" pt_clust_8="13000.00000" pt_clust_9="131.25421" pt_clust_10="13000.00000"></scales>
<clustering>
<clus scale="   88.471">  5  6 -1 -1</clus>
<clus scale="   89.568">  1  5  2 -1</clus>
<clus scale="   89.909">  7  8 -1 -1</clus>
<clus scale="  126.322">  7 10 -1 -1</clus>
<clus scale="  131.254">  2  9  1 -1</clus>
<clus scale="  131.254">  2  5  1 -1</clus>
</clustering>
</event>
<event>
10    4  0.2565852E-005  0.1992384E+03  0.7546771E-02  0.1188309E+00
         21   -1    0    0  501  502  0.00000000000E+00  0.00000000000E+00  0.35267578083E+03  0.35267578083E+03  0.00000000000E+00 0. -1.
          4   -1    0    0  503    0 -0.00000000000E+00 -0.00000000000E+00 -0.10257567416E+03  0.10257567416E+03  0.00000000000E+00 0. -1.
         24    2    1    2    0    0  0.45700073616E+02 -0.24849350443E+00 -0.16571350204E+01  0.83772449088E+02  0.70189163353E+02 0.  0.
         23    2    1    2    0    0 -0.11402383045E+02  0.88368311955E+02  0.42982895531E+02  0.12873096565E+03  0.82372078479E+02 0.  0.
        -11    1    3    3    0    0  0.13047028673E+02  0.33915532651E+02  0.18341346210E+01  0.36384782011E+02  0.00000000000E+00 0.  1.
         12    1    3    3    0    0  0.32653044944E+02 -0.34164026156E+02 -0.34912696413E+01  0.47387667077E+02  0.00000000000E+00 0. -1.
        -11    1    4    4    0    0 -0.27230495565E+02  0.35054444510E+02 -0.16447698262E+02  0.47337519440E+02  0.00000000000E+00 0.  1.
         11    1    4    4    0    0  0.15828112521E+02  0.53313867445E+02  0.59430593793E+02  0.81393446214E+02  0.00000000000E+00 0. -1.
         21    1    1    2  503  502 -0.28193156798E+01 -0.21822828133E+02  0.14146237595E+03  0.14316350156E+03  0.00000000000E+00 0. -1.
          3    1    1    2  501    0 -0.31478374892E+02 -0.66296990318E+02  0.67311970209E+02  0.99584538682E+02  0.00000000000E+00 0. -1.
<scales pt_clust_5="13000.00000" pt_clust_6="13000.00000" pt_clust_7="13000.00000" pt_clust_8="13000.00000" pt_clust_9="22.00419" pt_clust_10="13000.00000"></scales>
<clustering>
<clus scale="   22.004">  1  9  2 -1</clus>
<clus scale="   70.189">  5  6 -1 -1</clus>
<clus scale="   82.372">  7  8 -1 -1</clus>
<clus scale="   81.735">  7 10 -1 -1</clus>
<clus scale="   83.578">  2  5  1 -1</clus>
<clus scale="   22.004">  1  5  2 -1</clus>
</clustering>
</event>
<event>
10    4  0.2565852E-005  0.2860954E+03  0.7546771E-02  0.1134825E+00
         21   -1    0    0  503  502  0.00000000000E+00  0.00000000000E+00  0.15726809646E+03  0.15726809646E+03  0.00000000000E+00 0. -1.
          2   -1    0    0  502    0 -0.00000000000E+00 -0.00000000000E+00 -0.34051325480E+03  0.34051325480E+03  0.00000000000E+00 0. -1.
         24    2    1    2    0    0  0.24220018314E+02  0.66217025184E+02 -0.22395440958E+02  0.10966151004E+03  0.80949288434E+02 0.  0.
         23    2    1    2    0    0 -0.11680546997E+03 -0.29990904683E+02  0.14827874621E+02  0.15353725373E+03  0.93866129344E+02 0.  0.
        -11    1    3    3    0    0  0.15195668957E+02 -0.17399524052E+02 -0.72061241132E+01  0.24198760651E+02  0.00000000000E+00 0.  1.
         12    1    3    3    0    0  0.90243493573E+01  0.83616549237E+02 -0.15189316845E+02  0.85462749393E+02  0.00000000000E+00 0. -1.
        -11    1    4    4    0    0 -0.10282949523E+03 -0.10554799650E+02 -0.25655032425E+02  0.10650581944E+03  0.00000000000E+00 0. -1.
         11    1    4    4    0    0 -0.13975974743E+02 -0.19436105033E+02  0.40482907046E+02  0.47031434294E+02  0.00000000000E+00 0.  1.
         21    1    1    2  503  501  0.19233278255E+02 -0.65183564515E+02 -0.43575548065E+02  0.80731929646E+02  0.00000000000E+00 0.  1.
          1    1    1    2  501    0  0.73352173404E+02  0.28957444013E+02 -0.13210204393E+03  0.15385065784E+03  0.00000000000E+00 0. -1.
<scales pt_clust_5="13000.00000" pt_clust_6="13000.00000" pt_clust_7="13000.00000" pt_clust_8="13000.00000" pt_clust_9="67.96191" pt_clust_10="13000.00000"></scales>
<clustering>
<clus scale="   67.962">  1  9  2 -1</clus>
<clus scale="   80.949">  5  6 -1 -1</clus>
<clus scale="   93.866">  7  8 -1 -1</clus>
<clus scale="   78.567">  7 10 -1 -1</clus>
<clus scale="   97.768">  2  5  1 -1</clus>
<clus scale="   67.962">  1  5  2 -1</clus>
</clustering>
</event>
<event>
10    4  0.2565852E-005  0.2420282E+03  0.7546771E-02  0.1141884E+00
          2   -1    0    0  503    0 -0.00000000000E+00  0.00000000000E+00  0.14388378007E+04  0.14388378007E+04  0.00000000000E+00 0. -1.
         21   -1    0    0  501  502  0.00000000000E+00 -0.00000000000E+00 -0.57163288856E+02  0.57163288856E+02  0.00000000000E+00 0. -1.
         24    2    1    2    0    0  0.15209535546E+02 -0.14906325969E+03  0.39412486660E+03  0.42937626995E+03  0.81107246046E+02 0.  0.
         23    2    1    2    0    0  0.52730779659E+01  0.14083762091E+03  0.70345175629E+03  0.72269670994E+03  0.87081113368E+02 0.  0.
        -13    1    3    3    0    0  0.15218452706E+02 -0.46215187400E+02  0.23444674953E+03  0.23944252591E+03  0.00000000000E+00 0.  1.
         14    1    3    3    0    0 -0.89171600271E-02 -0.10284807229E+03  0.15967811707E+03  0.18993374404E+03  0.00000000000E+00 0. -1.
        -11    1    4    4    0    0  0.62820731854E+00  0.11609906331E+03  0.67412310104E+03  0.68404776332E+03  0.00000000000E+00 0. -1.
         11    1    4    4    0    0  0.46448706474E+01  0.24738557605E+02  0.29328655253E+02  0.38648946617E+02  0.00000000000E+00 0.  1.
         21    1    1    2  503  502 -0.82100812082E+01  0.71033104231E+02  0.23018054753E+02  0.75119492642E+02  0.00000000000E+00 0. -1.
          1    1    1    2  501    0 -0.12272532304E+02 -0.62807465452E+02  0.26107983424E+03  0.26880861707E+03  0.00000000000E+00 0. -1.
<scales pt_clust_5="13000.00000" pt_clust_6="13000.00000" pt_clust_7="13000.00000" pt_clust_8="13000.00000" pt_clust_9="71.50600" pt_clust_10="13000.00000"></scales>
<clustering>
<clus scale="   71.506">  2  9  1 -1</clus>
<clus scale="   81.107">  5  6 -1 -1</clus>
<clus scale="   87.081">  7  8 -1 -1</clus>
<clus scale="   55.597">  7 10 -1 -1</clus>
<clus scale="  136.133">  1  5  2 -1</clus>
<clus scale="   71.506">  2  5  1 -1</clus>
</clustering>
</event>
<event>
10    4  0.2565852E-005  0.1491714E+03  0.7546771E-02  0.1215473E+00
          2   -1    0    0  503    0 -0.00000000000E+00  0.00000000000E+00  0.41057048336E+03  0.41057048336E+03  0.00000000000E+00 0. -1.
         21   -1    0    0  501  502  0.00000000000E+00 -0.00000000000E+00 -0.72879037401E+02  0.72879037401E+02  0.00000000000E+00 0. -1.
         24    2    1    2    0    0  0.83047502773E+01  0.77895273103E+02  0.74019510261E+02  0.13417010828E+03  0.79913000241E+02 0.  0.
         23    2    1    2    0    0  0.17570679161E+02 -0.17891716558E+02  0.14588917874E+03  0.17345218238E+03  0.90405557416E+02 0.  0.
        -13    1    3    3    0    0  0.26610856495E+02  0.86329887231E+01  0.52295118477E+02  0.59308056740E+02  0.00000000000E+00 0.  1.
         14    1    3    3    0    0 -0.18306106218E+02  0.69262284380E+02  0.21724391784E+02  0.74862051540E+02  0.00000000000E+00 0. -1.
        -13    1    4    4    0    0 -0.45339502385E+01 -0.45505955786E+02  0.36577074744E+02  0.58559637240E+02  0.00000000000E+00 0. -1.
         13    1    4    4    0    0  0.22104629399E+02  0.27614239228E+02  0.10931210400E+03  0.11489254514E+03  0.00000000000E+00 0.  1.
         21    1    1    2  503  502 -0.53482273756E+02 -0.85161076722E+01  0.12744883797E+02  0.55635508077E+02  0.00000000000E+00 0. -1.
          1    1    1    2  501    0  0.27606844318E+02 -0.51487448873E+02  0.10503787316E+03  0.12019172202E+03  0.00000000000E+00 0. -1.
<scales pt_clust_5="13000.00000" pt_clust_6="13000.00000" pt_clust_7="13000.00000" pt_clust_8="13000.00000" pt_clust_9="54.15605" pt_clust_10="13000.00000"></scales>
<clustering>
<clus scale="   54.156">  2  9  1 -1</clus>
<clus scale="   79.913">  5  6 -1 -1</clus>
<clus scale="   90.406">  7  8 -1 -1</clus>
<clus scale="   56.311">  7 10 -1 -1</clus>
<clus scale="  110.591">  1  5  2 -1</clus>
<clus scale="   54.156">  2  5  1 -1</clus>
</clustering>
</event>
<event>
10    4  0.2565852E-005  0.6011446E+03  0.7546771E-02  0.1004067E+00
          2   -1    0    0  502    0 -0.00000000000E+00  0.00000000000E+00  0.25771107536E+04  0.25771107536E+04  0.00000000000E+00 0. -1.
         21   -1    0    0  503  502  0.00000000000E+00 -0.00000000000E+00 -0.12112532606E+03  0.12112532606E+03  0.00000000000E+00 0.  1.
         24    2    1    2    0    0 -0.30844340980E+03 -0.25289654233E+03  0.12698037460E+04  0.13330990477E+04  0.75216484964E+02 0.  0.
         23    2    1    2    0    0  0.88764731400E+02  0.84418777914E+02  0.47317019096E+02  0.16033160800E+03  0.91987045954E+02 0.  0.
        -11    1    3    3    0    0 -0.30776772061E+03 -0.23904356231E+03  0.11924508300E+04  0.12545125653E+04  0.00000000000E+00 0.  1.
         12    1    3    3    0    0 -0.67568918354E+00 -0.13852980023E+02  0.77352915982E+02  0.78586482440E+02  0.00000000000E+00 0. -1.
        -13    1    4    4    0    0  0.59984363740E+02  0.37149740358E+02  0.71035850686E+02  0.10012152208E+03  0.00000000000E+00 0.  1.
         13    1    4    4    0    0  0.28780367660E+02  0.47269037556E+02 -0.23718831590E+02  0.60210085917E+02  0.00000000000E+00 0. -1.
         21    1    1    2  503  501  0.44269832029E+02  0.32934129988E+02  0.12160130891E+02  0.56500829456E+02  0.00000000000E+00 0. -1.
          1    1    1    2  501    0  0.17540884637E+03  0.13554363443E+03  0.11267045316E+04  0.11483045945E+04  0.00000000000E+00 0. -1.
<scales pt_clust_5="13000.00000" pt_clust_6="13000.00000" pt_clust_7="13000.00000" pt_clust_8="13000.00000" pt_clust_9="55.17676" pt_clust_10="13000.00000"></scales>
<clustering>
<clus scale="   55.177">  2  9  1 -1</clus>
<clus scale="   75.216">  5  6 -1 -1</clus>
<clus scale="   91.987">  7  8 -1 -1</clus>
<clus scale="  227.697">  7 10 -1 -1</clus>
<clus scale="  388.589">  1  5  2 -1</clus>
<clus scale="   55.177">  2  5  1 -1</clus>
</clustering>
</event>
<event>
10    4  0.2565852E-005  0.4489457E+03  0.7546771E-02  0.1078391E+00
         21   -1    0    0  501  502  0.00000000000E+00  0.00000000000E+00  0.66538024233E+03  0.66538024233E+03  0.00000000000E+00 0.  1.
          2   -1    0    0  503    0 -0.00000000000E+00 -0.00000000000E+00 -0.14867189665E+03  0.14867189665E+03  0.00000000000E+00 0. -1.
         24    2    1    2    0    0 -0.75908651247E+02 -0.24782070879E+01  0.14019809321E+03  0.17889387785E+03  0.81112572077E+02 0.  0.
         23    2    1    2    0    0 -0.14431317644E+03  0.26844499151E+02  0.26289319462E+03  0.31320921461E+03  0.86256943543E+02 0.  0.
        -11    1    3    3    0    0 -0.45876689388E+02 -0.40719101645E+02  0.90813882620E+02  0.10958958502E+03  0.00000000000E+00 0.  1.
         12    1    3    3    0    0 -0.30031961859E+02  0.38240894557E+02  0.49384210587E+02  0.69304292832E+02  0.00000000000E+00 0. -1.
        -13    1    4    4    0    0 -0.72159977502E+02  0.85885285221E+00  0.52405444825E+02  0.89185932908E+02  0.00000000000E+00 0.  1.
         13    1    4    4    0    0 -0.72153198942E+02  0.25985646299E+02  0.21048774979E+03  0.22402328170E+03  0.00000000000E+00 0. -1.
         21    1    1    2  503  502  0.18527288080E+02  0.22932344112E+02  0.11091390031E+03  0.11476517805E+03  0.00000000000E+00 0.  1.
          1    1    1    2  501    0  0.20169453961E+03 -0.47298636175E+02  0.27031575347E+01  0.20718386847E+03  0.00000000000E+00 0. -1.
<scales pt_clust_5="13000.00000" pt_clust_6="13000.00000" pt_clust_7="13000.00000" pt_clust_8="13000.00000" pt_clust_9="29.48140" pt_clust_10="13000.00000"></scales>
<clustering>
<clus scale="   29.481">  1  9  2 -1</clus>
<clus scale="   81.113">  5  6 -1 -1</clus>
<clus scale="   86.257">  7  8 -1 -1</clus>
<clus scale="  107.587">  2  5  1 -1</clus>
<clus scale="  153.372">  7 10 -1 -1</clus>
<clus scale="   29.481">  1  5  2 -1</clus>
</clustering>
</event>
<event>
10    4  0.2565852E-005  0.3130212E+03  0.7546771E-02  0.1102967E+00
         21   -1    0    0  503  502  0.00000000000E+00  0.00000000000E+00  0.76500906343E+02  0.76500906343E+02  0.00000000000E+00 0. -1.
          2   -1    0    0  502    0 -0.00000000000E+00 -0.00000000000E+00 -0.11203001716E+04  0.11203001716E+04  0.00000000000E+00 0. -1.
         24    2    1    2    0    0  0.20710899394E+02  0.13207664777E+03 -0.21774520947E+03  0.26793645642E+03  0.80646055053E+02 0.  0.
         23    2    1    2    0    0 -0.11253984867E+03 -0.12178662352E+02 -0.31958642807E+03  0.35082862429E+03  0.90175946128E+02 0.  0.
        -11    1    3    3    0    0  0.44406646443E+02  0.36329611159E+02 -0.75026191516E+02  0.94449564894E+02  0.00000000000E+00 0.  1.
         12    1    3    3    0    0 -0.23695747049E+02  0.95747036613E+02 -0.14271901795E+03  0.17348689153E+03  0.00000000000E+00 0. -1.
        -11    1    4    4    0    0 -0.16803525338E+02 -0.40535475007E+02 -0.79471506395E+02  0.90781074716E+02  0.00000000000E+00 0.  1.
         11    1    4    4    0    0 -0.95736323333E+02  0.28356812655E+02 -0.24011492168E+03  0.26004754958E+03  0.00000000000E+00 0. -1.
         21    1    1    2  503  501  0.35561115802E+00  0.24628551018E+02  0.15267891992E+02  0.28979311766E+02  0.00000000000E+00 0. -1.
          1    1    1    2  501    0  0.91473338119E+02 -0.14452653644E+03 -0.52173551973E+03  0.54905668548E+03  0.00000000000E+00 0. -1.
<scales pt_clust_5="13000.00000" pt_clust_6="13000.00000" pt_clust_7="13000.00000" pt_clust_8="13000.00000" pt_clust_9="24.63112" pt_clust_10="13000.00000"></scales>
<clustering>
<clus scale="   24.631">  1  9  2 -1</clus>
<clus scale="   80.646">  5  6 -1 -1</clus>
<clus scale="   90.176">  7  8 -1 -1</clus>
<clus scale="  165.878">  2  5  1 -1</clus>
<clus scale="  116.450">  7 10 -1 -1</clus>
<clus scale="   24.631">  1  5  2 -1</clus>
</clustering>
</event>
<event>
10    4  0.2565852E-005  0.3730882E+03  0.7546771E-02  0.1060524E+00
         21   -1    0    0  501  502  0.00000000000E+00  0.00000000000E+00  0.30149292887E+03  0.30149292887E+03  0.00000000000E+00 0. -1.
          2   -1    0    0  503    0 -0.00000000000E+00 -0.00000000000E+00 -0.68544589765E+03  0.68544589765E+03  0.00000000000E+00 0. -1.
         24    2    1    2    0    0 -0.26895325701E+03  0.77631098292E+02  0.12633419851E+03  0.31736345631E+03  0.79979946308E+02 0.  0.
         23    2    1    2    0    0  0.19073263244E+03 -0.13865781968E+03 -0.27045188796E+03  0.37005822878E+03  0.90520389720E+02 0.  0.
        -11    1    3    3    0    0 -0.83937171341E+01  0.21421655659E+02  0.15838884823E+01  0.23061884599E+02  0.00000000000E+00 0.  1.
         12    1    3    3    0    0 -0.26055953988E+03  0.56209442632E+02  0.12475031003E+03  0.29430157172E+03  0.00000000000E+00 0. -1.
        -13    1    4    4    0    0  0.10741969246E+03 -0.12869341181E+03 -0.19572223798E+03  0.25769784441E+03  0.00000000000E+00 0.  1.
         13    1    4    4    0    0  0.83312939975E+02 -0.99644078729E+01 -0.74729649978E+02  0.11236038438E+03  0.00000000000E+00 0. -1.
         21    1    1    2  503  502 -0.17258344805E+02  0.12342004503E+02  0.13014717092E+02  0.24890930106E+02  0.00000000000E+00 0.  1.
          1    1    1    2  501    0  0.95478969380E+02  0.48684716889E+02 -0.25284999643E+03  0.27462621132E+03  0.00000000000E+00 0. -1.
<scales pt_clust_5="13000.00000" pt_clust_6="13000.00000" pt_clust_7="13000.00000" pt_clust_8="13000.00000" pt_clust_9="21.21734" pt_clust_10="13000.00000"></scales>
<clustering>
<clus scale="   21.217">  1  9  2 -1</clus>
<clus scale="   79.980">  5  6 -1 -1</clus>
<clus scale="   90.520">  7  8 -1 -1</clus>
<clus scale="  106.801">  7 10 -1 -1</clus>
<clus scale="  306.318">  2  5  1 -1</clus>
<clus scale="   21.217">  1  5  2 -1</clus>
</clustering>
</event>
<event>
10    4  0.2565852E-005  0.2541109E+03  0.7546771E-02  0.1155679E+00
          2   -1    0    0  502    0 -0.00000000000E+00  0.00000000000E+00  0.74668951936E+03  0.74668951936E+03  0.00000000000E+00 0. -1.
         21   -1    0    0  503  502  0.00000000000E+00 -0.00000000000E+00 -0.63418893582E+02  0.63418893582E+02  0.00000000000E+00 0. -1.
         24    2    1    2    0    0 -0.31884536676E+02  0.96776285907E+01  0.53182228399E+02  0.10144402046E+03  0.79701064587E+02 0.  0.
         23    2    1    2    0    0 -0.46813698798E+02 -0.75572613799E+02  0.17386834549E+03  0.21550317570E+03  0.91151932632E+02 0.  0.
        -11    1    3    3    0    0 -0.52562619657E+02  0.19814233708E+02  0.54646119864E+02  0.78368560398E+02  0.00000000000E+00 0.  1.
         12    1    3    3    0    0  0.20678082981E+02 -0.10136605117E+02 -0.14638914649E+01  0.23075460067E+02  0.00000000000E+00 0. -1.
        -11    1    4    4    0    0  0.26892592673E+02 -0.24190852481E+02  0.64608113064E+02  0.74044697029E+02  0.00000000000E+00 0.  1.
         11    1    4    4    0    0 -0.73706291471E+02 -0.51381761317E+02  0.10926023242E+03  0.14145847867E+03  0.00000000000E+00 0. -1.
         21    1    1    2  503  501  0.16332632122E+02  0.13470217621E+02 -0.74076799481E+01  0.22429341431E+02  0.00000000000E+00 0. -1.
          1    1    1    2  501    0  0.62365603352E+02  0.52424767586E+02  0.46362773184E+03  0.47073187534E+03  0.00000000000E+00 0. -1.
<scales pt_clust_5="13000.00000" pt_clust_6="13000.00000" pt_clust_7="13000.00000" pt_clust_8="13000.00000" pt_clust_9="21.17077" pt_clust_10="13000.00000"></scales>
<clustering>
<clus scale="   21.171">  2  9  1 -1</clus>
<clus scale="   79.701">  5  6 -1 -1</clus>
<clus scale="   84.764">  1  5  2 -1</clus>
<clus scale="   91.152">  7  8 -1 -1</clus>
<clus scale="   80.058">  7 10 -1 -1</clus>
<clus scale="   21.171">  2  5  1 -1</clus>
</clustering>
</event>
<event>
10    4  0.2565852E-005  0.2317103E+03  0.7546771E-02  0.1133449E+00
          2   -1    0    0  502    0 -0.00000000000E+00  0.00000000000E+00  0.17835281797E+04  0.17835281797E+04  0.00000000000E+00 0. -1.
         21   -1    0    0  503  502  0.00000000000E+00 -0.00000000000E+00 -0.12099484960E+03  0.12099484960E+03  0.00000000000E+00 0. -1.
         24    2    1    2    0    0 -0.11926063368E+03  0.12416989060E+03  0.15781981670E+04  0.15896266978E+04  0.81008170795E+02 0.  0.
         23    2    1    2    0    0  0.58928160127E+01 -0.49228748517E+02  0.41163934451E+02  0.11072018250E+03  0.90034961838E+02 0.  0.
        -13    1    3    3    0    0 -0.18668259241E+02 -0.72686588642E+01  0.87291790160E+02  0.89561118428E+02  0.00000000000E+00 0.  1.
         14    1    3    3    0    0 -0.10059237444E+03  0.13143854947E+03  0.14909063768E+04  0.15000655794E+04  0.00000000000E+00 0. -1.
        -11    1    4    4    0    0 -0.68292571160E+01 -0.30409365490E+02  0.68452653829E+02  0.75213922106E+02  0.00000000000E+00 0.  1.
         11    1    4    4    0    0  0.12722073129E+02 -0.18819383027E+02 -0.27288719378E+02  0.35506260399E+02  0.00000000000E+00 0. -1.
         21    1    1    2  503  501  0.36559958487E+02  0.35170413997E+02 -0.21572351355E+02  0.55126717009E+02  0.00000000000E+00 0. -1.
          1    1    1    2  501    0  0.76807859179E+02 -0.11011155608E+03  0.64743580035E+02  0.14904943197E+03  0.00000000000E+00 0. -1.
<scales pt_clust_5="13000.00000" pt_clust_6="13000.00000" pt_clust_7="13000.00000" pt_clust_8="13000.00000" pt_clust_9="50.73055" pt_clust_10="13000.00000"></scales>
<clustering>
<clus scale="   50.731">  2  9  1 -1</clus>
<clus scale="   81.008">  5  6 -1 -1</clus>
<clus scale="   90.035">  7  8 -1 -1</clus>
<clus scale="  132.693">  7 10 -1 -1</clus>
<clus scale="  190.307">  1  5  2 -1</clus>
<clus scale="   50.731">  2  5  1 -1</clus>
</clustering>
</event>
<event>
10    4  0.2565852E-005  0.4934814E+03  0.7546771E-02  0.1052542E+00
         21   -1    0    0  503  502  0.00000000000E+00  0.00000000000E+00  0.61674262073E+03  0.61674262073E+03  0.00000000000E+00 0. -1.
          4   -1    0    0  502    0 -0.00000000000E+00 -0.00000000000E+00 -0.28499544767E+03  0.28499544767E+03  0.00000000000E+00 0. -1.
         24    2    1    2    0    0 -0.11412367651E+03 -0.10278533717E+03  0.12609680708E+02  0.17557197816E+03  0.84127738535E+02 0.  0.
         23    2    1    2    0    0 -0.70296533053E+02 -0.88648796709E+02 -0.11896751129E+03  0.18827011093E+03  0.92152884978E+02 0.  0.
        -11    1    3    3    0    0 -0.75631526510E+02 -0.12784336214E+02 -0.12132193697E+01  0.76714007560E+02  0.00000000000E+00 0.  1.
         12    1    3    3    0    0 -0.38492149996E+02 -0.90001000957E+02  0.13822900078E+02  0.98857970600E+02  0.00000000000E+00 0. -1.
        -11    1    4    4    0    0 -0.76919188969E+02 -0.23498251888E+02 -0.64852063914E+02  0.10331756708E+03  0.00000000000E+00 0.  1.
         11    1    4    4    0    0  0.66226559163E+01 -0.65150544821E+02 -0.54115447380E+02  0.84952543852E+02  0.00000000000E+00 0. -1.
         21    1    1    2  503  501  0.32367724984E+02  0.30089277180E+02  0.22870681988E+03  0.23293742439E+03  0.00000000000E+00 0. -1.
          3    1    1    2  501    0  0.15205248458E+03  0.16134485670E+03  0.20939818377E+03  0.30495855491E+03  0.00000000000E+00 0. -1.
<scales pt_clust_5="13000.00000" pt_clust_6="13000.00000" pt_clust_7="13000.00000" pt_clust_8="13000.00000" pt_clust_9="44.19315" pt_clust_10="13000.00000"></scales>
<clustering>
<clus scale="   44.193">  1  9  2 -1</clus>
<clus scale="   84.128">  5  6 -1 -1</clus>
<clus scale="   92.153">  7  8 -1 -1</clus>
<clus scale="  165.751">  2  5  1 -1</clus>
<clus scale="  208.686">  7 10 -1 -1</clus>
<clus scale="   44.193">  1  5  2 -1</clus>
</clustering>
</event>
<event>
10    4  0.2565852E-005  0.8517339E+03  0.7546771E-02  0.9834239E-01
          2   -1    0    0  503    0 -0.00000000000E+00  0.00000000000E+00  0.42273076267E+03  0.42273076267E+03  0.00000000000E+00 0. -1.
         21   -1    0    0  501  502  0.00000000000E+00 -0.00000000000E+00 -0.11438004632E+04  0.11438004632E+04  0.00000000000E+00 0. -1.
         24    2    1    2    0    0  0.14463187750E+03  0.10803385948E+03 -0.46370151661E+03  0.50440487764E+03  0.82555976748E+02 0.  0.
         23    2    1    2    0    0 -0.13870744502E+02  0.25476207543E+03 -0.27087614920E+03  0.38311200316E+03  0.91130708995E+02 0.  0.
        -13    1    3    3    0    0  0.18318171743E+02  0.30317771014E+02 -0.18836614645E+03  0.19166775364E+03  0.00000000000E+00 0.  1.
         14    1    3    3    0    0  0.12631370576E+03  0.77716088464E+02 -0.27533537015E+03  0.31273712400E+03  0.00000000000E+00 0. -1.
        -13    1    4    4    0    0  0.38750878627E+02  0.96756751452E+02 -0.97891894326E+02  0.14299063788E+03  0.00000000000E+00 0. -1.
         13    1    4    4    0    0 -0.52621623129E+02  0.15800532398E+03 -0.17298425488E+03  0.24012136528E+03  0.00000000000E+00 0.  1.
         21    1    1    2  503  502  0.12528239498E+03  0.84093749471E+02 -0.52495666011E+02  0.15975992032E+03  0.00000000000E+00 0.  1.
          1    1    1    2  501    0 -0.25604352798E+03 -0.44688968438E+03  0.66003631337E+02  0.51925442471E+03  0.00000000000E+00 0. -1.
<scales pt_clust_5="13000.00000" pt_clust_6="13000.00000" pt_clust_7="13000.00000" pt_clust_8="13000.00000" pt_clust_9="150.88890" pt_clust_10="13000.00000"></scales>
<clustering>
<clus scale="   82.556">  5  6 -1 -1</clus>
<clus scale="   91.131">  7  8 -1 -1</clus>
<clus scale="  150.889">  2  9  1 -1</clus>
<clus scale="  264.084">  1  5  2 -1</clus>
<clus scale="  327.743">  7 10 -1 -1</clus>
<clus scale="  150.889">  2  5  1 -1</clus>
</clustering>
</event>
<event>
10    4  0.2565852E-005  0.1950718E+03  0.7546771E-02  0.1172599E+00
         21   -1    0    0  501  502  0.00000000000E+00  0.00000000000E+00  0.91556412510E+02  0.91556412510E+02  0.00000000000E+00 0. -1.
          2   -1    0    0  503    0 -0.00000000000E+00 -0.00000000000E+00 -0.50547550563E+03  0.50547550563E+03  0.00000000000E+00 0. -1.
         24    2    1    2    0    0 -0.43083229022E+02  0.84248645796E+02 -0.25788794558E+03  0.28436582100E+03  0.73510058724E+02 0.  0.
         23    2    1    2    0    0 -0.26766441159E+01 -0.20901875468E+02 -0.48328401107E+02  0.10430529830E+03  0.89999489325E+02 0.  0.
        -11    1    3    3    0    0 -0.31000239624E+02  0.24486030251E+02 -0.33357269254E+02  0.51703848467E+02  0.00000000000E+00 0.  1.
         12    1    3    3    0    0 -0.12082989398E+02  0.59762615545E+02 -0.22453067633E+03  0.23266197253E+03  0.00000000000E+00 0. -1.
        -13    1    4    4    0    0  0.37250268772E+02 -0.70142483885E+01  0.27478840899E+01  0.38004382260E+02  0.00000000000E+00 0. -1.
         13    1    4    4    0    0 -0.39926912888E+02 -0.13887627080E+02 -0.51076285197E+02  0.66300916043E+02  0.00000000000E+00 0.  1.
         21    1    1    2  503  502 -0.10754812495E+02  0.44498512110E+02  0.38074713193E-01  0.45779744664E+02  0.00000000000E+00 0. -1.
          1    1    1    2  501    0  0.56514685632E+02 -0.10784528244E+03 -0.10774082114E+03  0.16258105418E+03  0.00000000000E+00 0. -1.
<scales pt_clust_5="13000.00000" pt_clust_6="13000.00000" pt_clust_7="13000.00000" pt_clust_8="13000.00000" pt_clust_9="45.77973" pt_clust_10="13000.00000"></scales>
<clustering>
<clus scale="   45.780">  1  9  2 -1</clus>
<clus scale="   73.510">  5  6 -1 -1</clus>
<clus scale="   89.999">  7  8 -1 -1</clus>
<clus scale="  104.113">  7 10 -1 -1</clus>
<clus scale="  126.730">  2  5  1 -1</clus>
<clus scale="   45.780">  1  5  2 -1</clus>
</clustering>
</event>
<event>
10    4  0.2565852E-005  0.3816511E+03  0.7546771E-02  0.1087898E+00
         21   -1    0    0  501  502  0.00000000000E+00  0.00000000000E+00  0.37760545469E+03  0.37760545469E+03  0.00000000000E+00 0.  1.
         -3   -1    0    0    0  501 -0.00000000000E+00 -0.00000000000E+00 -0.36090411406E+03  0.36090411406E+03  0.00000000000E+00 0.  1.
         24    2    1    2    0    0  0.85417256650E+02  0.71946833869E+02 -0.17061650153E+03  0.21676322626E+03  0.73510890535E+02 0.  0.
         23    2    1    2    0    0 -0.61663403521E+02  0.55509436624E+02  0.16396074093E+03  0.20935112798E+03  0.10030502148E+03 0.  0.
        -13    1    3    3    0    0  0.74557871780E+02  0.76651947219E+02 -0.17419655086E+03  0.20439871719E+03  0.00000000000E+00 0.  1.
         14    1    3    3    0    0  0.10859384870E+02 -0.47051133495E+01  0.35800493306E+01  0.12364509072E+02  0.00000000000E+00 0. -1.
        -11    1    4    4    0    0 -0.85185455897E+02  0.62019787364E+02  0.12643669228E+03  0.16458813163E+03  0.00000000000E+00 0.  1.
         11    1    4    4    0    0  0.23522052376E+02 -0.65103507403E+01  0.37524048656E+02  0.44762996351E+02  0.00000000000E+00 0. -1.
         21    1    1    2  503  502  0.15171548948E+02  0.23681337503E+02  0.12369645784E+03  0.12685344033E+03  0.00000000000E+00 0.  1.
         -4    1    1    2    0  503 -0.38925402078E+02 -0.15113760800E+03 -0.10033935661E+03  0.18554177417E+03  0.00000000000E+00 0.  1.
<scales pt_clust_5="13000.00000" pt_clust_6="13000.00000" pt_clust_7="13000.00000" pt_clust_8="13000.00000" pt_clust_9="28.12440" pt_clust_10="13000.00000"></scales>
<clustering>
<clus scale="   28.124">  1  9  2 -1</clus>
<clus scale="   73.511">  5  6 -1 -1</clus>
<clus scale="  100.305">  7  8 -1 -1</clus>
<clus scale="  135.763">  2  5  1 -1</clus>
<clus scale="   92.443">  7 10 -1 -1</clus>
<clus scale="   28.124">  1  5  2 -1</clus>
</clustering>
</event>
<event>
10    4  0.2565852E-005  0.1149089E+03  0.7546771E-02  0.1273980E+00
         21   -1    0    0  503  502  0.00000000000E+00  0.00000000000E+00  0.63600571233E+03  0.63600571233E+03  0.00000000000E+00 0.  1.
         -1   -1    0    0    0  501 -0.00000000000E+00 -0.00000000000E+00 -0.59212204000E+02  0.59212204000E+02  0.00000000000E+00 0.  1.
         24    2    1    2    0    0 -0.30665572627E+01  0.15356868203E+02 -0.21731404633E+02  0.77439744699E+02  0.72659637608E+02 0.  0.
         23    2    1    2    0    0  0.22842117141E+01 -0.98423955982E+01  0.37306925866E+03  0.38347723642E+03  0.88159110268E+02 0.  0.
        -11    1    3    3    0    0  0.18162573713E+02  0.37861635695E+02 -0.19841889964E+02  0.46444409122E+02  0.00000000000E+00 0.  1.
         12    1    3    3    0    0 -0.21229130976E+02 -0.22504767492E+02 -0.18895146688E+01  0.30995335577E+02  0.00000000000E+00 0. -1.
        -11    1    4    4    0    0 -0.75287665152E+01  0.37859983505E+02  0.13154213438E+03  0.13708899953E+03  0.00000000000E+00 0.  1.
         11    1    4    4    0    0  0.98129782294E+01 -0.47702379103E+02  0.24152712428E+03  0.24638823689E+03  0.00000000000E+00 0. -1.
         21    1    1    2  503  501  0.24883171271E+02  0.78320536459E+01  0.47201891830E+02  0.53930806309E+02  0.00000000000E+00 0.  1.
         -2    1    1    2    0  502 -0.24100825722E+02 -0.13346526250E+02  0.17825376247E+03  0.18037012890E+03  0.00000000000E+00 0.  1.
<scales pt_clust_5="13000.00000" pt_clust_6="13000.00000" pt_clust_7="13000.00000" pt_clust_8="13000.00000" pt_clust_9="26.08665" pt_clust_10="13000.00000"></scales>
<clustering>
<clus scale="   26.087">  1  9  2 -1</clus>
<clus scale="   72.660">  5  6 -1 -1</clus>
<clus scale="   74.367">  2  5  1 -1</clus>
<clus scale="   88.159">  7  8 -1 -1</clus>
<clus scale="   18.707">  7 10 -1 -1</clus>
<clus scale="   26.087">  1  5  2 -1</clus>
</clustering>
</event>
<event>
10    4  0.2565852E-005  0.1270207E+03  0.7546771E-02  0.1252519E+00
         21   -1    0    0  503  502  0.00000000000E+00  0.00000000000E+00  0.91017265326E+02  0.91017265326E+02  0.00000000000E+00 0. -1.
          2   -1    0    0  502    0 -0.00000000000E+00 -0.00000000000E+00 -0.88412505851E+03  0.88412505851E+03  0.00000000000E+00 0. -1.
         24    2    1    2    0    0  0.16471679990E+01  0.26232860835E+02 -0.72373931703E+03  0.72870636578E+03  0.80768139508E+02 0.  0.
         23    2    1    2    0    0  0.33955415202E+02  0.23134179749E+02 -0.23464751241E+02  0.98648259952E+02  0.86560523026E+02 0.  0.
        -13    1    3    3    0    0 -0.17517260668E+02 -0.13432487158E+02 -0.68091517481E+02  0.71580310739E+02  0.00000000000E+00 0.  1.
         14    1    3    3    0    0  0.19164428667E+02  0.39665347993E+02 -0.65564779955E+03  0.65712605504E+03  0.00000000000E+00 0. -1.
        -13    1    4    4    0    0  0.46932162962E+02 -0.88718330654E+01  0.11893299741E+02  0.49221823625E+02  0.00000000000E+00 0. -1.
         13    1    4    4    0    0 -0.12976747760E+02  0.32006012814E+02 -0.35358050983E+02  0.49426436327E+02  0.00000000000E+00 0.  1.
         21    1    1    2  503  501 -0.46380495517E+02 -0.68670078283E+02  0.13904429377E+02  0.84024182067E+02  0.00000000000E+00 0. -1.
          1    1    1    2  501    0  0.10777912316E+02  0.19303037699E+02 -0.59808154294E+02  0.63763516044E+02  0.00000000000E+00 0. -1.
<scales pt_clust_5="13000.00000" pt_clust_6="13000.00000" pt_clust_7="13000.00000" pt_clust_8="13000.00000" pt_clust_9="82.86573" pt_clust_10="13000.00000"></scales>
<clustering>
<clus scale="   80.768">  5  6 -1 -1</clus>
<clus scale="   82.866">  1  9  2 -1</clus>
<clus scale="   83.765">  2  5  1 -1</clus>
<clus scale="   86.561">  7  8 -1 -1</clus>
<clus scale="   23.726">  7 10 -1 -1</clus>
<clus scale="   82.866">  1  5  2 -1</clus>
</clustering>
</event>
<event>
10    4  0.2565852E-005  0.1578576E+03  0.7546771E-02  0.1216600E+00
         21   -1    0    0  503  502  0.00000000000E+00  0.00000000000E+00  0.30257062921E+03  0.30257062921E+03  0.00000000000E+00 0. -1.
          2   -1    0    0  502    0 -0.00000000000E+00 -0.00000000000E+00 -0.29697355616E+03  0.29697355616E+03  0.00000000000E+00 0. -1.
         24    2    1    2    0    0 -0.40417440421E+02  0.21340953899E+02 -0.18777715700E+03  0.21004151911E+03  0.82268908190E+02 0.  0.
         23    2    1    2    0    0  0.27878507417E+02  0.78255279646E+01 -0.46212463269E+02  0.10595902911E+03  0.90847531750E+02 0.  0.
        -13    1    3    3    0    0 -0.35324233753E+02  0.24630011769E+02 -0.19552068810E+03  0.20020683916E+03  0.00000000000E+00 0.  1.
         14    1    3    3    0    0 -0.50932066679E+01 -0.32890578692E+01  0.77435311008E+01  0.98346799510E+01  0.00000000000E+00 0. -1.
        -13    1    4    4    0    0 -0.25228356506E+02 -0.11159953591E+01  0.10859780405E+02  0.27489093257E+02  0.00000000000E+00 0.  1.
         13    1    4    4    0    0  0.53106863923E+02  0.89415233237E+01 -0.57072243674E+02  0.78469935855E+02  0.00000000000E+00 0. -1.
         21    1    1    2  503  501  0.21974952911E+02 -0.78879921966E+02  0.20887514725E+03  0.22435188384E+03  0.00000000000E+00 0. -1.
          1    1    1    2  501    0 -0.94360199071E+01  0.49713440102E+02  0.30711546067E+02  0.59191753313E+02  0.00000000000E+00 0. -1.
<scales pt_clust_5="13000.00000" pt_clust_6="13000.00000" pt_clust_7="13000.00000" pt_clust_8="13000.00000" pt_clust_9="81.88370" pt_clust_10="13000.00000"></scales>
<clustering>
<clus scale="   81.884">  1  9  2 -1</clus>
<clus scale="   82.269">  5  6 -1 -1</clus>
<clus scale="   90.848">  7  8 -1 -1</clus>
<clus scale="    8.709">  7 10 -1 -1</clus>
<clus scale="   91.124">  2  5  1 -1</clus>
<clus scale="   81.884">  1  5  2 -1</clus>
</clustering>
</event>
<event>
10    4  0.2565852E-005  0.3330166E+03  0.7546771E-02  0.1089977E+00
         21   -1    0    0  501  502  0.00000000000E+00  0.00000000000E+00  0.61185848694E+02  0.61185848694E+02  0.00000000000E+00 0.  1.
          2   -1    0    0  503    0 -0.00000000000E+00 -0.00000000000E+00 -0.13093455929E+04  0.13093455929E+04  0.00000000000E+00 0. -1.
         24    2    1    2    0    0  0.18262711880E+03 -0.28454205966E+02 -0.47812527897E+03  0.51894209547E+03  0.80838169813E+02 0.  0.
         23    2    1    2    0    0  0.41363856627E+02  0.37261460912E+02 -0.13877349008E+03  0.17515061411E+03  0.91215519346E+02 0.  0.
        -11    1    3    3    0    0  0.80236908149E+01 -0.19911337945E+02 -0.23313962395E+02  0.31691983775E+02  0.00000000000E+00 0.  1.
         12    1    3    3    0    0  0.17460342798E+03 -0.85428680209E+01 -0.45481131658E+03  0.48725011169E+03  0.00000000000E+00 0. -1.
        -13    1    4    4    0    0  0.50265021738E+01  0.29045328506E+02 -0.13445297214E+03  0.13764628055E+03  0.00000000000E+00 0.  1.
         13    1    4    4    0    0  0.36337354453E+02  0.82161324053E+01 -0.43205179382E+01  0.37504333558E+02  0.00000000000E+00 0. -1.
         21    1    1    2  503  502 -0.26164323135E+02 -0.91863221784E+01 -0.20630984723E+02  0.34562954892E+02  0.00000000000E+00 0. -1.
          1    1    1    2  501    0 -0.19782665229E+03  0.37906723312E+00 -0.61062999047E+03  0.64187577716E+03  0.00000000000E+00 0. -1.
<scales pt_clust_5="13000.00000" pt_clust_6="13000.00000" pt_clust_7="13000.00000" pt_clust_8="13000.00000" pt_clust_9="27.73013" pt_clust_10="13000.00000"></scales>
<clustering>
<clus scale="   27.730">  1  9  2 -1</clus>
<clus scale="   80.838">  5  6 -1 -1</clus>
<clus scale="   91.216">  7  8 -1 -1</clus>
<clus scale="  193.406">  2  5  1 -1</clus>
<clus scale="   71.123">  7 10 -1 -1</clus>
<clus scale="   27.730">  1  5  2 -1</clus>
</clustering>
</event>
<event>
10    4  0.2565852E-005  0.4215126E+03  0.7546771E-02  0.1094182E+00
          2   -1    0    0  502    0 -0.00000000000E+00  0.00000000000E+00  0.11289058116E+04  0.11289058116E+04  0.00000000000E+00 0. -1.
         21   -1    0    0  503  502  0.00000000000E+00 -0.00000000000E+00 -0.73403677705E+02  0.73403677705E+02  0.00000000000E+00 0. -1.
         24    2    1    2    0    0 -0.33868191239E+02 -0.28359101844E+01  0.22431656180E+03  0.24088642335E+03  0.80952160523E+02 0.  0.
         23    2    1    2    0    0 -0.15671063823E+03 -0.12044652405E+03  0.30602219220E+03  0.37565502364E+03  0.91659835162E+02 0.  0.
        -13    1    3    3    0    0  0.13052517809E+02  0.22541356356E+02  0.31748112394E+02  0.41066088298E+02  0.00000000000E+00 0.  1.
         14    1    3    3    0    0 -0.46920709048E+02 -0.25377266540E+02  0.19256844940E+03  0.19982033505E+03  0.00000000000E+00 0. -1.
        -11    1    4    4    0    0 -0.11588863739E+03 -0.10665671252E+03  0.28938085990E+03  0.32946488839E+03  0.00000000000E+00 0. -1.
         11    1    4    4    0    0 -0.40822000841E+02 -0.13789811530E+02  0.16641332296E+02  0.46190135259E+02  0.00000000000E+00 0.  1.
         21    1    1    2  503  501  0.50884919126E+02 -0.33518023948E+01  0.38621992756E+02  0.63970054699E+02  0.00000000000E+00 0. -1.
          1    1    1    2  501    0  0.13969391034E+03  0.12663423663E+03  0.48654138715E+03  0.52179798762E+03  0.00000000000E+00 0. -1.
<scales pt_clust_5="13000.00000" pt_clust_6="13000.00000" pt_clust_7="13000.00000" pt_clust_8="13000.00000" pt_clust_9="50.99519" pt_clust_10="13000.00000"></scales>
<clustering>
<clus scale="   50.995">  2  9  1 -1</clus>
<clus scale="   80.952">  5  6 -1 -1</clus>
<clus scale="   85.376">  1  5  2 -1</clus>
<clus scale="   91.660">  7  8 -1 -1</clus>
<clus scale="  184.616">  7 10 -1 -1</clus>
<clus scale="   50.995">  2  5  1 -1</clus>
</clustering>
</event>
<event>
10    4  0.2565852E-005  0.3392623E+03  0.7546771E-02  0.1111360E+00
          4   -1    0    0  503    0 -0.00000000000E+00  0.00000000000E+00  0.14780009308E+03  0.14780009308E+03  0.00000000000E+00 0. -1.
         21   -1    0    0  501  502  0.00000000000E+00 -0.00000000000E+00 -0.70571353910E+03  0.70571353910E+03  0.00000000000E+00 0.  1.
         24    2    1    2    0    0 -0.31348678994E+02  0.44010096846E+02 -0.57587860530E+02  0.11167709296E+03  0.78966974821E+02 0.  0.
         23    2    1    2    0    0 -0.82056203314E+02  0.12013750299E+02  0.37934552038E+02  0.12946230382E+03  0.91890734970E+02 0.  0.
        -13    1    3    3    0    0 -0.18406192288E+02 -0.19708628338E+02 -0.31889031189E+02  0.41762761590E+02  0.00000000000E+00 0.  1.
         14    1    3    3    0    0 -0.12942486706E+02  0.63718725184E+02 -0.25698829341E+02  0.69914331369E+02  0.00000000000E+00 0. -1.
        -13    1    4    4    0    0 -0.80297023874E+02 -0.23800726707E+02  0.41425127521E+02  0.93435153047E+02  0.00000000000E+00 0. -1.
         13    1    4    4    0    0 -0.17591794399E+01  0.35814477006E+02 -0.34905754831E+01  0.36027150772E+02  0.00000000000E+00 0.  1.
         21    1    1    2  503  502  0.75415888737E+01  0.78586293123E+02 -0.34605071143E+03  0.35494193315E+03  0.00000000000E+00 0.  1.
          3    1    1    2  501    0  0.10586329343E+03 -0.13461014027E+03 -0.19220942610E+03  0.25743230225E+03  0.00000000000E+00 0. -1.
<scales pt_clust_5="13000.00000" pt_clust_6="13000.00000" pt_clust_7="13000.00000" pt_clust_8="13000.00000" pt_clust_9="78.94733" pt_clust_10="13000.00000"></scales>
<clustering>
<clus scale="   78.947">  2  9  1 -1</clus>
<clus scale="   78.967">  5  6 -1 -1</clus>
<clus scale="   91.891">  7  8 -1 -1</clus>
<clus scale="  105.093">  1  5  2 -1</clus>
<clus scale="  125.277">  7 10 -1 -1</clus>
<clus scale="   78.947">  2  5  1 -1</clus>
</clustering>
</event>
<event>
10    4  0.2565852E-005  0.3194719E+03  0.7546771E-02  0.1125292E+00
         21   -1    0    0  503  502  0.00000000000E+00  0.00000000000E+00  0.22742367109E+03  0.22742367109E+03  0.00000000000E+00 0.  1.
          2   -1    0    0  502    0 -0.00000000000E+00 -0.00000000000E+00 -0.55914236819E+03  0.55914236819E+03  0.00000000000E+00 0. -1.
         24    2    1    2    0    0  0.29968931707E+02  0.21521123834E+02 -0.36454035122E+03  0.37512978771E+03  0.80444976963E+02 0.  0.
         23    2    1    2    0    0 -0.82917117664E+02  0.11051687580E+03 -0.10582216471E+03  0.19673221797E+03  0.91738796628E+02 0.  0.
        -13    1    3    3    0    0 -0.23940145878E+02 -0.89102566382E+01 -0.13457325411E+03  0.13697621684E+03  0.00000000000E+00 0.  1.
         14    1    3    3    0    0  0.53909077585E+02  0.30431380473E+02 -0.22996709711E+03  0.23815357087E+03  0.00000000000E+00 0. -1.
        -11    1    4    4    0    0 -0.30206675396E+02 -0.30958057873E+01 -0.52416286873E+02  0.60576351669E+02  0.00000000000E+00 0.  1.
         11    1    4    4    0    0 -0.52710442267E+02  0.11361268159E+03 -0.53405877833E+02  0.13615586630E+03  0.00000000000E+00 0. -1.
         21    1    1    2  503  501  0.55012158102E+02 -0.49961866132E+02  0.34070315477E+02  0.81751525999E+02  0.00000000000E+00 0.  1.
          1    1    1    2  501    0 -0.20639721454E+01 -0.82076133502E+02  0.10457350335E+03  0.13295250759E+03  0.00000000000E+00 0. -1.
<scales pt_clust_5="13000.00000" pt_clust_6="13000.00000" pt_clust_7="13000.00000" pt_clust_8="13000.00000" pt_clust_9="74.31370" pt_clust_10="13000.00000"></scales>
<clustering>
<clus scale="   74.314">  1  9  2 -1</clus>
<clus scale="   80.445">  5  6 -1 -1</clus>
<clus scale="   88.735">  2  5  1 -1</clus>
<clus scale="   91.739">  7  8 -1 -1</clus>
<clus scale="  120.310">  7 10 -1 -1</clus>
<clus scale="   74.314">  1  5  2 -1</clus>
</clustering>
</event>
<event>
10    4  0.2565852E-005  0.2713999E+03  0.7546771E-02  0.1120688E+00
         -1   -1    0    0    0  501 -0.00000000000E+00  0.00000000000E+00  0.82918976357E+03  0.82918976357E+03  0.00000000000E+00 0.  1.
         21   -1    0    0  503  502  0.00000000000E+00 -0.00000000000E+00 -0.66375651111E+02  0.66375651111E+02  0.00000000000E+00 0. -1.
         24    2    1    2    0    0  0.31163685539E+02 -0.13804459881E+03  0.20962826346E+03  0.26520257104E+03  0.79755302554E+02 0.  0.
         23    2    1    2    0    0  0.26229680183E+01 -0.81133919214E+01  0.28350098527E+02  0.71465285709E+02  0.65044998926E+02 0.  0.
        -11    1    3    3    0    0  0.33782282543E+02 -0.62929875022E+02  0.15977157199E+03  0.17500961974E+03  0.00000000000E+00 0.  1.
         12    1    3    3    0    0 -0.26185970045E+01 -0.75114723783E+02  0.49856691473E+02  0.90192951298E+02  0.00000000000E+00 0. -1.
        -13    1    4    4    0    0  0.13969594856E+02 -0.25289182035E+02  0.38803643590E+02  0.48377836499E+02  0.00000000000E+00 0.  1.
         13    1    4    4    0    0 -0.11346626838E+02  0.17175790114E+02 -0.10453545063E+02  0.23087449210E+02  0.00000000000E+00 0. -1.
         21    1    1    2  503  501 -0.23177530611E+02 -0.39136570978E+01  0.16376995793E+02  0.28648222079E+02  0.00000000000E+00 0.  1.
         -2    1    1    2    0  502 -0.10609122946E+02  0.15007164782E+03  0.50845875467E+03  0.53024933586E+03  0.00000000000E+00 0.  1.
<scales pt_clust_5="13000.00000" pt_clust_6="13000.00000" pt_clust_7="13000.00000" pt_clust_8="13000.00000" pt_clust_9="23.50563" pt_clust_10="13000.00000"></scales>
<clustering>
<clus scale="   23.506">  2  9  1 -1</clus>
<clus scale="   65.045">  7  8 -1 -1</clus>
<clus scale="   79.755">  5  6 -1 -1</clus>
<clus scale="  150.095">  7 10 -1 -1</clus>
<clus scale="  162.290">  1  5  2 -1</clus>
<clus scale="   23.506">  2  5  1 -1</clus>
</clustering>
</event>
<event>
10    4  0.2565852E-005  0.2444662E+03  0.7546771E-02  0.1158753E+00
          2   -1    0    0  502    0 -0.00000000000E+00  0.00000000000E+00  0.11036943928E+04  0.11036943928E+04  0.00000000000E+00 0. -1.
         21   -1    0    0  503  502  0.00000000000E+00 -0.00000000000E+00 -0.60652520882E+02  0.60652520882E+02  0.00000000000E+00 0. -1.
         24    2    1    2    0    0 -0.16513037967E+02 -0.32839083555E+02  0.76175606923E+03  0.76683960109E+03  0.80122275039E+02 0.  0.
         23    2    1    2    0    0  0.67523700311E+02  0.11733514776E+03  0.14832185646E+03  0.22024653157E+03  0.90455373305E+02 0.  0.
        -11    1    3    3    0    0  0.28751124726E+02 -0.21965240380E+02  0.20739593277E+03  0.21052831611E+03  0.00000000000E+00 0.  1.
         12    1    3    3    0    0 -0.45264162693E+02 -0.10873843175E+02  0.55436013646E+03  0.55631128497E+03  0.00000000000E+00 0. -1.
        -11    1    4    4    0    0 -0.14544181234E+02  0.61539777523E+02  0.50830460665E+02  0.81132072306E+02  0.00000000000E+00 0.  1.
         11    1    4    4    0    0  0.82067881545E+02  0.55795370237E+02  0.97491395795E+02  0.13911445926E+03  0.00000000000E+00 0. -1.
         21    1    1    2  503  501 -0.54081493970E+01 -0.19989792448E+02 -0.20750314482E+01  0.20812151199E+02  0.00000000000E+00 0.  1.
          1    1    1    2  501    0 -0.45602512947E+02 -0.64506271756E+02  0.13503897768E+03  0.15644862983E+03  0.00000000000E+00 0. -1.
<scales pt_clust_5="13000.00000" pt_clust_6="13000.00000" pt_clust_7="13000.00000" pt_clust_8="13000.00000" pt_clust_9="20.70845" pt_clust_10="13000.00000"></scales>
<clustering>
<clus scale="   20.708">  2  9  1 -1</clus>
<clus scale="   80.122">  5  6 -1 -1</clus>
<clus scale="   88.594">  1  5  2 -1</clus>
<clus scale="   90.455">  7  8 -1 -1</clus>
<clus scale="  102.018">  7 10 -1 -1</clus>
<clus scale="   20.708">  2  5  1 -1</clus>
</clustering>
</event>
<event>
10    4  0.2565852E-005  0.3763049E+03  0.7546771E-02  0.1104253E+00
         21   -1    0    0  503  502  0.00000000000E+00  0.00000000000E+00  0.53451899826E+03  0.53451899826E+03  0.00000000000E+00 0. -1.
         -3   -1    0    0    0  501 -0.00000000000E+00 -0.00000000000E+00 -0.77331883988E+03  0.77331883988E+03  0.00000000000E+00 0.  1.
         24    2    1    2    0    0 -0.13669838794E+02  0.18703108138E+02 -0.88820586746E+02  0.12814129953E+03  0.89411549975E+02 0.  0.
         23    2    1    2    0    0  0.38590228001E+02 -0.20691114551E+03 -0.52055960953E+03  0.56837154918E+03  0.88104954540E+02 0.  0.
        -11    1    3    3    0    0 -0.12693317479E+02  0.51461595063E+02 -0.30259065466E+02  0.61033000237E+02  0.00000000000E+00 0.  1.
         12    1    3    3    0    0 -0.97652131523E+00 -0.32758486925E+02 -0.58561521280E+02  0.67108299294E+02  0.00000000000E+00 0. -1.
        -11    1    4    4    0    0  0.44395016436E+02 -0.16298503759E+03 -0.47785564117E+03  0.50683434548E+03  0.00000000000E+00 0.  1.
         11    1    4    4    0    0 -0.58047884352E+01 -0.43926107918E+02 -0.42703968358E+02  0.61537203700E+02  0.00000000000E+00 0. -1.
         21    1    1    2  503  501  0.70547243761E+02  0.24219822253E+03  0.42085948338E+03  0.49067259690E+03  0.00000000000E+00 0. -1.
         -4    1    1    2    0  502 -0.95467632968E+02 -0.53990185156E+02 -0.50279128724E+02  0.12065239253E+03  0.00000000000E+00 0.  1.
<scales pt_clust_5="13000.00000" pt_clust_6="13000.00000" pt_clust_7="13000.00000" pt_clust_8="13000.00000" pt_clust_9="253.00746" pt_clust_10="13000.00000"></scales>
<clustering>
<clus scale="   88.105">  7  8 -1 -1</clus>
<clus scale="   89.412">  5  6 -1 -1</clus>
<clus scale="   92.364">  2  5  1 -1</clus>
<clus scale="  110.063">  7 10 -1 -1</clus>
<clus scale="  253.007">  1  9  2 -1</clus>
<clus scale="  253.007">  1  5  2 -1</clus>
</clustering>
</event>
<event>
10    4  0.2565852E-005  0.4812254E+03  0.7546771E-02  0.1024885E+00
         21   -1    0    0  503  502  0.00000000000E+00  0.00000000000E+00  0.29199219439E+03  0.29199219439E+03  0.00000000000E+00 0. -1.
          2   -1    0    0  502    0 -0.00000000000E+00 -0.00000000000E+00 -0.20721003303E+04  0.20721003303E+04  0.00000000000E+00 0. -1.
         24    2    1    2    0    0 -0.44394324802E+02  0.39064291576E+03 -0.14115871339E+04  0.14673936009E+04  0.78057667829E+02 0.  0.
         23    2    1    2    0    0  0.92578312442E+01 -0.28226285870E+01 -0.12897596554E+03  0.15781207908E+03  0.90422220410E+02 0.  0.
        -13    1    3    3    0    0  0.17884098381E+02  0.50899954608E+02 -0.23768584749E+03  0.24373183717E+03  0.00000000000E+00 0.  1.
         14    1    3    3    0    0 -0.62278423184E+02  0.33974296115E+03 -0.11739012865E+04  0.12236617637E+04  0.00000000000E+00 0. -1.
        -11    1    4    4    0    0 -0.27129729833E+02 -0.33833502845E+01 -0.39822666156E+01  0.27628386622E+02  0.00000000000E+00 0.  1.
         11    1    4    4    0    0  0.36387561077E+02  0.56072169748E+00 -0.12499369893E+03  0.13018369246E+03  0.00000000000E+00 0. -1.
         21    1    1    2  503  501 -0.31585893479E+02 -0.52419860704E+01  0.17087775840E+03  0.17385153263E+03  0.00000000000E+00 0. -1.
          1    1    1    2  501    0  0.66722387037E+02 -0.38257830110E+03 -0.41042279484E+03  0.56503531211E+03  0.00000000000E+00 0. -1.
<scales pt_clust_5="13000.00000" pt_clust_6="13000.00000" pt_clust_7="13000.00000" pt_clust_8="13000.00000" pt_clust_9="32.01792" pt_clust_10="13000.00000"></scales>
<clustering>
<clus scale="   32.018">  1  9  2 -1</clus>
<clus scale="   78.058">  5  6 -1 -1</clus>
<clus scale="   90.422">  7  8 -1 -1</clus>
<clus scale="  388.734">  7 10 -1 -1</clus>
<clus scale="  400.525">  2  5  1 -1</clus>
<clus scale="   32.018">  1  5  2 -1</clus>
</clustering>
</event>
<event>
10    4  0.2565852E-005  0.3792755E+03  0.7546771E-02  0.1086838E+00
          2   -1    0    0  502    0 -0.00000000000E+00  0.00000000000E+00  0.54510644731E+03  0.54510644731E+03  0.00000000000E+00 0. -1.
         21   -1    0    0  503  502  0.00000000000E+00 -0.00000000000E+00 -0.41918232841E+03  0.41918232841E+03  0.00000000000E+00 0.  1.
         24    2    1    2    0    0 -0.40228191621E+02  0.11746665184E+03  0.19165730922E+03  0.24157490465E+03  0.78798405326E+02 0.  0.
         23    2    1    2    0    0  0.81727922251E+02  0.10950589520E+03  0.18999589372E+03  0.25122717448E+03  0.91354579563E+02 0.  0.
        -11    1    3    3    0    0 -0.39229316419E+02  0.63576800316E+02  0.16567695190E+03  0.18174102783E+03  0.00000000000E+00 0.  1.
         12    1    3    3    0    0 -0.99887520262E+00  0.53889851520E+02  0.25980357322E+02  0.59833876818E+02  0.00000000000E+00 0. -1.
        -13    1    4    4    0    0  0.65381467338E+02  0.12362856220E+03  0.17848276467E+03  0.22674843979E+03  0.00000000000E+00 0.  1.
         13    1    4    4    0    0  0.16346454913E+02 -0.14122667000E+02  0.11513129045E+02  0.24478734686E+02  0.00000000000E+00 0. -1.
         21    1    1    2  503  501 -0.36765631627E+02 -0.46788313603E+02 -0.28300058898E+03  0.28918885061E+03  0.00000000000E+00 0.  1.
          1    1    1    2  501    0 -0.47340990025E+01 -0.18018423343E+03  0.27271504932E+02  0.18229784599E+03  0.00000000000E+00 0. -1.
<scales pt_clust_5="13000.00000" pt_clust_6="13000.00000" pt_clust_7="13000.00000" pt_clust_8="13000.00000" pt_clust_9="59.50511" pt_clust_10="13000.00000"></scales>
<clustering>
<clus scale="   59.505">  2  9  1 -1</clus>
<clus scale="   78.798">  5  6 -1 -1</clus>
<clus scale="   91.355">  7  8 -1 -1</clus>
<clus scale="  142.281">  1  5  2 -1</clus>
<clus scale="  167.643">  7 10 -1 -1</clus>
<clus scale="   59.505">  2  5  1 -1</clus>
</clustering>
</event>
<event>
10    4  0.2565852E-005  0.3276168E+03  0.7546771E-02  0.1098311E+00
         -1   -1    0    0    0  501 -0.00000000000E+00  0.00000000000E+00  0.52440558700E+03  0.52440558700E+03  0.00000000000E+00 0.  1.
         21   -1    0    0  501  502  0.00000000000E+00 -0.00000000000E+00 -0.23040620137E+03  0.23040620137E+03  0.00000000000E+00 0. -1.
         24    2    1    2    0    0  0.58544103208E+02  0.12198569502E+03  0.22714288591E+03  0.27655743685E+03  0.81130779902E+02 0.  0.
         23    2    1    2    0    0  0.39912145233E+02 -0.19039800262E+03  0.18467231586E+03  0.28166744630E+03  0.85955263483E+02 0.  0.
        -11    1    3    3    0    0  0.72701853611E+02  0.91296526325E+02  0.20578908702E+03  0.23657929659E+03  0.00000000000E+00 0.  1.
         12    1    3    3    0    0 -0.14157750403E+02  0.30689168698E+02  0.21353798889E+02  0.39978140263E+02  0.00000000000E+00 0. -1.
        -13    1    4    4    0    0  0.60172025327E+02 -0.83664323718E+02  0.10345680719E+03  0.14602637655E+03  0.00000000000E+00 0. -1.
         13    1    4    4    0    0 -0.20259880094E+02 -0.10673367890E+03  0.81215508675E+02  0.13564106975E+03  0.00000000000E+00 0.  1.
         21    1    1    2  503  502 -0.10945842273E+02  0.42737812447E+02 -0.91638804347E+02  0.10170546956E+03  0.00000000000E+00 0. -1.
         -2    1    1    2    0  503 -0.87510406168E+02  0.25674495149E+02 -0.26177011790E+02  0.94881435672E+02  0.00000000000E+00 0.  1.
<scales pt_clust_5="13000.00000" pt_clust_6="13000.00000" pt_clust_7="13000.00000" pt_clust_8="13000.00000" pt_clust_9="44.11725" pt_clust_10="13000.00000"></scales>
<clustering>
<clus scale="   44.117">  2  9  1 -1</clus>
<clus scale="   81.131">  5  6 -1 -1</clus>
<clus scale="   85.955">  7  8 -1 -1</clus>
<clus scale="  102.841">  7 10 -1 -1</clus>
<clus scale="  163.236">  1  5  2 -1</clus>
<clus scale="   44.117">  2  5  1 -1</clus>
</clustering>
</event>
<event>
10    4  0.2565852E-005  0.2946078E+03  0.7546771E-02  0.1106814E+00
         21   -1    0    0  501  502  0.00000000000E+00  0.00000000000E+00  0.37639879908E+02  0.37639879908E+02  0.00000000000E+00 0. -1.
          2   -1    0    0  503    0 -0.00000000000E+00 -0.00000000000E+00 -0.20427904041E+04  0.20427904041E+04  0.00000000000E+00 0. -1.
         24    2    1    2    0    0 -0.77970248210E+02 -0.11345031053E+03 -0.42057819587E+03  0.44975729787E+03  0.80282473682E+02 0.  0.
         23    2    1    2    0    0 -0.17683038452E+02  0.16013521010E+03 -0.73390862516E+03  0.75726258923E+03  0.94174219336E+02 0.  0.
        -13    1    3    3    0    0 -0.19203865601E+02 -0.92628880462E+02 -0.29040167784E+03  0.30542107400E+03  0.00000000000E+00 0.  1.
         14    1    3    3    0    0 -0.58766382609E+02 -0.20821430064E+02 -0.13017651803E+03  0.14433622387E+03  0.00000000000E+00 0. -1.
        -13    1    4    4    0    0 -0.37561489736E+02  0.15524624680E+02 -0.16024157982E+03  0.16531558725E+03  0.00000000000E+00 0.  1.
         13    1    4    4    0    0  0.19878451284E+02  0.14461058542E+03 -0.57366704534E+03  0.59194700198E+03  0.00000000000E+00 0. -1.
         21    1    1    2  503  502 -0.16814425834E+02 -0.47962294153E+02 -0.81373502046E+02  0.95941406139E+02  0.00000000000E+00 0.  1.
          1    1    1    2  501    0  0.11246771250E+03  0.12773945798E+01 -0.76929020116E+03  0.77746899082E+03  0.00000000000E+00 0. -1.
<scales pt_clust_5="13000.00000" pt_clust_6="13000.00000" pt_clust_7="13000.00000" pt_clust_8="13000.00000" pt_clust_9="50.82427" pt_clust_10="13000.00000"></scales>
<clustering>
<clus scale="   50.824">  1  9  2 -1</clus>
<clus scale="   80.282">  5  6 -1 -1</clus>
<clus scale="   94.174">  7  8 -1 -1</clus>
<clus scale="  110.324">  7 10 -1 -1</clus>
<clus scale="  180.230">  2  5  1 -1</clus>
<clus scale="   50.824">  1  5  2 -1</clus>
</clustering>
</event>
<event>
10    4  0.2565852E-005  0.4746177E+03  0.7546771E-02  0.1076078E+00
         21   -1    0    0  501  502  0.00000000000E+00  0.00000000000E+00  0.17307123738E+03  0.17307123738E+03  0.00000000000E+00 0. -1.
          4   -1    0    0  503    0 -0.00000000000E+00 -0.00000000000E+00 -0.60643782414E+03  0.60643782414E+03  0.00000000000E+00 0. -1.
         24    2    1    2    0    0 -0.43118659402E+02 -0.10644700057E+02 -0.38840256704E+02  0.10225260345E+03  0.83513477614E+02 0.  0.
         23    2    1    2    0    0  0.17787363749E+02  0.25226776589E+03 -0.20414529371E+03  0.33720364660E+03  0.89864243827E+02 0.  0.
        -11    1    3    3    0    0  0.24079162090E+02 -0.12300607232E+02 -0.73284636120E+01  0.28014591986E+02  0.00000000000E+00 0.  1.
         12    1    3    3    0    0 -0.67197821492E+02  0.16559071746E+01 -0.31511793092E+02  0.74238011462E+02  0.00000000000E+00 0. -1.
        -13    1    4    4    0    0  0.33125737300E+02  0.55599215954E+02 -0.84692075340E+02  0.10658956287E+03  0.00000000000E+00 0.  1.
         13    1    4    4    0    0 -0.15338373552E+02  0.19666854993E+03 -0.11945321837E+03  0.23061408373E+03  0.00000000000E+00 0. -1.
         21    1    1    2  503  502 -0.98520999682E+01 -0.37764379131E+02  0.20971619426E+02  0.44305993120E+02  0.00000000000E+00 0.  1.
          3    1    1    2  501    0  0.35183395622E+02 -0.20385868670E+03 -0.21135265577E+03  0.29574681836E+03  0.00000000000E+00 0. -1.
<scales pt_clust_5="13000.00000" pt_clust_6="13000.00000" pt_clust_7="13000.00000" pt_clust_8="13000.00000" pt_clust_9="39.02835" pt_clust_10="13000.00000"></scales>
<clustering>
<clus scale="   39.028">  1  9  2 -1</clus>
<clus scale="   83.513">  5  6 -1 -1</clus>
<clus scale="   89.864">  7  8 -1 -1</clus>
<clus scale="   96.943">  2  5  1 -1</clus>
<clus scale="  225.676">  7 10 -1 -1</clus>
<clus scale="   39.028">  1  5  2 -1</clus>
</clustering>
</event>
<event>
10    4  0.2565852E-005  0.2362676E+03  0.7546771E-02  0.1160934E+00
         21   -1    0    0  503  502  0.00000000000E+00  0.00000000000E+00  0.41661254774E+02  0.41661254774E+02  0.00000000000E+00 0.  1.
          2   -1    0    0  502    0 -0.00000000000E+00 -0.00000000000E+00 -0.10286217073E+04  0.10286217073E+04  0.00000000000E+00 0. -1.
         24    2    1    2    0    0  0.39787881659E+02  0.54310297388E+01 -0.19085168772E+03  0.21081820546E+03  0.80046095686E+02 0.  0.
         23    2    1    2    0    0 -0.21307864736E+02  0.83777897773E+02 -0.25418031768E+03  0.28286357081E+03  0.89058433270E+02 0.  0.
        -13    1    3    3    0    0  0.47647271673E+01 -0.35403437219E+02 -0.73290946865E+02  0.81533237911E+02  0.00000000000E+00 0.  1.
         14    1    3    3    0    0  0.35023154492E+02  0.40834466958E+02 -0.11756074086E+03  0.12928496754E+03  0.00000000000E+00 0. -1.
        -11    1    4    4    0    0 -0.47974681811E+02  0.80824821078E+02 -0.16682083295E+03  0.19147692316E+03  0.00000000000E+00 0.  1.
         11    1    4    4    0    0  0.26666817075E+02  0.29530766950E+01 -0.87359484730E+02  0.91386647642E+02  0.00000000000E+00 0. -1.
         21    1    1    2  503  501  0.22431264210E+02 -0.14860086102E+02  0.11509432173E+01  0.26931551075E+02  0.00000000000E+00 0.  1.
          1    1    1    2  501    0 -0.40911281133E+02 -0.74348841410E+02 -0.54307939038E+03  0.54966963478E+03  0.00000000000E+00 0. -1.
<scales pt_clust_5="13000.00000" pt_clust_6="13000.00000" pt_clust_7="13000.00000" pt_clust_8="13000.00000" pt_clust_9="26.90695" pt_clust_10="13000.00000"></scales>
<clustering>
<clus scale="   26.907">  1  9  2 -1</clus>
<clus scale="   80.046">  5  6 -1 -1</clus>
<clus scale="   89.058">  7  8 -1 -1</clus>
<clus scale="   85.185">  7 10 -1 -1</clus>
<clus scale="   93.281">  2  5  1 -1</clus>
<clus scale="   26.907">  1  5  2 -1</clus>
</clustering>
</event>
<event>
10    4  0.2565852E-005  0.1790121E+03  0.7546771E-02  0.1194499E+00
         -3   -1    0    0    0  501 -0.00000000000E+00  0.00000000000E+00  0.29576041647E+03  0.29576041647E+03  0.00000000000E+00 0.  1.
         21   -1    0    0  501  502  0.00000000000E+00 -0.00000000000E+00 -0.36558930575E+03  0.36558930575E+03  0.00000000000E+00 0. -1.
         24    2    1    2    0    0 -0.44930464279E+02  0.13240827390E+02  0.17901505010E+02  0.91540015223E+02  0.76583577711E+02 0.  0.
         23    2    1    2    0    0  0.87662284367E+02 -0.15642927701E+02  0.10549212522E+03  0.17103482663E+03  0.10097002600E+03 0.  0.
        -11    1    3    3    0    0 -0.46073830564E+02 -0.22938467045E+02  0.20152094003E+02  0.55272760252E+02  0.00000000000E+00 0.  1.
         12    1    3    3    0    0  0.11433662854E+01  0.36179294435E+02 -0.22505889928E+01  0.36267254970E+02  0.00000000000E+00 0. -1.
        -13    1    4    4    0    0  0.66970794025E+02 -0.57282709275E+02  0.68608593687E+02  0.11168498181E+03  0.00000000000E+00 0.  1.
         13    1    4    4    0    0  0.20691490341E+02  0.41639781574E+02  0.36883531532E+02  0.59349844821E+02  0.00000000000E+00 0. -1.
         21    1    1    2  503  502 -0.23814490208E+02  0.36875396927E+02 -0.29052734231E+03  0.29382488233E+03  0.00000000000E+00 0. -1.
         -4    1    1    2    0  503 -0.18917329880E+02 -0.34473296616E+02  0.97304822798E+02  0.10494999804E+03  0.00000000000E+00 0.  1.
<scales pt_clust_5="13000.00000" pt_clust_6="13000.00000" pt_clust_7="13000.00000" pt_clust_8="13000.00000" pt_clust_9="43.89675" pt_clust_10="13000.00000"></scales>
<clustering>
<clus scale="   43.897">  2  9  1 -1</clus>
<clus scale="   76.584">  5  6 -1 -1</clus>
<clus scale="  100.533">  1  5  2 -1</clus>
<clus scale="  100.970">  7  8 -1 -1</clus>
<clus scale="   48.616">  7 10 -1 -1</clus>
<clus scale="   43.897">  2  5  1 -1</clus>
</clustering>
</event>
<event>
10    4  0.2565852E-005  0.2820403E+03  0.7546771E-02  0.1105592E+00
         21   -1    0    0  503  502  0.00000000000E+00  0.00000000000E+00  0.53257306032E+03  0.53257306032E+03  0.00000000000E+00 0. -1.
          2   -1    0    0  502    0 -0.00000000000E+00 -0.00000000000E+00 -0.15160537331E+03  0.15160537331E+03  0.00000000000E+00 0. -1.
         24    2    1    2    0    0 -0.75487858702E+02  0.18191958734E+03  0.27104453834E+02  0.21458468474E+03  0.80738977199E+02 0.  0.
         23    2    1    2    0    0 -0.32029646821E+02 -0.66423698908E+02  0.19696426883E+03  0.22927641642E+03  0.91294829425E+02 0.  0.
        -13    1    3    3    0    0  0.13091682422E+02  0.47054950292E+02  0.20861661936E+02  0.53110916339E+02  0.00000000000E+00 0.  1.
         14    1    3    3    0    0 -0.88579541124E+02  0.13486463705E+03  0.62427918973E+01  0.16147376840E+03  0.00000000000E+00 0. -1.
        -13    1    4    4    0    0 -0.17693371414E+01  0.22891222508E+02  0.34982077397E+02  0.41843570126E+02  0.00000000000E+00 0.  1.
         13    1    4    4    0    0 -0.30260309679E+02 -0.89314921417E+02  0.16198219143E+03  0.18743284630E+03  0.00000000000E+00 0. -1.
         21    1    1    2  503  501  0.19653671738E+02  0.37161812925E+01  0.60233520892E+02  0.63467738696E+02  0.00000000000E+00 0. -1.
          1    1    1    2  501    0  0.87863833785E+02 -0.11921206972E+03  0.96665443451E+02  0.17684959376E+03  0.00000000000E+00 0. -1.
<scales pt_clust_5="13000.00000" pt_clust_6="13000.00000" pt_clust_7="13000.00000" pt_clust_8="13000.00000" pt_clust_9="20.00192" pt_clust_10="13000.00000"></scales>
<clustering>
<clus scale="   20.002">  1  9  2 -1</clus>
<clus scale="   80.739">  5  6 -1 -1</clus>
<clus scale="   91.295">  7  8 -1 -1</clus>
<clus scale="  150.703">  7 10 -1 -1</clus>
<clus scale="  211.952">  2  5  1 -1</clus>
<clus scale="   20.002">  1  5  2 -1</clus>
</clustering>
</event>
<event>
10    4  0.2565852E-005  0.7556827E+03  0.7546771E-02  0.1013064E+00
          2   -1    0    0  502    0 -0.00000000000E+00  0.00000000000E+00  0.44558222137E+04  0.44558222137E+04  0.00000000000E+00 0. -1.
         21   -1    0    0  503  502  0.00000000000E+00 -0.00000000000E+00 -0.51081960134E+02  0.51081960134E+02  0.00000000000E+00 0. -1.
         24    2    1    2    0    0  0.10794419424E+03  0.69746159547E+02  0.98821063067E+03  0.99953508475E+03  0.77418726542E+02 0.  0.
         23    2    1    2    0    0  0.79091167705E+02 -0.38679084671E+03  0.20108446136E+04  0.20512771087E+04  0.91537669430E+02 0.  0.
        -11    1    3    3    0    0  0.95080572189E+02  0.57670434389E+02  0.55854910880E+03  0.56951145831E+03  0.00000000000E+00 0.  1.
         12    1    3    3    0    0  0.12863622055E+02  0.12075725158E+02  0.42966152188E+03  0.43002362643E+03  0.00000000000E+00 0. -1.
        -11    1    4    4    0    0  0.82332533490E+02 -0.17478936495E+03  0.94595911287E+03  0.96548879402E+03  0.00000000000E+00 0.  1.
         11    1    4    4    0    0 -0.32413657853E+01 -0.21200148176E+03  0.10648855007E+04  0.10857883147E+04  0.00000000000E+00 0. -1.
         21    1    1    2  503  501 -0.31322144257E+02  0.11710392474E+02  0.77719494538E+02  0.84608095618E+02  0.00000000000E+00 0. -1.
          1    1    1    2  501    0 -0.15571321769E+03  0.30533429469E+03  0.13279655147E+04  0.13714838847E+04  0.00000000000E+00 0. -1.
<scales pt_clust_5="13000.00000" pt_clust_6="13000.00000" pt_clust_7="13000.00000" pt_clust_8="13000.00000" pt_clust_9="33.43965" pt_clust_10="13000.00000"></scales>
<clustering>
<clus scale="   33.440">  2  9  1 -1</clus>
<clus scale="   77.419">  5  6 -1 -1</clus>
<clus scale="   91.538">  7  8 -1 -1</clus>
<clus scale="  148.042">  1  5  2 -1</clus>
<clus scale="  363.412">  7 10 -1 -1</clus>
<clus scale="   33.440">  2  5  1 -1</clus>
</clustering>
</event>
<event>
10    4  0.2565852E-005  0.3760459E+03  0.7546771E-02  0.1106512E+00
          2   -1    0    0  502    0 -0.00000000000E+00  0.00000000000E+00  0.21059794229E+03  0.21059794229E+03  0.00000000000E+00 0. -1.
         21   -1    0    0  503  502  0.00000000000E+00 -0.00000000000E+00 -0.34321870790E+03  0.34321870790E+03  0.00000000000E+00 0.  1.
         24    2    1    2    0    0 -0.30047502745E+02 -0.16319764969E+02  0.16314406240E+01  0.87738522589E+02  0.80784897089E+02 0.  0.
         23    2    1    2    0    0 -0.15334901937E+02 -0.17588357762E+03 -0.10211726355E+03  0.22258404877E+03  0.89137708933E+02 0.  0.
        -11    1    3    3    0    0 -0.32409138650E+02  0.16425655637E+02 -0.26121687427E+02  0.44749267985E+02  0.00000000000E+00 0.  1.
         12    1    3    3    0    0  0.23616359049E+01 -0.32745420605E+02  0.27753128051E+02  0.42989254604E+02  0.00000000000E+00 0. -1.
        -13    1    4    4    0    0  0.17652079518E+00 -0.13370924324E+03 -0.11443163912E+03  0.17599088874E+03  0.00000000000E+00 0.  1.
         13    1    4    4    0    0 -0.15511422732E+02 -0.42174334385E+02  0.12314375563E+02  0.46593160029E+02  0.00000000000E+00 0. -1.
         21    1    1    2  503  501 -0.11804784777E+02  0.45528682148E+02 -0.67376085886E+02  0.82169037910E+02  0.00000000000E+00 0. -1.
          1    1    1    2  501    0  0.57187189459E+02  0.14667466044E+03  0.35241143213E+02  0.16132504093E+03  0.00000000000E+00 0. -1.
<scales pt_clust_5="13000.00000" pt_clust_6="13000.00000" pt_clust_7="13000.00000" pt_clust_8="13000.00000" pt_clust_9="47.03418" pt_clust_10="13000.00000"></scales>
<clustering>
<clus scale="   47.034">  2  9  1 -1</clus>
<clus scale="   80.785">  5  6 -1 -1</clus>
<clus scale="   87.337">  1  5  2 -1</clus>
<clus scale="   89.138">  7  8 -1 -1</clus>
<clus scale="  154.742">  7 10 -1 -1</clus>
<clus scale="   47.034">  2  5  1 -1</clus>
</clustering>
</event>
<event>
10    4  0.2565852E-005  0.4855246E+03  0.7546771E-02  0.1066920E+00
         21   -1    0    0  501  502  0.00000000000E+00  0.00000000000E+00  0.82653197742E+03  0.82653197742E+03  0.00000000000E+00 0. -1.
          2   -1    0    0  503    0 -0.00000000000E+00 -0.00000000000E+00 -0.15913238585E+03  0.15913238585E+03  0.00000000000E+00 0. -1.
         24    2    1    2    0    0 -0.61165580183E+02 -0.50274666905E+02  0.18860244518E+03  0.21921720640E+03  0.78844980321E+02 0.  0.
         23    2    1    2    0    0 -0.10599294499E+03 -0.16286116769E+03  0.11114850821E+03  0.24253945154E+03  0.93344150054E+02 0.  0.
        -13    1    3    3    0    0 -0.23997357832E+02 -0.65368529039E+02  0.13861954803E+03  0.15512671229E+03  0.00000000000E+00 0.  1.
         14    1    3    3    0    0 -0.37168222351E+02  0.15093862134E+02  0.49982897151E+02  0.64090494103E+02  0.00000000000E+00 0. -1.
        -13    1    4    4    0    0 -0.21753952415E+02 -0.12318998269E+02 -0.14703188262E+02  0.29003032757E+02  0.00000000000E+00 0.  1.
         13    1    4    4    0    0 -0.84238992574E+02 -0.15054216942E+03  0.12585169647E+03  0.21353641878E+03  0.00000000000E+00 0. -1.
         21    1    1    2  503  502 -0.56110727340E+02  0.53478107349E+02  0.16635440482E+03  0.18352686367E+03  0.00000000000E+00 0.  1.
          1    1    1    2  501    0  0.22326925251E+03  0.15965772724E+03  0.20129423336E+03  0.34038084166E+03  0.00000000000E+00 0. -1.
<scales pt_clust_5="13000.00000" pt_clust_6="13000.00000" pt_clust_7="13000.00000" pt_clust_8="13000.00000" pt_clust_9="77.51336" pt_clust_10="13000.00000"></scales>
<clustering>
<clus scale="   77.513">  1  9  2 -1</clus>
<clus scale="   78.845">  5  6 -1 -1</clus>
<clus scale="   93.344">  7  8 -1 -1</clus>
<clus scale="  116.357">  2  5  1 -1</clus>
<clus scale="  229.582">  7 10 -1 -1</clus>
<clus scale="   77.513">  1  5  2 -1</clus>
</clustering>
</event>
<event>
10    4  0.2565852E-005  0.2705552E+03  0.7546771E-02  0.1145846E+00
          2   -1    0    0  503    0 -0.00000000000E+00  0.00000000000E+00  0.51560791507E+03  0.51560791507E+03  0.00000000000E+00 0. -1.
         21   -1    0    0  501  502  0.00000000000E+00 -0.00000000000E+00 -0.17145464158E+03  0.17145464158E+03  0.00000000000E+00 0. -1.
         24    2    1    2    0    0 -0.36466372563E+02 -0.21730204610E+02  0.34049111795E+03  0.35186636590E+03  0.77934202542E+02 0.  0.
         23    2    1    2    0    0 -0.75686288025E+02 -0.56894598459E+01  0.10362557980E+03  0.15996757362E+03  0.95344531438E+02 0.  0.
        -13    1    3    3    0    0  0.13933426294E+02  0.18655832931E+02  0.69974283701E+02  0.73746734504E+02  0.00000000000E+00 0.  1.
         14    1    3    3    0    0 -0.50399798857E+02 -0.40386037541E+02  0.27051683425E+03  0.27811963139E+03  0.00000000000E+00 0. -1.
        -11    1    4    4    0    0 -0.23683690174E+02  0.32467737937E+02  0.83054670278E+02  0.92266729876E+02  0.00000000000E+00 0.  1.
         11    1    4    4    0    0 -0.52002597851E+02 -0.38157197783E+02  0.20570909517E+02  0.67700843749E+02  0.00000000000E+00 0. -1.
         21    1    1    2  503  502  0.21579315821E+02 -0.24984872346E+02 -0.48362547455E+02  0.58556355025E+02  0.00000000000E+00 0. -1.
          1    1    1    2  501    0  0.90573344766E+02  0.52404536802E+02 -0.51600876799E+02  0.11667226211E+03  0.00000000000E+00 0. -1.
<scales pt_clust_5="13000.00000" pt_clust_6="13000.00000" pt_clust_7="13000.00000" pt_clust_8="13000.00000" pt_clust_9="33.01380" pt_clust_10="13000.00000"></scales>
<clustering>
<clus scale="   33.014">  2  9  1 -1</clus>
<clus scale="   77.934">  5  6 -1 -1</clus>
<clus scale="   88.627">  1  5  2 -1</clus>
<clus scale="   95.345">  7  8 -1 -1</clus>
<clus scale="  101.554">  7 10 -1 -1</clus>
<clus scale="   33.014">  2  5  1 -1</clus>
</clustering>
</event>
<event>
10    4  0.2565852E-005  0.2424637E+03  0.7546771E-02  0.1141038E+00
         -1   -1    0    0    0  501 -0.00000000000E+00  0.00000000000E+00  0.11307504471E+04  0.11307504471E+04  0.00000000000E+00 0.  1.
         21   -1    0    0  503  502  0.00000000000E+00 -0.00000000000E+00 -0.87070067125E+02  0.87070067125E+02  0.00000000000E+00 0.  1.
         24    2    1    2    0    0 -0.10274683074E+03 -0.16271983793E+02  0.17697743435E+03  0.22185038937E+03  0.84112390948E+02 0.  0.
         23    2    1    2    0    0  0.12285813712E+03  0.96039254851E+02  0.85944601950E+03  0.87802257551E+03  0.89210550584E+02 0.  0.
        -11    1    3    3    0    0 -0.41460445100E+02  0.16442885394E+01  0.94336212144E+01  0.42551914198E+02  0.00000000000E+00 0.  1.
         12    1    3    3    0    0 -0.61286385637E+02 -0.17916272333E+02  0.16754381313E+03  0.17929847517E+03  0.00000000000E+00 0. -1.
        -11    1    4    4    0    0  0.12686160850E+03  0.63589623786E+02  0.76569496188E+03  0.77873376876E+03  0.00000000000E+00 0.  1.
         11    1    4    4    0    0 -0.40034713847E+01  0.32449631065E+02  0.93751057619E+02  0.99288806741E+02  0.00000000000E+00 0. -1.
         21    1    1    2  503  501  0.65056798285E+01 -0.53646794939E+02 -0.32802527024E+02  0.63216360671E+02  0.00000000000E+00 0.  1.
         -2    1    1    2    0  502 -0.26616986212E+02 -0.26120476119E+02  0.40059453150E+02  0.54731188680E+02  0.00000000000E+00 0.  1.
<scales pt_clust_5="13000.00000" pt_clust_6="13000.00000" pt_clust_7="13000.00000" pt_clust_8="13000.00000" pt_clust_9="54.03982" pt_clust_10="13000.00000"></scales>
<clustering>
<clus scale="   54.040">  2  9  1 -1</clus>
<clus scale="   84.112">  5  6 -1 -1</clus>
<clus scale="   89.211">  7  8 -1 -1</clus>
<clus scale="   44.216">  7 10 -1 -1</clus>
<clus scale="  138.185">  1  5  2 -1</clus>
<clus scale="   54.040">  2  5  1 -1</clus>
</clustering>
</event>
<event>
10    4  0.2565852E-005  0.4282709E+03  0.7546771E-02  0.1062602E+00
         21   -1    0    0  503  502  0.00000000000E+00  0.00000000000E+00  0.47856925021E+02  0.47856925021E+02  0.00000000000E+00 0.  1.
          2   -1    0    0  502    0 -0.00000000000E+00 -0.00000000000E+00 -0.27463653655E+04  0.27463653655E+04  0.00000000000E+00 0. -1.
         24    2    1    2    0    0 -0.17205587335E+02  0.17854734505E+03 -0.90078146848E+03  0.92199147846E+03  0.80534748571E+02 0.  0.
         23    2    1    2    0    0  0.56884984114E+02  0.10453918091E+03 -0.53095720544E+03  0.55143301193E+03  0.89434170600E+02 0.  0.
        -11    1    3    3    0    0 -0.38604143936E+02  0.16775929902E+03 -0.81086553009E+03  0.82893689158E+03  0.00000000000E+00 0.  1.
         12    1    3    3    0    0  0.21398556600E+02  0.10788046030E+02 -0.89915938396E+02  0.93054586880E+02  0.00000000000E+00 0. -1.
        -11    1    4    4    0    0  0.56881055061E+02  0.16911904100E+02 -0.25882148847E+03  0.26553724751E+03  0.00000000000E+00 0.  1.
         11    1    4    4    0    0  0.39290525259E-02  0.87627276810E+02 -0.27213571698E+03  0.28589576442E+03  0.00000000000E+00 0. -1.
         21    1    1    2  503  501  0.18850164381E+02 -0.18642130064E+02 -0.11654465642E+01  0.26537067965E+02  0.00000000000E+00 0.  1.
          1    1    1    2  501    0 -0.58529561159E+02 -0.26444439590E+03 -0.12656043200E+04  0.12942607321E+04  0.00000000000E+00 0. -1.
<scales pt_clust_5="13000.00000" pt_clust_6="13000.00000" pt_clust_7="13000.00000" pt_clust_8="13000.00000" pt_clust_9="26.51146" pt_clust_10="13000.00000"></scales>
<clustering>
<clus scale="   26.511">  1  9  2 -1</clus>
<clus scale="   80.535">  5  6 -1 -1</clus>
<clus scale="   89.434">  7  8 -1 -1</clus>
<clus scale="  191.108">  2  5  1 -1</clus>
<clus scale="  160.022">  7 10 -1 -1</clus>
<clus scale="   26.511">  1  5  2 -1</clus>
</clustering>
</event>
<event>
10    4  0.2565852E-005  0.2264104E+03  0.7546771E-02  0.1149952E+00
          2   -1    0    0  503    0 -0.00000000000E+00  0.00000000000E+00  0.69725697781E+03  0.69725697781E+03  0.00000000000E+00 0. -1.
         21   -1    0    0  501  502  0.00000000000E+00 -0.00000000000E+00 -0.10904723262E+03  0.10904723262E+03  0.00000000000E+00 0. -1.
         24    2    1    2    0    0 -0.87723658173E+02 -0.65841587634E+02  0.10489645812E+03  0.17140177017E+03  0.79653907786E+02 0.  0.
         23    2    1    2    0    0  0.22511320353E+01 -0.31960166801E+02  0.19441440042E+03  0.21387056924E+03  0.83169353977E+02 0.  0.
        -11    1    3    3    0    0 -0.53313752580E+02  0.74665761034E+01  0.33244853790E+02  0.63271844263E+02  0.00000000000E+00 0.  1.
         12    1    3    3    0    0 -0.34409905593E+02 -0.73308163738E+02  0.71651604328E+02  0.10812992591E+03  0.00000000000E+00 0. -1.
        -11    1    4    4    0    0  0.89060898173E+01  0.25342715431E+02  0.33572867702E+02  0.42996617390E+02  0.00000000000E+00 0.  1.
         11    1    4    4    0    0 -0.66549577820E+01 -0.57302882233E+02  0.16084153272E+03  0.17087395185E+03  0.00000000000E+00 0. -1.
         21    1    1    2  503  502  0.11447622982E+02 -0.18751862305E+02 -0.50255905400E+02  0.54848303888E+02  0.00000000000E+00 0. -1.
          1    1    1    2  501    0  0.74024903156E+02  0.11655361674E+03  0.33915479205E+03  0.36618356712E+03  0.00000000000E+00 0. -1.
<scales pt_clust_5="13000.00000" pt_clust_6="13000.00000" pt_clust_7="13000.00000" pt_clust_8="13000.00000" pt_clust_9="21.96999" pt_clust_10="13000.00000"></scales>
<clustering>
<clus scale="   21.970">  2  9  1 -1</clus>
<clus scale="   79.654">  5  6 -1 -1</clus>
<clus scale="   83.169">  7  8 -1 -1</clus>
<clus scale="  135.838">  7 10 -1 -1</clus>
<clus scale="  137.163">  1  5  2 -1</clus>
<clus scale="   21.970">  2  5  1 -1</clus>
</clustering>
</event>
<event>
10    4  0.2565852E-005  0.2568597E+03  0.7546771E-02  0.1120387E+00
         21   -1    0    0  501  502  0.00000000000E+00  0.00000000000E+00  0.84896928337E+02  0.84896928337E+02  0.00000000000E+00 0. -1.
          2   -1    0    0  503    0 -0.00000000000E+00 -0.00000000000E+00 -0.98430514602E+03  0.98430514602E+03  0.00000000000E+00 0. -1.
         24    2    1    2    0    0 -0.79230418289E+02 -0.15035910583E+03 -0.62290128952E+03  0.65050892802E+03  0.79186672233E+02 0.  0.
         23    2    1    2    0    0  0.95030747318E+02  0.85769090106E+02 -0.22073715169E+03  0.27066784932E+03  0.90271893549E+02 0.  0.
        -13    1    3    3    0    0 -0.74946636399E+02 -0.92437633804E+02 -0.50812675363E+03  0.52187595481E+03  0.00000000000E+00 0.  1.
         14    1    3    3    0    0 -0.42837818897E+01 -0.57921472025E+02 -0.11477453589E+03  0.12863297321E+03  0.00000000000E+00 0. -1.
        -13    1    4    4    0    0  0.38207923212E+02 -0.14049648928E+02 -0.72403382432E+02  0.83063155603E+02  0.00000000000E+00 0.  1.
         13    1    4    4    0    0  0.56822824106E+02  0.99818739034E+02 -0.14833376925E+03  0.18760469371E+03  0.00000000000E+00 0. -1.
         21    1    1    2  503  502 -0.26951073399E+02 -0.23890869591E+02 -0.45836004147E+02  0.58292995149E+02  0.00000000000E+00 0. -1.
          1    1    1    2  501    0  0.11150744370E+02  0.88480885313E+02 -0.99337723236E+01  0.89732301867E+02  0.00000000000E+00 0. -1.
<scales pt_clust_5="13000.00000" pt_clust_6="13000.00000" pt_clust_7="13000.00000" pt_clust_8="13000.00000" pt_clust_9="36.01575" pt_clust_10="13000.00000"></scales>
<clustering>
<clus scale="   36.016">  1  9  2 -1</clus>
<clus scale="   79.187">  5  6 -1 -1</clus>
<clus scale="   90.272">  7  8 -1 -1</clus>
<clus scale="   76.405">  7 10 -1 -1</clus>
<clus scale="  192.888">  2  5  1 -1</clus>
<clus scale="   36.016">  1  5  2 -1</clus>
</clustering>
</event>
<event>
10    4  0.2565852E-005  0.3557754E+03  0.7546771E-02  0.1095843E+00
          2   -1    0    0  502    0 -0.00000000000E+00  0.00000000000E+00  0.11848862980E+04  0.11848862980E+04  0.00000000000E+00 0. -1.
         21   -1    0    0  503  502  0.00000000000E+00 -0.00000000000E+00 -0.11892496106E+03  0.11892496106E+03  0.00000000000E+00 0. -1.
         24    2    1    2    0    0 -0.84914013360E+02  0.70598241779E+02  0.13707629910E+03  0.19305528701E+03  0.79283861294E+02 0.  0.
         23    2    1    2    0    0  0.11354769353E+03 -0.59941007288E+02  0.11260464655E+03  0.19483074865E+03  0.93772123420E+02 0.  0.
        -13    1    3    3    0    0 -0.89186942003E+02  0.28651228276E+02  0.91019110424E+02  0.13061271748E+03  0.00000000000E+00 0.  1.
         14    1    3    3    0    0  0.42729286429E+01  0.41947013502E+02  0.46057188675E+02  0.62442569530E+02  0.00000000000E+00 0. -1.
        -11    1    4    4    0    0  0.12393487104E+03 -0.30809038886E+02  0.85303869377E+02  0.15357668855E+03  0.00000000000E+00 0. -1.
         11    1    4    4    0    0 -0.10387177506E+02 -0.29131968402E+02  0.27300777177E+02  0.41254060091E+02  0.00000000000E+00 0.  1.
         21    1    1    2  503  501 -0.14383841117E+03  0.59330413514E+02  0.95317746786E+02  0.18246933811E+03  0.00000000000E+00 0. -1.
          1    1    1    2  501    0  0.11520473100E+03 -0.69987648005E+02  0.72096264449E+03  0.73345588529E+03  0.00000000000E+00 0. -1.
<scales pt_clust_5="13000.00000" pt_clust_6="13000.00000" pt_clust_7="13000.00000" pt_clust_8="13000.00000" pt_clust_9="170.01069" pt_clust_10="13000.00000"></scales>
<clustering>
<clus scale="   79.284">  5  6 -1 -1</clus>
<clus scale="   93.772">  7  8 -1 -1</clus>
<clus scale="  134.798">  7 10 -1 -1</clus>
<clus scale="  135.943">  1  5  2 -1</clus>
<clus scale="  170.011">  2  9  1 -1</clus>
<clus scale="  170.011">  2  5  1 -1</clus>
</clustering>
</event>
<event>
10    4  0.2565852E-005  0.1436756E+03  0.7546771E-02  0.1235476E+00
         21   -1    0    0  503  502  0.00000000000E+00  0.00000000000E+00  0.17945770804E+03  0.17945770804E+03  0.00000000000E+00 0. -1.
          2   -1    0    0  502    0 -0.00000000000E+00 -0.00000000000E+00 -0.35702650548E+03  0.35702650548E+03  0.00000000000E+00 0. -1.
         24    2    1    2    0    0  0.31279961146E+01 -0.13318904496E+02 -0.25610803200E+03  0.26869601549E+03  0.80118955989E+02 0.  0.
         23    2    1    2    0    0  0.46711091933E+02  0.69861967563E+01 -0.24228852329E+02  0.10494784771E+03  0.90533310988E+02 0.  0.
        -11    1    3    3    0    0  0.33525360756E+02  0.12493732796E+02 -0.73002892564E+02  0.81298619273E+02  0.00000000000E+00 0.  1.
         12    1    3    3    0    0 -0.30397364641E+02 -0.25812637292E+02 -0.18310513944E+03  0.18739739622E+03  0.00000000000E+00 0. -1.
        -13    1    4    4    0    0  0.56334679054E+02  0.30959400124E+02  0.67234637038E+01  0.64631923105E+02  0.00000000000E+00 0. -1.
         13    1    4    4    0    0 -0.96235871203E+01 -0.23973203367E+02 -0.30952316032E+02  0.40315924602E+02  0.00000000000E+00 0.  1.
         21    1    1    2  503  501 -0.14901823017E+02 -0.23245235887E+02  0.11267113812E+03  0.11600513216E+03  0.00000000000E+00 0. -1.
          1    1    1    2  501    0 -0.34937265031E+02  0.29577943627E+02 -0.99030512364E+01  0.46835218168E+02  0.00000000000E+00 0. -1.
<scales pt_clust_5="13000.00000" pt_clust_6="13000.00000" pt_clust_7="13000.00000" pt_clust_8="13000.00000" pt_clust_9="27.61169" pt_clust_10="13000.00000"></scales>
<clustering>
<clus scale="   27.612">  1  9  2 -1</clus>
<clus scale="   80.119">  5  6 -1 -1</clus>
<clus scale="   81.634">  2  5  1 -1</clus>
<clus scale="   90.533">  7  8 -1 -1</clus>
<clus scale="   42.641">  7 10 -1 -1</clus>
<clus scale="   27.612">  1  5  2 -1</clus>
</clustering>
</event>
<event>
10    4  0.2565852E-005  0.5274364E+03  0.7546771E-02  0.1025036E+00
         21   -1    0    0  501  502  0.00000000000E+00  0.00000000000E+00  0.33480113936E+03  0.33480113936E+03  0.00000000000E+00 0.  1.
          2   -1    0    0  503    0 -0.00000000000E+00 -0.00000000000E+00 -0.56561453394E+03  0.56561453394E+03  0.00000000000E+00 0. -1.
         24    2    1    2    0    0 -0.15058944144E+03  0.25785823398E+03 -0.14080061171E+03  0.33966799787E+03  0.79884215050E+02 0.  0.
         23    2    1    2    0    0 -0.13926534714E+03 -0.41609243789E+02 -0.51316800940E+02  0.17943594834E+03  0.91856841962E+02 0.  0.
        -11    1    3    3    0    0 -0.15285770625E+03  0.21693615904E+03 -0.13658611772E+03  0.29846698815E+03  0.00000000000E+00 0.  1.
         12    1    3    3    0    0  0.22682648109E+01  0.40922074938E+02 -0.42144939892E+01  0.41201009722E+02  0.00000000000E+00 0. -1.
        -13    1    4    4    0    0 -0.89159845126E+02 -0.50068711357E+02 -0.71484660185E+02  0.12476542182E+03  0.00000000000E+00 0. -1.
         13    1    4    4    0    0 -0.50105502018E+02  0.84594675672E+01  0.20167859244E+02  0.54670526524E+02  0.00000000000E+00 0.  1.
         21    1    1    2  503  502  0.19018339451E+01 -0.22472064982E+02  0.18971664463E+02  0.29470913277E+02  0.00000000000E+00 0. -1.
          1    1    1    2  501    0  0.28795295463E+03 -0.19377692521E+03 -0.57667646390E+02  0.35184081382E+03  0.00000000000E+00 0. -1.
<scales pt_clust_5="13000.00000" pt_clust_6="13000.00000" pt_clust_7="13000.00000" pt_clust_8="13000.00000" pt_clust_9="22.55240" pt_clust_10="13000.00000"></scales>
<clustering>
<clus scale="   22.552">  1  9  2 -1</clus>
<clus scale="   79.884">  5  6 -1 -1</clus>
<clus scale="   91.857">  7  8 -1 -1</clus>
<clus scale="  302.833">  2  5  1 -1</clus>
<clus scale="  197.115">  7 10 -1 -1</clus>
<clus scale="   22.552">  1  5  2 -1</clus>
</clustering>
</event>
<event>
10    4  0.2565852E-005  0.2770496E+03  0.7546771E-02  0.1107717E+00
          2   -1    0    0  502    0 -0.00000000000E+00  0.00000000000E+00  0.53800627709E+03  0.53800627709E+03  0.00000000000E+00 0. -1.
         21   -1    0    0  503  502  0.00000000000E+00 -0.00000000000E+00 -0.41174689150E+03  0.41174689150E+03  0.00000000000E+00 0.  1.
         24    2    1    2    0    0 -0.55045638895E+02 -0.13527241360E+03 -0.15524413393E+03  0.22718377091E+03  0.78632540350E+02 0.  0.
         23    2    1    2    0    0  0.78399830630E+02  0.45675404990E+02  0.19528781481E+03  0.23383862767E+03  0.91161379509E+02 0.  0.
        -13    1    3    3    0    0 -0.21400007183E+02 -0.12924908482E+03 -0.11442432087E+03  0.17394312702E+03  0.00000000000E+00 0.  1.
         14    1    3    3    0    0 -0.33645631712E+02 -0.60233287892E+01 -0.40819813066E+02  0.53240643889E+02  0.00000000000E+00 0. -1.
        -11    1    4    4    0    0  0.84845790889E+02  0.65801839857E+02  0.15938612768E+03  0.19217863580E+03  0.00000000000E+00 0.  1.
         11    1    4    4    0    0 -0.64459602586E+01 -0.20126434867E+02  0.35901687134E+02  0.41659991877E+02  0.00000000000E+00 0. -1.
         21    1    1    2  503  501 -0.33994320611E+00 -0.64827496814E+02 -0.17376869425E+03  0.18546773036E+03  0.00000000000E+00 0. -1.
          1    1    1    2  501    0 -0.23014248529E+02  0.15442450543E+03  0.25998439895E+03  0.30326303964E+03  0.00000000000E+00 0. -1.
<scales pt_clust_5="13000.00000" pt_clust_6="13000.00000" pt_clust_7="13000.00000" pt_clust_8="13000.00000" pt_clust_9="64.82839" pt_clust_10="13000.00000"></scales>
<clustering>
<clus scale="   64.828">  2  9  1 -1</clus>
<clus scale="   78.633">  5  6 -1 -1</clus>
<clus scale="   91.161">  7  8 -1 -1</clus>
<clus scale="  150.160">  7 10 -1 -1</clus>
<clus scale="  211.759">  1  5  2 -1</clus>
<clus scale="   64.828">  2  5  1 -1</clus>
</clustering>
</event>
<event>
10    4  0.2565852E-005  0.1022938E+04  0.7546771E-02  0.9365945E-01
         21   -1    0    0  501  502  0.00000000000E+00  0.00000000000E+00  0.15699045114E+04  0.15699045114E+04  0.00000000000E+00 0. -1.
          2   -1    0    0  503    0 -0.00000000000E+00 -0.00000000000E+00 -0.21772956967E+04  0.21772956967E+04  0.00000000000E+00 0. -1.
         24    2    1    2    0    0  0.72121250599E+03  0.28128751534E+03 -0.77492982285E+03  0.10982877647E+04  0.80309642021E+02 0.  0.
         23    2    1    2    0    0 -0.37626803742E+03  0.26764125544E+03 -0.74209131670E+03  0.87876565910E+03  0.91214492766E+02 0.  0.
        -11    1    3    3    0    0  0.19530659381E+02  0.18132780105E+02 -0.44062350290E+02  0.51495000565E+02  0.00000000000E+00 0.  1.
         12    1    3    3    0    0  0.70168184661E+03  0.26315473523E+03 -0.73086747256E+03  0.10467927641E+04  0.00000000000E+00 0. -1.
        -13    1    4    4    0    0 -0.34831164733E+03  0.26888307144E+03 -0.67146975758E+03  0.80280180937E+03  0.00000000000E+00 0. -1.
         13    1    4    4    0    0 -0.27956390094E+02 -0.12418160029E+01 -0.70621559117E+02  0.75963849732E+02  0.00000000000E+00 0.  1.
         21    1    1    2  503  502  0.25626250553E+02 -0.22991077543E+03  0.11860840688E+04  0.12084333195E+04  0.00000000000E+00 0. -1.
          1    1    1    2  501    0 -0.37057071912E+03 -0.31901799534E+03 -0.27645411451E+03  0.56171346490E+03  0.00000000000E+00 0. -1.
<scales pt_clust_5="13000.00000" pt_clust_6="13000.00000" pt_clust_7="13000.00000" pt_clust_8="13000.00000" pt_clust_9="231.33454" pt_clust_10="13000.00000"></scales>
<clustering>
<clus scale="   80.310">  5  6 -1 -1</clus>
<clus scale="   91.214">  7  8 -1 -1</clus>
<clus scale="  231.335">  1  9  2 -1</clus>
<clus scale="  543.886">  7 10 -1 -1</clus>
<clus scale="  758.758">  2  5  1 -1</clus>
<clus scale="  231.335">  1  5  2 -1</clus>
</clustering>
</event>
<event>
10    4  0.2565852E-005  0.8716222E+03  0.7546771E-02  0.1019693E+00
         21   -1    0    0  501  502  0.00000000000E+00  0.00000000000E+00  0.21127414570E+03  0.21127414570E+03  0.00000000000E+00 0. -1.
          2   -1    0    0  503    0 -0.00000000000E+00 -0.00000000000E+00 -0.12204926475E+04  0.12204926475E+04  0.00000000000E+00 0. -1.
         24    2    1    2    0    0  0.17582873088E+02  0.12264225795E+02 -0.90051183334E+01  0.79787856116E+02  0.76324577739E+02 0.  0.
         23    2    1    2    0    0  0.15504114049E+03 -0.18804565178E+03 -0.10246143280E+04  0.10571800632E+04  0.91631012145E+02 0.  0.
        -13    1    3    3    0    0  0.24291668077E+02  0.21542918484E+02 -0.37188329260E+02  0.49367543061E+02  0.00000000000E+00 0.  1.
         14    1    3    3    0    0 -0.67087949890E+01 -0.92786926885E+01  0.28183210927E+02  0.30420313055E+02  0.00000000000E+00 0. -1.
        -11    1    4    4    0    0  0.99627939785E+02 -0.15206299379E+03 -0.87407227385E+03  0.89277725127E+03  0.00000000000E+00 0. -1.
         11    1    4    4    0    0  0.55413200708E+02 -0.35982657987E+02 -0.15054205417E+03  0.16440281190E+03  0.00000000000E+00 0.  1.
         21    1    1    2  503  502  0.30613654718E+01 -0.25897035129E+02 -0.12192135490E+01  0.26105839743E+02  0.00000000000E+00 0.  1.
          1    1    1    2  501    0 -0.17568537905E+03  0.20167846112E+03  0.25620158129E+02  0.26869303414E+03  0.00000000000E+00 0. -1.
<scales pt_clust_5="13000.00000" pt_clust_6="13000.00000" pt_clust_7="13000.00000" pt_clust_8="13000.00000" pt_clust_9="26.07735" pt_clust_10="13000.00000"></scales>
<clustering>
<clus scale="   26.077">  1  9  2 -1</clus>
<clus scale="   76.325">  5  6 -1 -1</clus>
<clus scale="   78.820">  2  5  1 -1</clus>
<clus scale="   91.631">  7  8 -1 -1</clus>
<clus scale="  251.071">  7 10 -1 -1</clus>
<clus scale="   26.077">  1  5  2 -1</clus>
</clustering>
</event>
<event>
10    4  0.2565852E-005  0.5092263E+03  0.7546771E-02  0.1064000E+00
         21   -1    0    0  501  502  0.00000000000E+00  0.00000000000E+00  0.11917396668E+03  0.11917396668E+03  0.00000000000E+00 0.  1.
          2   -1    0    0  503    0 -0.00000000000E+00 -0.00000000000E+00 -0.11361290269E+04  0.11361290269E+04  0.00000000000E+00 0. -1.
         24    2    1    2    0    0 -0.16926962255E+02 -0.67873666932E+02 -0.12932453086E+03  0.16710763707E+03  0.79415183502E+02 0.  0.
         23    2    1    2    0    0 -0.18738466156E+01  0.25921657858E+03 -0.29391008487E+03  0.40206175737E+03  0.89854175397E+02 0.  0.
        -13    1    3    3    0    0  0.99599337744E+01 -0.71119967250E+02 -0.11716202196E+03  0.13741975627E+03  0.00000000000E+00 0.  1.
         14    1    3    3    0    0 -0.26886896030E+02  0.32463003182E+01 -0.12162508903E+02  0.29687880805E+02  0.00000000000E+00 0. -1.
        -11    1    4    4    0    0  0.15479415837E+02  0.23035423621E+03 -0.21177770717E+03  0.31329296786E+03  0.00000000000E+00 0.  1.
         11    1    4    4    0    0 -0.17353262453E+02  0.28862342378E+02 -0.82132377700E+02  0.88768789515E+02  0.00000000000E+00 0. -1.
         21    1    1    2  503  502 -0.28752306414E+02 -0.16435647643E+02  0.24945487205E+02  0.41462066633E+02  0.00000000000E+00 0.  1.
          1    1    1    2  501    0  0.47553115285E+02 -0.17490726401E+03 -0.61866593165E+03  0.64467153246E+03  0.00000000000E+00 0. -1.
<scales pt_clust_5="13000.00000" pt_clust_6="13000.00000" pt_clust_7="13000.00000" pt_clust_8="13000.00000" pt_clust_9="33.11836" pt_clust_10="13000.00000"></scales>
<clustering>
<clus scale="   33.118">  1  9  2 -1</clus>
<clus scale="   79.415">  5  6 -1 -1</clus>
<clus scale="   89.854">  7  8 -1 -1</clus>
<clus scale="  109.349">  2  5  1 -1</clus>
<clus scale="  226.292">  7 10 -1 -1</clus>
<clus scale="   33.118">  1  5  2 -1</clus>
</clustering>
</event>
<event>
10    4  0.2565852E-005  0.2034802E+03  0.7546771E-02  0.1189237E+00
         21   -1    0    0  501  502  0.00000000000E+00  0.00000000000E+00  0.62968873068E+02  0.62968873068E+02  0.00000000000E+00 0.  1.
         -3   -1    0    0    0  501 -0.00000000000E+00 -0.00000000000E+00 -0.65837785931E+03  0.65837785931E+03  0.00000000000E+00 0.  1.
         24    2    1    2    0    0  0.56252997060E+01  0.22231419977E+02 -0.49138670656E+02  0.91228854256E+02  0.73363579957E+02 0.  0.
         23    2    1    2    0    0 -0.44721506121E+02 -0.92767368291E+02 -0.30477519924E+03  0.33521895832E+03  0.94223299736E+02 0.  0.
        -13    1    3    3    0    0 -0.15356398648E+02 -0.20739667202E+02 -0.52776215500E+01  0.26340198639E+02  0.00000000000E+00 0.  1.
         14    1    3    3    0    0  0.20981698354E+02  0.42971087179E+02 -0.43861049106E+02  0.64888655617E+02  0.00000000000E+00 0. -1.
        -11    1    4    4    0    0 -0.37007449315E+02 -0.46097837462E+02 -0.27029332208E+03  0.27668220377E+03  0.00000000000E+00 0.  1.
         11    1    4    4    0    0 -0.77140568062E+01 -0.46669530829E+02 -0.34481877165E+02  0.58536754548E+02  0.00000000000E+00 0. -1.
         21    1    1    2  503  502  0.75552431836E+02  0.14472416488E+02 -0.49216951350E+02  0.91323212249E+02  0.00000000000E+00 0.  1.
         -4    1    1    2    0  503 -0.36456225421E+02  0.56063531827E+02 -0.19227816500E+03  0.20357570756E+03  0.00000000000E+00 0.  1.
<scales pt_clust_5="13000.00000" pt_clust_6="13000.00000" pt_clust_7="13000.00000" pt_clust_8="13000.00000" pt_clust_9="78.12522" pt_clust_10="13000.00000"></scales>
<clustering>
<clus scale="   73.364">  5  6 -1 -1</clus>
<clus scale="   76.864">  2  5  1 -1</clus>
<clus scale="   78.125">  1  9  2 -1</clus>
<clus scale="   94.223">  7  8 -1 -1</clus>
<clus scale="   70.112">  7 10 -1 -1</clus>
<clus scale="   78.125">  1  5  2 -1</clus>
</clustering>
</event>
<event>
10    4  0.2565852E-005  0.2752202E+03  0.7546771E-02  0.1117622E+00
         21   -1    0    0  503  502  0.00000000000E+00  0.00000000000E+00  0.10357434675E+04  0.10357434675E+04  0.00000000000E+00 0.  1.
         -1   -1    0    0    0  501 -0.00000000000E+00 -0.00000000000E+00 -0.13108390595E+03  0.13108390595E+03  0.00000000000E+00 0.  1.
         24    2    1    2    0    0 -0.11740747439E+02  0.13558380946E+03  0.38815200275E+01  0.16006408288E+03  0.84170243517E+02 0.  0.
         23    2    1    2    0    0 -0.37814967233E+02 -0.10817065335E+00  0.17670032647E+03  0.20289269342E+03  0.92262973168E+02 0.  0.
        -13    1    3    3    0    0 -0.74594208878E+01  0.37051335637E+02 -0.37378060501E+02  0.53156032953E+02  0.00000000000E+00 0.  1.
         14    1    3    3    0    0 -0.42813265517E+01  0.98532473821E+02  0.41259580529E+02  0.10690804993E+03  0.00000000000E+00 0. -1.
        -13    1    4    4    0    0 -0.60574017974E+02 -0.23965153375E+02  0.13351861836E+03  0.14856231581E+03  0.00000000000E+00 0. -1.
         13    1    4    4    0    0  0.22759050741E+02  0.23856982722E+02  0.43181708111E+02  0.54330377604E+02  0.00000000000E+00 0.  1.
         21    1    1    2  503  501  0.63977580610E+02  0.96451773856E+02  0.21207351925E+03  0.24160143433E+03  0.00000000000E+00 0.  1.
         -2    1    1    2    0  502 -0.14421865937E+02 -0.23192741266E+03  0.51200419583E+03  0.56226916286E+03  0.00000000000E+00 0.  1.
<scales pt_clust_5="13000.00000" pt_clust_6="13000.00000" pt_clust_7="13000.00000" pt_clust_8="13000.00000" pt_clust_9="115.74142" pt_clust_10="13000.00000"></scales>
<clustering>
<clus scale="   84.170">  5  6 -1 -1</clus>
<clus scale="   92.263">  7  8 -1 -1</clus>
<clus scale="  115.741">  1  9  2 -1</clus>
<clus scale="  168.051">  2  5  1 -1</clus>
<clus scale="   96.884">  7 10 -1 -1</clus>
<clus scale="  115.741">  1  5  2 -1</clus>
</clustering>
</event>
<event>
10    4  0.2565852E-005  0.4530502E+03  0.7546771E-02  0.1070821E+00
         21   -1    0    0  501  502  0.00000000000E+00  0.00000000000E+00  0.51652597622E+03  0.51652597622E+03  0.00000000000E+00 0.  1.
         -3   -1    0    0    0  501 -0.00000000000E+00 -0.00000000000E+00 -0.22353919600E+03  0.22353919600E+03  0.00000000000E+00 0.  1.
         24    2    1    2    0    0 -0.77060289904E+02 -0.58998225922E+02  0.14501428113E+03  0.19312269809E+03  0.82753585082E+02 0.  0.
         23    2    1    2    0    0 -0.48689895817E+02  0.24237875270E+02 -0.16779875601E+03  0.18740058404E+03  0.63280137699E+02 0.  0.
        -11    1    3    3    0    0 -0.90719656423E+02 -0.60944722117E+02  0.10812614539E+03  0.15373866961E+03  0.00000000000E+00 0.  1.
         12    1    3    3    0    0  0.13659366520E+02  0.19464961956E+01  0.36888135743E+02  0.39384028486E+02  0.00000000000E+00 0. -1.
        -13    1    4    4    0    0 -0.54564773846E+02  0.44196385821E+01 -0.78257445988E+02  0.95504322429E+02  0.00000000000E+00 0.  1.
         13    1    4    4    0    0  0.58748780287E+01  0.19818236688E+02 -0.89541310026E+02  0.91896261613E+02  0.00000000000E+00 0. -1.
         21    1    1    2  503  502 -0.15928994364E+02  0.16507277051E+02  0.85813321949E+02  0.88826512264E+02  0.00000000000E+00 0. -1.
         -4    1    1    2    0  503  0.14167918008E+03  0.18253073601E+02  0.22995793316E+03  0.27071537782E+03  0.00000000000E+00 0.  1.
<scales pt_clust_5="13000.00000" pt_clust_6="13000.00000" pt_clust_7="13000.00000" pt_clust_8="13000.00000" pt_clust_9="22.93955" pt_clust_10="13000.00000"></scales>
<clustering>
<clus scale="   22.940">  1  9  2 -1</clus>
<clus scale="   63.280">  7  8 -1 -1</clus>
<clus scale="   82.754">  5  6 -1 -1</clus>
<clus scale="  128.642">  2  5  1 -1</clus>
<clus scale="  126.389">  7 10 -1 -1</clus>
<clus scale="   22.940">  1  5  2 -1</clus>
</clustering>
</event>
<event>
10    4  0.2565852E-005  0.3233007E+03  0.7546771E-02  0.1122213E+00
          2   -1    0    0  502    0 -0.00000000000E+00  0.00000000000E+00  0.68839587644E+03  0.68839587644E+03  0.00000000000E+00 0. -1.
         21   -1    0    0  503  502  0.00000000000E+00 -0.00000000000E+00 -0.32518088709E+03  0.32518088709E+03  0.00000000000E+00 0.  1.
         24    2    1    2    0    0 -0.41761447960E+02  0.33149486685E+01 -0.16393796123E+03  0.18819600585E+03  0.82383700230E+02 0.  0.
         23    2    1    2    0    0  0.50243536548E+02  0.11778399872E+03  0.15253995427E+03  0.21781845384E+03  0.88198400588E+02 0.  0.
        -13    1    3    3    0    0 -0.51600662108E+02 -0.16489926411E+02 -0.15526148809E+03  0.16444049284E+03  0.00000000000E+00 0.  1.
         14    1    3    3    0    0  0.98392141479E+01  0.19804875080E+02 -0.86764731466E+01  0.23755513007E+02  0.00000000000E+00 0. -1.
        -13    1    4    4    0    0  0.73239807945E+02  0.65438458311E+02  0.10012193260E+03  0.14025213967E+03  0.00000000000E+00 0. -1.
         13    1    4    4    0    0 -0.22996271397E+02  0.52345540406E+02  0.52418021663E+02  0.77566314168E+02  0.00000000000E+00 0.  1.
         21    1    1    2  503  501 -0.15794137898E+03 -0.54452498379E+02 -0.31239035466E+02  0.16996008681E+03  0.00000000000E+00 0.  1.
          1    1    1    2  501    0  0.14945929039E+03 -0.66646449006E+02  0.40585203178E+03  0.43760221703E+03  0.00000000000E+00 0. -1.
<scales pt_clust_5="13000.00000" pt_clust_6="13000.00000" pt_clust_7="13000.00000" pt_clust_8="13000.00000" pt_clust_9="171.01164" pt_clust_10="13000.00000"></scales>
<clustering>
<clus scale="   82.384">  5  6 -1 -1</clus>
<clus scale="   88.198">  7  8 -1 -1</clus>
<clus scale="   92.423">  1  5  2 -1</clus>
<clus scale="  139.291">  7 10 -1 -1</clus>
<clus scale="  171.012">  2  9  1 -1</clus>
<clus scale="  171.012">  2  5  1 -1</clus>
</clustering>
</event>
<event>
10    4  0.2565852E-005  0.3355648E+03  0.7546771E-02  0.1097526E+00
         21   -1    0    0  503  502  0.00000000000E+00  0.00000000000E+00  0.12315442216E+03  0.12315442216E+03  0.00000000000E+00 0. -1.
          2   -1    0    0  502    0 -0.00000000000E+00 -0.00000000000E+00 -0.17316343088E+04  0.17316343088E+04  0.00000000000E+00 0. -1.
         24    2    1    2    0    0  0.12616206698E+03  0.51615532991E+01 -0.20936288337E+03  0.26052475712E+03  0.89982350269E+02 0.  0.
         23    2    1    2    0    0 -0.75567101343E+02  0.23766010402E+02 -0.18144388064E+03  0.21694331308E+03  0.88697853490E+02 0.  0.
        -11    1    3    3    0    0  0.45053846890E+01 -0.28347045227E+02 -0.34338795923E+02  0.44754959164E+02  0.00000000000E+00 0.  1.
         12    1    3    3    0    0  0.12165668230E+03  0.33508598526E+02 -0.17502408745E+03  0.21576979796E+03  0.00000000000E+00 0. -1.
        -13    1    4    4    0    0 -0.32754931373E+02  0.46649477958E+02 -0.14630343350E+03  0.15701513932E+03  0.00000000000E+00 0. -1.
         13    1    4    4    0    0 -0.42812169970E+02 -0.22883467556E+02 -0.35140447141E+02  0.59928173760E+02  0.00000000000E+00 0.  1.
         21    1    1    2  503  501  0.21243684619E+03 -0.14116083025E+02 -0.11174888222E+03  0.24045059804E+03  0.00000000000E+00 0. -1.
          1    1    1    2  501    0 -0.26303181183E+03 -0.14811480675E+02 -0.11059242404E+04  0.11368700627E+04  0.00000000000E+00 0. -1.
<scales pt_clust_5="13000.00000" pt_clust_6="13000.00000" pt_clust_7="13000.00000" pt_clust_8="13000.00000" pt_clust_9="227.68211" pt_clust_10="13000.00000"></scales>
<clustering>
<clus scale="   88.698">  7  8 -1 -1</clus>
<clus scale="   89.982">  5  6 -1 -1</clus>
<clus scale="  155.050">  2  5  1 -1</clus>
<clus scale="  168.860">  7 10 -1 -1</clus>
<clus scale="  227.682">  1  9  2 -1</clus>
<clus scale="  227.682">  1  5  2 -1</clus>
</clustering>
</event>
<event>
10    4  0.2565852E-005  0.4882068E+03  0.7546771E-02  0.1055660E+00
          2   -1    0    0  503    0 -0.00000000000E+00  0.00000000000E+00  0.68890430781E+03  0.68890430781E+03  0.00000000000E+00 0. -1.
         21   -1    0    0  501  502  0.00000000000E+00 -0.00000000000E+00 -0.28399251040E+03  0.28399251040E+03  0.00000000000E+00 0.  1.
         24    2    1    2    0    0  0.96904644794E+02 -0.90946900317E+02  0.87457180112E+01  0.15583256332E+03  0.80903963740E+02 0.  0.
         23    2    1    2    0    0 -0.22538408641E+03  0.15019762166E+03  0.15408085827E+03  0.32831759931E+03  0.10341287719E+03 0.  0.
        -11    1    3    3    0    0  0.98331481854E+02 -0.88809633886E+02  0.28817047180E+02  0.13559739527E+03  0.00000000000E+00 0.  1.
         12    1    3    3    0    0 -0.14268370603E+01 -0.21372664312E+01 -0.20071329169E+02  0.20235168059E+02  0.00000000000E+00 0. -1.
        -11    1    4    4    0    0 -0.11659588439E+03  0.13766842869E+03  0.95533896709E+02  0.20414191616E+03  0.00000000000E+00 0.  1.
         11    1    4    4    0    0 -0.10878820203E+03  0.12529192972E+02  0.58546961566E+02  0.12417568315E+03  0.00000000000E+00 0. -1.
         21    1    1    2  503  502  0.29755517576E+02  0.31504185294E+02 -0.10664952430E+03  0.11511744242E+03  0.00000000000E+00 0.  1.
          1    1    1    2  501    0  0.98723924046E+02 -0.90754906640E+02  0.34873474542E+03  0.37362921315E+03  0.00000000000E+00 0. -1.
<scales pt_clust_5="13000.00000" pt_clust_6="13000.00000" pt_clust_7="13000.00000" pt_clust_8="13000.00000" pt_clust_9="43.33480" pt_clust_10="13000.00000"></scales>
<clustering>
<clus scale="   43.335">  2  9  1 -1</clus>
<clus scale="   80.904">  5  6 -1 -1</clus>
<clus scale="  103.413">  7  8 -1 -1</clus>
<clus scale="  134.179">  7 10 -1 -1</clus>
<clus scale="  156.722">  1  5  2 -1</clus>
<clus scale="   43.335">  2  5  1 -1</clus>
</clustering>
</event>
<event>
10    4  0.2565852E-005  0.1569244E+03  0.7546771E-02  0.1206718E+00
          2   -1    0    0  503    0 -0.00000000000E+00  0.00000000000E+00  0.20666991037E+03  0.20666991037E+03  0.00000000000E+00 0. -1.
         21   -1    0    0  501  502  0.00000000000E+00 -0.00000000000E+00 -0.11262411645E+03  0.11262411645E+03  0.00000000000E+00 0.  1.
         24    2    1    2    0    0  0.31678716667E+01  0.74149768303E+02  0.56631914813E+02  0.12340573447E+03  0.80706740575E+02 0.  0.
         23    2    1    2    0    0  0.19212252980E+02 -0.42845188045E+02  0.17604142411E+01  0.94353461912E+02  0.81820877002E+02 0.  0.
        -11    1    3    3    0    0  0.26739563698E+02  0.10159456414E+02 -0.77352760718E+01  0.29631964452E+02  0.00000000000E+00 0.  1.
         12    1    3    3    0    0 -0.23571692031E+02  0.63990311889E+02  0.64367190885E+02  0.93773770018E+02  0.00000000000E+00 0. -1.
        -11    1    4    4    0    0 -0.23552455726E+02 -0.14922953025E+01 -0.20076104782E+02  0.30983787683E+02  0.00000000000E+00 0. -1.
         11    1    4    4    0    0  0.42764708705E+02 -0.41352892742E+02  0.21836519023E+02  0.63369674229E+02  0.00000000000E+00 0.  1.
         21    1    1    2  503  502  0.15074606244E+02  0.19059381072E+02 -0.74246265801E+01  0.25409227460E+02  0.00000000000E+00 0.  1.
          1    1    1    2  501    0 -0.37454730890E+02 -0.50363961330E+02  0.43078091446E+02  0.76125602983E+02  0.00000000000E+00 0. -1.
<scales pt_clust_5="13000.00000" pt_clust_6="13000.00000" pt_clust_7="13000.00000" pt_clust_8="13000.00000" pt_clust_9="24.30028" pt_clust_10="13000.00000"></scales>
<clustering>
<clus scale="   24.300">  2  9  1 -1</clus>
<clus scale="   80.707">  5  6 -1 -1</clus>
<clus scale="   81.821">  7  8 -1 -1</clus>
<clus scale="   58.593">  7 10 -1 -1</clus>
<clus scale="  114.486">  1  5  2 -1</clus>
<clus scale="   24.300">  2  5  1 -1</clus>
</clustering>
</event>
<event>
10    4  0.2565852E-005  0.2877732E+03  0.7546771E-02  0.1122396E+00
          2   -1    0    0  503    0 -0.00000000000E+00  0.00000000000E+00  0.64627210449E+03  0.64627210449E+03  0.00000000000E+00 0. -1.
         21   -1    0    0  501  502  0.00000000000E+00 -0.00000000000E+00 -0.10792633197E+03  0.10792633197E+03  0.00000000000E+00 0. -1.
         24    2    1    2    0    0 -0.29575776577E+02  0.97730776053E+02  0.27554336021E+03  0.30436655941E+03  0.79302131014E+02 0.  0.
         23    2    1    2    0    0 -0.56502917113E+02 -0.41339794008E+02  0.53203971463E+01  0.11403360669E+03  0.89854318858E+02 0.  0.
        -13    1    3    3    0    0 -0.53458838083E+02  0.49970179225E+02  0.12777592242E+03  0.14724657052E+03  0.00000000000E+00 0.  1.
         14    1    3    3    0    0  0.23883061507E+02  0.47760596829E+02  0.14776743779E+03  0.15711998889E+03  0.00000000000E+00 0. -1.
        -13    1    4    4    0    0  0.24259659006E+02 -0.55554811112E+01 -0.40038410060E+01  0.25207641069E+02  0.00000000000E+00 0.  1.
         13    1    4    4    0    0 -0.80762576119E+02 -0.35784312897E+02  0.93242381524E+01  0.88825965618E+02  0.00000000000E+00 0. -1.
         21    1    1    2  503  502  0.32262037139E+02  0.16699256356E+02 -0.21643162285E+02  0.42286294197E+02  0.00000000000E+00 0. -1.
          1    1    1    2  501    0  0.53816656550E+02 -0.73090238401E+02  0.27912517745E+03  0.29351197617E+03  0.00000000000E+00 0. -1.
<scales pt_clust_5="13000.00000" pt_clust_6="13000.00000" pt_clust_7="13000.00000" pt_clust_8="13000.00000" pt_clust_9="36.32773" pt_clust_10="13000.00000"></scales>
<clustering>
<clus scale="   36.328">  2  9  1 -1</clus>
<clus scale="   79.302">  5  6 -1 -1</clus>
<clus scale="   89.854">  7  8 -1 -1</clus>
<clus scale="   91.367">  7 10 -1 -1</clus>
<clus scale="  130.459">  1  5  2 -1</clus>
<clus scale="   36.328">  2  5  1 -1</clus>
</clustering>
</event>
<event>
10    4  0.2565852E-005  0.2562276E+03  0.7546771E-02  0.1149653E+00
          2   -1    0    0  503    0 -0.00000000000E+00  0.00000000000E+00  0.29969301448E+03  0.29969301448E+03  0.00000000000E+00 0. -1.
         21   -1    0    0  501  502  0.00000000000E+00 -0.00000000000E+00 -0.16996411059E+03  0.16996411059E+03  0.00000000000E+00 0.  1.
         24    2    1    2    0    0 -0.27979376242E+02 -0.43823368904E+02  0.12168275261E+03  0.15327661342E+03  0.77354345578E+02 0.  0.
         23    2    1    2    0    0  0.45877911284E+02  0.36939260054E+02 -0.11307737989E+03  0.15760967858E+03  0.92655411392E+02 0.  0.
        -13    1    3    3    0    0 -0.15314516116E+02 -0.64170783535E+02  0.69354016063E+02  0.95720444041E+02  0.00000000000E+00 0.  1.
         14    1    3    3    0    0 -0.12664860126E+02  0.20347414631E+02  0.52328736551E+02  0.57556169375E+02  0.00000000000E+00 0. -1.
        -11    1    4    4    0    0  0.21667716441E+01  0.24949686677E+02  0.96048485331E+01  0.26822283274E+02  0.00000000000E+00 0. -1.
         11    1    4    4    0    0  0.43711139640E+02  0.11989573377E+02 -0.12268222843E+03  0.13078739530E+03  0.00000000000E+00 0.  1.
         21    1    1    2  503  502 -0.44733247696E+02 -0.12933229780E+02  0.17226358997E+02  0.49649565217E+02  0.00000000000E+00 0.  1.
          1    1    1    2  501    0  0.26834712653E+02  0.19817338629E+02  0.10389717218E+03  0.10912126786E+03  0.00000000000E+00 0. -1.
<scales pt_clust_5="13000.00000" pt_clust_6="13000.00000" pt_clust_7="13000.00000" pt_clust_8="13000.00000" pt_clust_9="46.56537" pt_clust_10="13000.00000"></scales>
<clustering>
<clus scale="   46.565">  2  9  1 -1</clus>
<clus scale="   77.354">  5  6 -1 -1</clus>
<clus scale="   92.655">  7  8 -1 -1</clus>
<clus scale="   32.618">  7 10 -1 -1</clus>
<clus scale="   95.308">  1  5  2 -1</clus>
<clus scale="   46.565">  2  5  1 -1</clus>
</clustering>
</event>
<event>
10    4  0.2565852E-005  0.5018837E+03  0.7546771E-02  0.1045817E+00
          2   -1    0    0  503    0 -0.00000000000E+00  0.00000000000E+00  0.16143535928E+04  0.16143535928E+04  0.00000000000E+00 0. -1.
         21   -1    0    0  501  502  0.00000000000E+00 -0.00000000000E+00 -0.98334732699E+02  0.98334732699E+02  0.00000000000E+00 0. -1.
         24    2    1    2    0    0 -0.49342822420E+02 -0.15553161669E+03  0.36980946202E+03  0.41247655718E+03  0.82177089928E+02 0.  0.
         23    2    1    2    0    0  0.20858187247E+03 -0.52770075596E+02  0.41012509404E+03  0.47210911242E+03  0.91615189040E+02 0.  0.
        -13    1    3    3    0    0  0.64359606046E+01 -0.57684980863E+02  0.20351838249E+03  0.21163343454E+03  0.00000000000E+00 0.  1.
         14    1    3    3    0    0 -0.55778783024E+02 -0.97846635830E+02  0.16629107953E+03  0.20084312264E+03  0.00000000000E+00 0. -1.
        -11    1    4    4    0    0  0.94069542484E+02 -0.31417883470E+02  0.10005303964E+03  0.14087857526E+03  0.00000000000E+00 0.  1.
         11    1    4    4    0    0  0.11451232999E+03 -0.21352192125E+02  0.31007205440E+03  0.33123053716E+03  0.00000000000E+00 0. -1.
         21    1    1    2  503  502 -0.30491927799E+02 -0.23991117726E+02 -0.66032044354E+01  0.39356495009E+02  0.00000000000E+00 0. -1.
          1    1    1    2  501    0 -0.12874712225E+03  0.23229281001E+03  0.74268750844E+03  0.78874616086E+03  0.00000000000E+00 0. -1.
<scales pt_clust_5="13000.00000" pt_clust_6="13000.00000" pt_clust_7="13000.00000" pt_clust_8="13000.00000" pt_clust_9="38.79860" pt_clust_10="13000.00000"></scales>
<clustering>
<clus scale="   38.799">  2  9  1 -1</clus>
<clus scale="   82.177">  5  6 -1 -1</clus>
<clus scale="   91.615">  7  8 -1 -1</clus>
<clus scale="  190.953">  1  5  2 -1</clus>
<clus scale="  212.720">  7 10 -1 -1</clus>
<clus scale="   38.799">  2  5  1 -1</clus>
</clustering>
</event>
<event>
10    4  0.2565852E-005  0.1674543E+03  0.7546771E-02  0.1211615E+00
          2   -1    0    0  503    0 -0.00000000000E+00  0.00000000000E+00  0.94885219017E+03  0.94885219017E+03  0.00000000000E+00 0. -1.
         21   -1    0    0  501  502  0.00000000000E+00 -0.00000000000E+00 -0.72086715073E+02  0.72086715073E+02  0.00000000000E+00 0.  1.
         24    2    1    2    0    0  0.25672508318E+02  0.14001478571E+02  0.52247132630E+03  0.52957533723E+03  0.81354974729E+02 0.  0.
         23    2    1    2    0    0  0.26770604189E+02  0.44917196091E+02  0.21602388739E+03  0.24092238301E+03  0.92968031907E+02 0.  0.
        -11    1    3    3    0    0 -0.11083108006E+02  0.34948320977E+02  0.13814013776E+03  0.14292276964E+03  0.00000000000E+00 0.  1.
         12    1    3    3    0    0  0.36755616324E+02 -0.20946842406E+02  0.38433118855E+03  0.38665256759E+03  0.00000000000E+00 0. -1.
        -13    1    4    4    0    0  0.35271884447E+00  0.70110188623E+02  0.13857827116E+03  0.15530454017E+03  0.00000000000E+00 0.  1.
         13    1    4    4    0    0  0.26417885344E+02 -0.25192992532E+02  0.77445616233E+02  0.85617842840E+02  0.00000000000E+00 0. -1.
         21    1    1    2  503  502 -0.27541169286E+02 -0.10013109714E+02 -0.48008775917E+02  0.56246074858E+02  0.00000000000E+00 0.  1.
          1    1    1    2  501    0 -0.24901943221E+02 -0.48905564948E+02  0.18627903732E+03  0.19419511014E+03  0.00000000000E+00 0. -1.
<scales pt_clust_5="13000.00000" pt_clust_6="13000.00000" pt_clust_7="13000.00000" pt_clust_8="13000.00000" pt_clust_9="29.30492" pt_clust_10="13000.00000"></scales>
<clustering>
<clus scale="   29.305">  2  9  1 -1</clus>
<clus scale="   81.355">  5  6 -1 -1</clus>
<clus scale="   84.849">  1  5  2 -1</clus>
<clus scale="   92.968">  7  8 -1 -1</clus>
<clus scale="   48.848">  7 10 -1 -1</clus>
<clus scale="   29.305">  2  5  1 -1</clus>
</clustering>
</event>
<event>
10    4  0.2565852E-005  0.3658610E+03  0.7546771E-02  0.1084105E+00
          2   -1    0    0  503    0 -0.00000000000E+00  0.00000000000E+00  0.70877377393E+03  0.70877377393E+03  0.00000000000E+00 0. -1.
         21   -1    0    0  501  502  0.00000000000E+00 -0.00000000000E+00 -0.13235905130E+03  0.13235905130E+03  0.00000000000E+00 0. -1.
         24    2    1    2    0    0  0.91117425748E+02 -0.12226072629E+03  0.67460310656E+02  0.18345531108E+03  0.76517234526E+02 0.  0.
         23    2    1    2    0    0  0.69357539886E+02  0.61323311456E+02  0.31863376312E+02  0.13425607624E+03  0.91860777209E+02 0.  0.
        -13    1    3    3    0    0  0.11565640663E+02 -0.62906361127E+02  0.93284750315E+00  0.63967527064E+02  0.00000000000E+00 0.  1.
         14    1    3    3    0    0  0.79551785086E+02 -0.59354365166E+02  0.66527463153E+02  0.11948778401E+03  0.00000000000E+00 0. -1.
        -13    1    4    4    0    0  0.21122100269E+02 -0.80494510258E+01  0.43443533123E+02  0.48972209995E+02  0.00000000000E+00 0.  1.
         13    1    4    4    0    0  0.48235439617E+02  0.69372762481E+02 -0.11580156810E+02  0.85283866241E+02  0.00000000000E+00 0. -1.
         21    1    1    2  503  502 -0.40050304452E+02 -0.25158168790E+02  0.40003452234E+02  0.61945431907E+02  0.00000000000E+00 0.  1.
          1    1    1    2  501    0 -0.12042466118E+03  0.86095583628E+02  0.43708758342E+03  0.46147600601E+03  0.00000000000E+00 0. -1.
<scales pt_clust_5="13000.00000" pt_clust_6="13000.00000" pt_clust_7="13000.00000" pt_clust_8="13000.00000" pt_clust_9="47.29652" pt_clust_10="13000.00000"></scales>
<clustering>
<clus scale="   47.297">  2  9  1 -1</clus>
<clus scale="   76.517">  5  6 -1 -1</clus>
<clus scale="   91.861">  7  8 -1 -1</clus>
<clus scale="  149.903">  7 10 -1 -1</clus>
<clus scale="  170.492">  1  5  2 -1</clus>
<clus scale="   47.297">  2  5  1 -1</clus>
</clustering>
</event>
<event>
10    4  0.2565852E-005  0.3768741E+03  0.7546771E-02  0.1085682E+00
         21   -1    0    0  501  502  0.00000000000E+00  0.00000000000E+00  0.12367416223E+03  0.12367416223E+03  0.00000000000E+00 0. -1.
          2   -1    0    0  503    0 -0.00000000000E+00 -0.00000000000E+00 -0.10481339662E+04  0.10481339662E+04  0.00000000000E+00 0. -1.
         24    2    1    2    0    0 -0.17375414649E+03  0.91796756669E+01 -0.27196146453E+03  0.33231208433E+03  0.78698877621E+02 0.  0.
         23    2    1    2    0    0 -0.82481092113E+02 -0.11340225753E+03 -0.15856367634E+03  0.23075058723E+03  0.91870514753E+02 0.  0.
        -11    1    3    3    0    0 -0.41692252167E+02  0.80937708665E+01 -0.18128173059E+02  0.46177740050E+02  0.00000000000E+00 0.  1.
         12    1    3    3    0    0 -0.13206189432E+03  0.10859048004E+01 -0.25383329147E+03  0.28613434428E+03  0.00000000000E+00 0. -1.
        -13    1    4    4    0    0 -0.27916248454E+02 -0.72170077964E+02 -0.26084084319E+02  0.81659148512E+02  0.00000000000E+00 0. -1.
         13    1    4    4    0    0 -0.54564843659E+02 -0.41232179570E+02 -0.13247959202E+03  0.14909143871E+03  0.00000000000E+00 0.  1.
         21    1    1    2  503  502  0.12552695299E+03  0.19656526899E+02 -0.46996403283E+02  0.13546976378E+03  0.00000000000E+00 0. -1.
          1    1    1    2  501    0  0.13070828560E+03  0.84566054968E+02 -0.44693825977E+03  0.47327569304E+03  0.00000000000E+00 0. -1.
<scales pt_clust_5="13000.00000" pt_clust_6="13000.00000" pt_clust_7="13000.00000" pt_clust_8="13000.00000" pt_clust_9="127.05666" pt_clust_10="13000.00000"></scales>
<clustering>
<clus scale="   78.699">  5  6 -1 -1</clus>
<clus scale="   91.871">  7  8 -1 -1</clus>
<clus scale="  127.057">  1  9  2 -1</clus>
<clus scale="  149.548">  2  5  1 -1</clus>
<clus scale="  115.784">  7 10 -1 -1</clus>
<clus scale="  127.057">  1  5  2 -1</clus>
</clustering>
</event>
<event>
10    4  0.2565852E-005  0.1747804E+03  0.7546771E-02  0.1192086E+00
         21   -1    0    0  501  502  0.00000000000E+00  0.00000000000E+00  0.24614373779E+03  0.24614373779E+03  0.00000000000E+00 0. -1.
          2   -1    0    0  503    0 -0.00000000000E+00 -0.00000000000E+00 -0.61162352751E+03  0.61162352751E+03  0.00000000000E+00 0. -1.
         24    2    1    2    0    0  0.68927223296E+02 -0.23372341225E+02 -0.30987246347E+03  0.32853249041E+03  0.81335264159E+02 0.  0.
         23    2    1    2    0    0 -0.79539777991E+02  0.11285914894E+02 -0.10094900284E+03  0.15903632461E+03  0.92994103101E+02 0.  0.
        -13    1    3    3    0    0  0.43462566804E+01 -0.38826214717E+02 -0.15834222502E+03  0.16309084929E+03  0.00000000000E+00 0.  1.
         14    1    3    3    0    0  0.64580966615E+02  0.15453873492E+02 -0.15153023845E+03  0.16544164113E+03  0.00000000000E+00 0. -1.
        -11    1    4    4    0    0  0.28231290398E+01  0.34557518425E+02 -0.44900823088E+02  0.56729851501E+02  0.00000000000E+00 0.  1.
         11    1    4    4    0    0 -0.82362907031E+02 -0.23271603532E+02 -0.56048179754E+02  0.10230647311E+03  0.00000000000E+00 0. -1.
         21    1    1    2  503  502  0.32221654886E+02  0.53417999278E+01  0.20568651002E+03  0.20826355964E+03  0.00000000000E+00 0. -1.
          1    1    1    2  501    0 -0.21609100191E+02  0.67446264040E+01 -0.16034483344E+03  0.16193489064E+03  0.00000000000E+00 0. -1.
<scales pt_clust_5="13000.00000" pt_clust_6="13000.00000" pt_clust_7="13000.00000" pt_clust_8="13000.00000" pt_clust_9="32.66144" pt_clust_10="13000.00000"></scales>
<clustering>
<clus scale="   32.661">  1  9  2 -1</clus>
<clus scale="   81.335">  5  6 -1 -1</clus>
<clus scale="   92.994">  7  8 -1 -1</clus>
<clus scale="   22.047">  7 10 -1 -1</clus>
<clus scale="  113.894">  2  5  1 -1</clus>
<clus scale="   32.661">  1  5  2 -1</clus>
</clustering>
</event>
<event>
10    4  0.2565852E-005  0.7207704E+03  0.7546771E-02  0.9784231E-01
          4   -1    0    0  503    0 -0.00000000000E+00  0.00000000000E+00  0.27936832649E+03  0.27936832649E+03  0.00000000000E+00 0. -1.
         21   -1    0    0  501  502  0.00000000000E+00 -0.00000000000E+00 -0.25092590930E+04  0.25092590930E+04  0.00000000000E+00 0. -1.
         24    2    1    2    0    0  0.48675267327E+03 -0.12829100891E+03 -0.11156117658E+03  0.52187651095E+03  0.80761678142E+02 0.  0.
         23    2    1    2    0    0 -0.89819497836E+02 -0.23302616035E+02 -0.65661570398E+02  0.14718816790E+03  0.93500592713E+02 0.  0.
        -11    1    3    3    0    0  0.23503780541E+03 -0.47393576091E+02 -0.14422986953E+02  0.24020188088E+03  0.00000000000E+00 0.  1.
         12    1    3    3    0    0  0.25171486786E+03 -0.80897432815E+02 -0.97138189630E+02  0.28167463007E+03  0.00000000000E+00 0. -1.
        -11    1    4    4    0    0 -0.59705369124E+02 -0.33487939982E+02 -0.85643173261E+02  0.10963998519E+03  0.00000000000E+00 0. -1.
         11    1    4    4    0    0 -0.30114128711E+02  0.10185323947E+02  0.19981602862E+02  0.37548182711E+02  0.00000000000E+00 0.  1.
         21    1    1    2  503  502  0.41017020425E+02  0.51162715466E+02 -0.13669753944E+03  0.15161212586E+03  0.00000000000E+00 0. -1.
          3    1    1    2  501    0 -0.43795019586E+03  0.10043090948E+03 -0.19159704801E+04  0.19679506148E+04  0.00000000000E+00 0. -1.
<scales pt_clust_5="13000.00000" pt_clust_6="13000.00000" pt_clust_7="13000.00000" pt_clust_8="13000.00000" pt_clust_9="65.57453" pt_clust_10="13000.00000"></scales>
<clustering>
<clus scale="   65.575">  2  9  1 -1</clus>
<clus scale="   80.762">  5  6 -1 -1</clus>
<clus scale="   93.501">  7  8 -1 -1</clus>
<clus scale="  428.631">  7 10 -1 -1</clus>
<clus scale="  513.396">  1  5  2 -1</clus>
<clus scale="   65.575">  2  5  1 -1</clus>
</clustering>
</event>
<event>
10    4  0.2565852E-005  0.1573613E+03  0.7546771E-02  0.1219425E+00
          2   -1    0    0  503    0 -0.00000000000E+00  0.00000000000E+00  0.41296528148E+03  0.41296528148E+03  0.00000000000E+00 0. -1.
         21   -1    0    0  501  502  0.00000000000E+00 -0.00000000000E+00 -0.12640632362E+03  0.12640632362E+03  0.00000000000E+00 0. -1.
         24    2    1    2    0    0 -0.23153358169E+02 -0.12206272408E+02  0.31250469390E+03  0.32414409566E+03  0.82006950695E+02 0.  0.
         23    2    1    2    0    0  0.13772292617E+02  0.53882083856E+02  0.37648653602E+00  0.10784167159E+03  0.92394422907E+02 0.  0.
        -13    1    3    3    0    0  0.14348961417E+02  0.25523819433E+02  0.70077619911E+02  0.75948870068E+02  0.00000000000E+00 0.  1.
         14    1    3    3    0    0 -0.37502319586E+02 -0.37730091841E+02  0.24242707399E+03  0.24819522559E+03  0.00000000000E+00 0. -1.
        -13    1    4    4    0    0  0.18789078630E+02 -0.21792080955E+02 -0.11670846284E+02  0.31050489869E+02  0.00000000000E+00 0.  1.
         13    1    4    4    0    0 -0.50167860133E+01  0.75674164812E+02  0.12047332820E+02  0.76791181720E+02  0.00000000000E+00 0. -1.
         21    1    1    2  503  502 -0.32034949088E+02 -0.19158235359E+02  0.19093498281E+02  0.41926574172E+02  0.00000000000E+00 0. -1.
          1    1    1    2  501    0  0.41416014640E+02 -0.22517576089E+02 -0.45415720848E+02  0.65459263682E+02  0.00000000000E+00 0. -1.
<scales pt_clust_5="13000.00000" pt_clust_6="13000.00000" pt_clust_7="13000.00000" pt_clust_8="13000.00000" pt_clust_9="37.32661" pt_clust_10="13000.00000"></scales>
<clustering>
<clus scale="   37.327">  2  9  1 -1</clus>
<clus scale="   82.007">  5  6 -1 -1</clus>
<clus scale="   86.675">  1  5  2 -1</clus>
<clus scale="   92.394">  7  8 -1 -1</clus>
<clus scale="   40.234">  7 10 -1 -1</clus>
<clus scale="   37.327">  2  5  1 -1</clus>
</clustering>
</event>
<event>
10    4  0.2565852E-005  0.1392036E+03  0.7546771E-02  0.1235198E+00
         21   -1    0    0  503  502  0.00000000000E+00  0.00000000000E+00  0.30296106478E+03  0.30296106478E+03  0.00000000000E+00 0. -1.
          2   -1    0    0  502    0 -0.00000000000E+00 -0.00000000000E+00 -0.17962346536E+03  0.17962346536E+03  0.00000000000E+00 0. -1.
         24    2    1    2    0    0 -0.12784879606E+02 -0.22306115949E+02  0.33105545394E+02  0.97798515956E+02  0.88360379312E+02 0.  0.
         23    2    1    2    0    0 -0.13249483497E+02 -0.55967193370E+01 -0.11176787769E+03  0.14632867305E+03  0.93344255270E+02 0.  0.
        -13    1    3    3    0    0  0.19232783426E+02 -0.36228638331E+02  0.45024258268E+02  0.60906469494E+02  0.00000000000E+00 0.  1.
         14    1    3    3    0    0 -0.32017663033E+02  0.13922522383E+02 -0.11918712874E+02  0.36892046462E+02  0.00000000000E+00 0. -1.
        -13    1    4    4    0    0 -0.49378607379E+02 -0.91830447451E+01 -0.92426799454E+02  0.10519167474E+03  0.00000000000E+00 0. -1.
         13    1    4    4    0    0  0.36129123882E+02  0.35863254080E+01 -0.19341078241E+02  0.41136998309E+02  0.00000000000E+00 0.  1.
         21    1    1    2  503  501 -0.70904172312E+01  0.24660288409E+02  0.20352807189E+03  0.20513917200E+03  0.00000000000E+00 0. -1.
          1    1    1    2  501    0  0.33124780335E+02  0.32425468762E+01 -0.15281401664E+01  0.33318169140E+02  0.00000000000E+00 0. -1.
<scales pt_clust_5="13000.00000" pt_clust_6="13000.00000" pt_clust_7="13000.00000" pt_clust_8="13000.00000" pt_clust_9="25.65938" pt_clust_10="13000.00000"></scales>
<clustering>
<clus scale="   25.659">  1  9  2 -1</clus>
<clus scale="   88.360">  5  6 -1 -1</clus>
<clus scale="   90.271">  2  5  1 -1</clus>
<clus scale="   93.344">  7  8 -1 -1</clus>
<clus scale="   30.628">  7 10 -1 -1</clus>
<clus scale="   25.659">  1  5  2 -1</clus>
</clustering>
</event>
<event>
10    4  0.2565852E-005  0.4460252E+03  0.7546771E-02  0.1037023E+00
          2   -1    0    0  503    0 -0.00000000000E+00  0.00000000000E+00  0.15052442016E+04  0.15052442016E+04  0.00000000000E+00 0. -1.
         21   -1    0    0  501  502  0.00000000000E+00 -0.00000000000E+00 -0.12116969856E+03  0.12116969856E+03  0.00000000000E+00 0.  1.
         24    2    1    2    0    0  0.32184971433E+03 -0.90483678237E+02  0.43713363547E+03  0.55616848923E+03  0.80393025279E+02 0.  0.
         23    2    1    2    0    0 -0.37375037087E+03  0.10702900535E+03  0.78835781582E+03  0.88363299140E+03  0.90303211520E+02 0.  0.
        -11    1    3    3    0    0  0.28656892150E+03 -0.10471222769E+03  0.39925121327E+03  0.50248176952E+03  0.00000000000E+00 0.  1.
         12    1    3    3    0    0  0.35280792828E+02  0.14228549451E+02  0.37882422193E+02  0.53686719711E+02  0.00000000000E+00 0. -1.
        -11    1    4    4    0    0 -0.73809872512E+02 -0.39267818374E+01  0.97550482309E+02  0.12239041423E+03  0.00000000000E+00 0.  1.
         11    1    4    4    0    0 -0.29994049836E+03  0.11095578719E+03  0.69080733351E+03  0.76124257717E+03  0.00000000000E+00 0. -1.
         21    1    1    2  503  502  0.19361685114E+02  0.18996200544E+02  0.76626507366E+01  0.28185930921E+02  0.00000000000E+00 0.  1.
          1    1    1    2  501    0  0.32538971426E+02 -0.35541527662E+02  0.15092040106E+03  0.15842648865E+03  0.00000000000E+00 0. -1.
<scales pt_clust_5="13000.00000" pt_clust_6="13000.00000" pt_clust_7="13000.00000" pt_clust_8="13000.00000" pt_clust_9="27.12435" pt_clust_10="13000.00000"></scales>
<clustering>
<clus scale="   27.124">  2  9  1 -1</clus>
<clus scale="   80.393">  5  6 -1 -1</clus>
<clus scale="   90.303">  7  8 -1 -1</clus>
<clus scale="   48.164">  7 10 -1 -1</clus>
<clus scale="  351.131">  1  5  2 -1</clus>
<clus scale="   27.124">  2  5  1 -1</clus>
</clustering>
</event>
<event>
10    4  0.2565852E-005  0.5387987E+03  0.7546771E-02  0.1012818E+00
         21   -1    0    0  501  502  0.00000000000E+00  0.00000000000E+00  0.17874721097E+03  0.17874721097E+03  0.00000000000E+00 0. -1.
          2   -1    0    0  503    0 -0.00000000000E+00 -0.00000000000E+00 -0.14236869521E+04  0.14236869521E+04  0.00000000000E+00 0. -1.
         24    2    1    2    0    0  0.39442281932E+03  0.10968128079E+02 -0.44417216390E+03  0.59950987165E+03  0.80209193877E+02 0.  0.
         23    2    1    2    0    0  0.26159701410E+02  0.47930483336E+02 -0.12605888206E+03  0.16537612694E+03  0.92069323899E+02 0.  0.
        -11    1    3    3    0    0  0.13546955486E+03  0.30420839416E+02 -0.19691243036E+03  0.24093968746E+03  0.00000000000E+00 0.  1.
         12    1    3    3    0    0  0.25895326447E+03 -0.19452711337E+02 -0.24725973354E+03  0.35857018418E+03  0.00000000000E+00 0. -1.
        -11    1    4    4    0    0  0.33618706009E+02  0.25032053648E+02 -0.53104379615E+01  0.42249518991E+02  0.00000000000E+00 0.  1.
         11    1    4    4    0    0 -0.74590045992E+01  0.22898429687E+02 -0.12074844410E+03  0.12312660794E+03  0.00000000000E+00 0. -1.
         21    1    1    2  503  502  0.19447755643E+02 -0.51140092142E+02 -0.56107957731E+02  0.78368534148E+02  0.00000000000E+00 0.  1.
          1    1    1    2  501    0 -0.44003027637E+03 -0.77585192727E+01 -0.61860073741E+03  0.75917963030E+03  0.00000000000E+00 0. -1.
<scales pt_clust_5="13000.00000" pt_clust_6="13000.00000" pt_clust_7="13000.00000" pt_clust_8="13000.00000" pt_clust_9="54.71311" pt_clust_10="13000.00000"></scales>
<clustering>
<clus scale="   54.713">  1  9  2 -1</clus>
<clus scale="   80.209">  5  6 -1 -1</clus>
<clus scale="   92.069">  7  8 -1 -1</clus>
<clus scale="  411.528">  2  5  1 -1</clus>
<clus scale="  111.864">  7 10 -1 -1</clus>
<clus scale="   54.713">  1  5  2 -1</clus>
</clustering>
</event>
<event>
10    4  0.2565852E-005  0.1380605E+03  0.7546771E-02  0.1236416E+00
          2   -1    0    0  502    0 -0.00000000000E+00  0.00000000000E+00  0.61148333112E+03  0.61148333112E+03  0.00000000000E+00 0. -1.
         21   -1    0    0  503  502  0.00000000000E+00 -0.00000000000E+00 -0.42718941390E+02  0.42718941390E+02  0.00000000000E+00 0. -1.
         24    2    1    2    0    0 -0.50226751475E+02 -0.15506076280E+02  0.22912859789E+03  0.24883791316E+03  0.81591835905E+02 0.  0.
         23    2    1    2    0    0  0.16428077818E+02 -0.46347130805E+02  0.25073168657E+03  0.27065693784E+03  0.89279678967E+02 0.  0.
        -11    1    3    3    0    0 -0.30623155836E+02  0.31676587478E+02  0.81948336090E+02  0.93041462024E+02  0.00000000000E+00 0.  1.
         12    1    3    3    0    0 -0.19603595638E+02 -0.47182663758E+02  0.14718026180E+03  0.15579645113E+03  0.00000000000E+00 0. -1.
        -11    1    4    4    0    0  0.44635861162E+02 -0.46650355203E+02  0.21842495249E+03  0.22776759123E+03  0.00000000000E+00 0.  1.
         11    1    4    4    0    0 -0.28207783344E+02  0.30322439727E+00  0.32306734082E+02  0.42889346617E+02  0.00000000000E+00 0. -1.
         21    1    1    2  503  501  0.27219618356E+02  0.29265390489E+02  0.18888478008E+00  0.39967566618E+02  0.00000000000E+00 0. -1.
          1    1    1    2  501    0  0.65790553005E+01  0.32587816597E+02  0.88715220482E+02  0.94739854889E+02  0.00000000000E+00 0. -1.
<scales pt_clust_5="13000.00000" pt_clust_6="13000.00000" pt_clust_7="13000.00000" pt_clust_8="13000.00000" pt_clust_9="39.96712" pt_clust_10="13000.00000"></scales>
<clustering>
<clus scale="   39.967">  2  9  1 -1</clus>
<clus scale="   81.592">  5  6 -1 -1</clus>
<clus scale="   89.280">  7  8 -1 -1</clus>
<clus scale="   37.842">  7 10 -1 -1</clus>
<clus scale="   90.255">  1  5  2 -1</clus>
<clus scale="   39.967">  2  5  1 -1</clus>
</clustering>
</event>
<event>
10    4  0.2565852E-005  0.9184827E+03  0.7546771E-02  0.9917074E-01
          2   -1    0    0  502    0 -0.00000000000E+00  0.00000000000E+00  0.67577422149E+03  0.67577422149E+03  0.00000000000E+00 0. -1.
         21   -1    0    0  503  502  0.00000000000E+00 -0.00000000000E+00 -0.15048899303E+04  0.15048899303E+04  0.00000000000E+00 0. -1.
         24    2    1    2    0    0 -0.12910755500E+03  0.55994606583E+02  0.10012314253E+03  0.18968869032E+03  0.78441053294E+02 0.  0.
         23    2    1    2    0    0  0.26886006261E+03  0.14952444196E+03 -0.29686474765E+03  0.43659409181E+03  0.88557498821E+02 0.  0.
        -11    1    3    3    0    0 -0.11281177830E+03  0.43455904304E+02  0.11295636023E+03  0.16545105699E+03  0.00000000000E+00 0.  1.
         12    1    3    3    0    0 -0.16295776698E+02  0.12538702279E+02 -0.12833217700E+02  0.24237633333E+02  0.00000000000E+00 0. -1.
        -11    1    4    4    0    0  0.73651243774E+02  0.12144585295E+01 -0.85932986611E+02  0.11318329739E+03  0.00000000000E+00 0.  1.
         11    1    4    4    0    0  0.19520881883E+03  0.14830998343E+03 -0.21093176103E+03  0.32341079442E+03  0.00000000000E+00 0. -1.
         21    1    1    2  503  501  0.79905935130E+02 -0.16381981071E+03 -0.10580103278E+04  0.10735957072E+04  0.00000000000E+00 0. -1.
          1    1    1    2  501    0 -0.21965844274E+03 -0.41699237834E+02  0.42563622412E+03  0.48078566241E+03  0.00000000000E+00 0. -1.
<scales pt_clust_5="13000.00000" pt_clust_6="13000.00000" pt_clust_7="13000.00000" pt_clust_8="13000.00000" pt_clust_9="180.70412" pt_clust_10="13000.00000"></scales>
<clustering>
<clus scale="   78.441">  5  6 -1 -1</clus>
<clus scale="   88.557">  7  8 -1 -1</clus>
<clus scale="  161.112">  1  5  2 -1</clus>
<clus scale="  180.704">  2  9  1 -1</clus>
<clus scale="  313.636">  7 10 -1 -1</clus>
<clus scale="  180.704">  2  5  1 -1</clus>
</clustering>
</event>
<event>
10    4  0.2565852E-005  0.4703871E+03  0.7546771E-02  0.1078014E+00
          2   -1    0    0  503    0 -0.00000000000E+00  0.00000000000E+00  0.78406738656E+03  0.78406738656E+03  0.00000000000E+00 0. -1.
         21   -1    0    0  501  502  0.00000000000E+00 -0.00000000000E+00 -0.22490276772E+03  0.22490276772E+03  0.00000000000E+00 0.  1.
         24    2    1    2    0    0  0.46249289785E+02 -0.20168528903E+02  0.26577221075E+03  0.28167227655E+03  0.78476983896E+02 0.  0.
         23    2    1    2    0    0 -0.11547166921E+03  0.17309883924E+03  0.26994865372E+02  0.22887688715E+03  0.91427524178E+02 0.  0.
        -13    1    3    3    0    0  0.10125050171E+02 -0.45463141692E+02  0.10318063184E+03  0.11320625725E+03  0.00000000000E+00 0.  1.
         14    1    3    3    0    0  0.36124239614E+02  0.25294612788E+02  0.16259157891E+03  0.16846601929E+03  0.00000000000E+00 0. -1.
        -11    1    4    4    0    0 -0.30761572807E+02  0.10063683304E+03 -0.21338953645E+02  0.10737503187E+03  0.00000000000E+00 0.  1.
         11    1    4    4    0    0 -0.84710096407E+02  0.72462006198E+02  0.48333819017E+02  0.12150185528E+03  0.00000000000E+00 0. -1.
         21    1    1    2  503  502  0.19559247157E+02 -0.36136620615E+02 -0.10136425006E+03  0.10937609743E+03  0.00000000000E+00 0.  1.
          1    1    1    2  501    0  0.49663132273E+02 -0.11679368972E+03  0.36776179278E+03  0.38904489316E+03  0.00000000000E+00 0. -1.
<scales pt_clust_5="13000.00000" pt_clust_6="13000.00000" pt_clust_7="13000.00000" pt_clust_8="13000.00000" pt_clust_9="41.09038" pt_clust_10="13000.00000"></scales>
<clustering>
<clus scale="   41.090">  2  9  1 -1</clus>
<clus scale="   78.477">  5  6 -1 -1</clus>
<clus scale="   91.428">  7  8 -1 -1</clus>
<clus scale="   94.494">  1  5  2 -1</clus>
<clus scale="  164.451">  7 10 -1 -1</clus>
<clus scale="   41.090">  2  5  1 -1</clus>
</clustering>
</event>
<event>
10    4  0.2565852E-005  0.2915883E+03  0.7546771E-02  0.1094179E+00
         21   -1    0    0  503  502  0.00000000000E+00  0.00000000000E+00  0.21596421238E+03  0.21596421238E+03  0.00000000000E+00 0. -1.
          2   -1    0    0  502    0 -0.00000000000E+00 -0.00000000000E+00 -0.48889612115E+03  0.48889612115E+03  0.00000000000E+00 0. -1.
         24    2    1    2    0    0  0.15566925243E+03  0.17173692895E+03 -0.17645611969E+03  0.30194494608E+03  0.79419766883E+02 0.  0.
         23    2    1    2    0    0 -0.88172414463E+02 -0.59378061679E+02 -0.41758209897E+02  0.14899824240E+03  0.95690121039E+02 0.  0.
        -11    1    3    3    0    0  0.34248118761E+02  0.15065249277E+00 -0.17867958980E+02  0.38629267311E+02  0.00000000000E+00 0.  1.
         12    1    3    3    0    0  0.12142113367E+03  0.17158627646E+03 -0.15858816071E+03  0.26331567877E+03  0.00000000000E+00 0. -1.
        -13    1    4    4    0    0  0.14171976532E+02 -0.34761997932E+02 -0.14679609485E+02  0.40307968860E+02  0.00000000000E+00 0. -1.
         13    1    4    4    0    0 -0.10234439099E+03 -0.24616063748E+02 -0.27078600412E+02  0.10869027354E+03  0.00000000000E+00 0.  1.
         21    1    1    2  503  501  0.35895937078E+02  0.14518063280E+02  0.47245060871E+02  0.61085090135E+02  0.00000000000E+00 0. -1.
          1    1    1    2  501    0 -0.10339277504E+03 -0.12687693055E+03 -0.10196264005E+03  0.19283205491E+03  0.00000000000E+00 0. -1.
<scales pt_clust_5="13000.00000" pt_clust_6="13000.00000" pt_clust_7="13000.00000" pt_clust_8="13000.00000" pt_clust_9="38.72070" pt_clust_10="13000.00000"></scales>
<clustering>
<clus scale="   38.721">  1  9  2 -1</clus>
<clus scale="   79.420">  5  6 -1 -1</clus>
<clus scale="   95.690">  7  8 -1 -1</clus>
<clus scale="  154.231">  7 10 -1 -1</clus>
<clus scale="  257.928">  2  5  1 -1</clus>
<clus scale="   38.721">  1  5  2 -1</clus>
</clustering>
</event>
<event>
10    4  0.2565852E-005  0.5745392E+03  0.7546771E-02  0.1034384E+00
          2   -1    0    0  503    0 -0.00000000000E+00  0.00000000000E+00  0.91500952157E+03  0.91500952157E+03  0.00000000000E+00 0. -1.
         21   -1    0    0  501  502  0.00000000000E+00 -0.00000000000E+00 -0.25541234840E+03  0.25541234840E+03  0.00000000000E+00 0. -1.
         24    2    1    2    0    0 -0.15706892037E+03 -0.10356863339E+02  0.34294133754E+03  0.38724654269E+03  0.87024211967E+02 0.  0.
         23    2    1    2    0    0 -0.11547604253E+03  0.12833759168E+03  0.36457461562E+03  0.41310434603E+03  0.89080281298E+02 0.  0.
        -13    1    3    3    0    0 -0.66466608267E+02 -0.97081418000E+01  0.24404652381E+03  0.25312203344E+03  0.00000000000E+00 0.  1.
         14    1    3    3    0    0 -0.90602312105E+02 -0.64872153920E+00  0.98894813735E+02  0.13412450925E+03  0.00000000000E+00 0. -1.
        -13    1    4    4    0    0 -0.27953322711E+02  0.88797442848E+02  0.13241990426E+03  0.16186848103E+03  0.00000000000E+00 0.  1.
         13    1    4    4    0    0 -0.87522719822E+02  0.39540148830E+02  0.23215471136E+03  0.25123586500E+03  0.00000000000E+00 0. -1.
         21    1    1    2  503  502  0.20374033892E+02  0.65147985694E+01 -0.83869456945E+02  0.86554200740E+02  0.00000000000E+00 0.  1.
          1    1    1    2  501    0  0.25217092901E+03 -0.12449552691E+03  0.35950676950E+02  0.28351678051E+03  0.00000000000E+00 0. -1.
<scales pt_clust_5="13000.00000" pt_clust_6="13000.00000" pt_clust_7="13000.00000" pt_clust_8="13000.00000" pt_clust_9="21.39027" pt_clust_10="13000.00000"></scales>
<clustering>
<clus scale="   21.390">  2  9  1 -1</clus>
<clus scale="   87.024">  5  6 -1 -1</clus>
<clus scale="   89.080">  7  8 -1 -1</clus>
<clus scale="  177.506">  1  5  2 -1</clus>
<clus scale="  250.972">  7 10 -1 -1</clus>
<clus scale="   21.390">  2  5  1 -1</clus>
</clustering>
</event>
<event>
10    4  0.2565852E-005  0.1618630E+03  0.7546771E-02  0.1218244E+00
         -1   -1    0    0    0  501 -0.00000000000E+00  0.00000000000E+00  0.16633934089E+03  0.16633934089E+03  0.00000000000E+00 0.  1.
         21   -1    0    0  503  502  0.00000000000E+00 -0.00000000000E+00 -0.20201015643E+03  0.20201015643E+03  0.00000000000E+00 0.  1.
         24    2    1    2    0    0 -0.25954529523E+02  0.83987058637E+01 -0.59520960216E+02  0.10329176897E+03  0.79889104198E+02 0.  0.
         23    2    1    2    0    0 -0.95787128451E+00 -0.15012722998E+02  0.10097966031E+03  0.13329115198E+03  0.85693290468E+02 0.  0.
        -13    1    3    3    0    0 -0.58080566321E+01 -0.25368889684E+02 -0.58420829696E+02  0.63955511319E+02  0.00000000000E+00 0.  1.
         14    1    3    3    0    0 -0.20146472891E+02  0.33767595548E+02 -0.11001305197E+01  0.39336257654E+02  0.00000000000E+00 0. -1.
        -13    1    4    4    0    0  0.31587752959E+02 -0.58789854845E+00  0.90987354111E+02  0.96316303759E+02  0.00000000000E+00 0.  1.
         13    1    4    4    0    0 -0.32545624244E+02 -0.14424824449E+02  0.99923061961E+01  0.36974848221E+02  0.00000000000E+00 0. -1.
         21    1    1    2  503  501  0.36595547476E+02 -0.40354526269E+02 -0.59501204689E+02  0.80672890397E+02  0.00000000000E+00 0.  1.
         -2    1    1    2    0  502 -0.96831466686E+01  0.46968543403E+02 -0.17628310947E+02  0.51093685967E+02  0.00000000000E+00 0.  1.
<scales pt_clust_5="13000.00000" pt_clust_6="13000.00000" pt_clust_7="13000.00000" pt_clust_8="13000.00000" pt_clust_9="54.47680" pt_clust_10="13000.00000"></scales>
<clustering>
<clus scale="   54.477">  2  9  1 -1</clus>
<clus scale="   79.889">  5  6 -1 -1</clus>
<clus scale="   81.646">  1  5  2 -1</clus>
<clus scale="   85.693">  7  8 -1 -1</clus>
<clus scale="   34.805">  7 10 -1 -1</clus>
<clus scale="   54.477">  2  5  1 -1</clus>
</clustering>
</event>
<event>
10    4  0.2565852E-005  0.4099660E+03  0.7546771E-02  0.1099385E+00
          2   -1    0    0  502    0 -0.00000000000E+00  0.00000000000E+00  0.10109650772E+04  0.10109650772E+04  0.00000000000E+00 0. -1.
         21   -1    0    0  503  502  0.00000000000E+00 -0.00000000000E+00 -0.67881641110E+02  0.67881641110E+02  0.00000000000E+00 0. -1.
         24    2    1    2    0    0  0.14816696401E+02  0.25463202618E+02  0.24709997235E+03  0.26016267087E+03  0.75883527849E+02 0.  0.
         23    2    1    2    0    0 -0.59414091831E+02  0.14895028013E+03  0.16980125329E+03  0.25197048206E+03  0.94553889121E+02 0.  0.
        -11    1    3    3    0    0  0.14819409511E+02 -0.17302728528E+02  0.24353871795E+02  0.33348319060E+02  0.00000000000E+00 0.  1.
         12    1    3    3    0    0 -0.27131102742E-02  0.42765931146E+02  0.22274610055E+03  0.22681435180E+03  0.00000000000E+00 0. -1.
        -11    1    4    4    0    0 -0.14506793295E+02  0.12373860076E+03  0.15403190807E+03  0.19810986112E+03  0.00000000000E+00 0. -1.
         11    1    4    4    0    0 -0.44907298536E+02  0.25211679375E+02  0.15769345220E+02  0.53860620934E+02  0.00000000000E+00 0.  1.
         21    1    1    2  503  501 -0.20926188732E+02 -0.90733742619E+00  0.26873931758E+02  0.34072523302E+02  0.00000000000E+00 0. -1.
          1    1    1    2  501    0  0.65523584162E+02 -0.17350614532E+03  0.49930827873E+03  0.53264104212E+03  0.00000000000E+00 0. -1.
<scales pt_clust_5="13000.00000" pt_clust_6="13000.00000" pt_clust_7="13000.00000" pt_clust_8="13000.00000" pt_clust_9="20.94585" pt_clust_10="13000.00000"></scales>
<clustering>
<clus scale="   20.946">  2  9  1 -1</clus>
<clus scale="   75.884">  5  6 -1 -1</clus>
<clus scale="   81.013">  1  5  2 -1</clus>
<clus scale="   94.554">  7  8 -1 -1</clus>
<clus scale="  170.919">  7 10 -1 -1</clus>
<clus scale="   20.946">  2  5  1 -1</clus>
</clustering>
</event>
<event>
10    4  0.2565852E-005  0.3210972E+03  0.7546771E-02  0.1103028E+00
         21   -1    0    0  503  502  0.00000000000E+00  0.00000000000E+00  0.49159100172E+02  0.49159100172E+02  0.00000000000E+00 0. -1.
          2   -1    0    0  502    0 -0.00000000000E+00 -0.00000000000E+00 -0.30292859378E+04  0.30292859378E+04  0.00000000000E+00 0. -1.
         24    2    1    2    0    0 -0.13169870012E+03 -0.14625601188E+01 -0.17075912166E+04  0.17144708242E+04  0.78713131141E+02 0.  0.
         23    2    1    2    0    0  0.31102706960E+02 -0.13061679135E+03 -0.82385927865E+03  0.84020670205E+03  0.95786567863E+02 0.  0.
        -13    1    3    3    0    0 -0.98000166767E+01  0.18634081241E+02 -0.10295549961E+03  0.10508617517E+03  0.00000000000E+00 0.  1.
         14    1    3    3    0    0 -0.12189868344E+03 -0.20096641360E+02 -0.16046357170E+04  0.16093846490E+04  0.00000000000E+00 0. -1.
        -11    1    4    4    0    0 -0.27912689611E+02 -0.82620738546E+02 -0.38021064900E+03  0.39008389135E+03  0.00000000000E+00 0. -1.
         11    1    4    4    0    0  0.59015396571E+02 -0.47996052804E+02 -0.44364862965E+03  0.45012281070E+03  0.00000000000E+00 0.  1.
         21    1    1    2  503  501  0.16042692152E+03  0.50391311892E+02 -0.26001466212E+03  0.30965094216E+03  0.00000000000E+00 0. -1.
          1    1    1    2  501    0 -0.59830928369E+02  0.81688039578E+02 -0.18866168017E+03  0.21411656957E+03  0.00000000000E+00 0. -1.
<scales pt_clust_5="13000.00000" pt_clust_6="13000.00000" pt_clust_7="13000.00000" pt_clust_8="13000.00000" pt_clust_9="141.15201" pt_clust_10="13000.00000"></scales>
<clustering>
<clus scale="   78.713">  5  6 -1 -1</clus>
<clus scale="   95.787">  7  8 -1 -1</clus>
<clus scale="  101.256">  7 10 -1 -1</clus>
<clus scale="  153.435">  2  5  1 -1</clus>
<clus scale="  141.152">  1  9  2 -1</clus>
<clus scale="  141.152">  1  5  2 -1</clus>
</clustering>
</event>
<event>
10    4  0.2565852E-005  0.2641069E+03  0.7546771E-02  0.1132853E+00
         -3   -1    0    0    0  501 -0.00000000000E+00  0.00000000000E+00  0.81535273355E+03  0.81535273355E+03  0.00000000000E+00 0.  1.
         21   -1    0    0  501  502  0.00000000000E+00 -0.00000000000E+00 -0.95846561619E+02  0.95846561619E+02  0.00000000000E+00 0. -1.
         24    2    1    2    0    0  0.13374015178E+02  0.95347132181E+02  0.34547146474E+03  0.36748550187E+03  0.80156853966E+02 0.  0.
         23    2    1    2    0    0 -0.41534431476E+02 -0.19364575379E+02  0.34731938738E+03  0.36227162225E+03  0.92248987325E+02 0.  0.
        -11    1    3    3    0    0  0.10501687055E+02  0.65490279446E+02  0.32369214764E+03  0.33041771832E+03  0.00000000000E+00 0.  1.
         12    1    3    3    0    0  0.28723281232E+01  0.29856852735E+02  0.21779317092E+02  0.37067783547E+02  0.00000000000E+00 0. -1.
        -11    1    4    4    0    0  0.26326048928E+02  0.89525138125E+01  0.68739224490E+02  0.74150450701E+02  0.00000000000E+00 0.  1.
         11    1    4    4    0    0 -0.67860480404E+02 -0.28317089191E+02  0.27858016289E+03  0.28812117155E+03  0.00000000000E+00 0. -1.
         21    1    1    2  503  502 -0.10118284601E+02  0.33076396526E+02 -0.36014743145E+02  0.49934851699E+02  0.00000000000E+00 0. -1.
         -4    1    1    2    0  503  0.38278700899E+02 -0.10905895333E+03  0.62730062959E+02  0.13150731935E+03  0.00000000000E+00 0.  1.
<scales pt_clust_5="13000.00000" pt_clust_6="13000.00000" pt_clust_7="13000.00000" pt_clust_8="13000.00000" pt_clust_9="34.58942" pt_clust_10="13000.00000"></scales>
<clustering>
<clus scale="   34.589">  2  9  1 -1</clus>
<clus scale="   80.157">  5  6 -1 -1</clus>
<clus scale="   92.249">  7  8 -1 -1</clus>
<clus scale="   93.107">  7 10 -1 -1</clus>
<clus scale="  130.398">  1  5  2 -1</clus>
<clus scale="   34.589">  2  5  1 -1</clus>
</clustering>
</event>
<event>
10    4  0.2565852E-005  0.5236173E+03  0.7546771E-02  0.1061884E+00
          2   -1    0    0  502    0 -0.00000000000E+00  0.00000000000E+00  0.17980411580E+04  0.17980411580E+04  0.00000000000E+00 0. -1.
         21   -1    0    0  503  502  0.00000000000E+00 -0.00000000000E+00 -0.10425141763E+03  0.10425141763E+03  0.00000000000E+00 0. -1.
         24    2    1    2    0    0  0.53882309794E+02 -0.35996613022E+02  0.15164552525E+03  0.18540986096E+03  0.84743092685E+02 0.  0.
         23    2    1    2    0    0  0.92953039654E+02 -0.40688848951E+02  0.77523833619E+02  0.15659671229E+03  0.90646210686E+02 0.  0.
        -11    1    3    3    0    0  0.47542336160E+01  0.25763246129E+02  0.25151322008E+02  0.36317166562E+02  0.00000000000E+00 0.  1.
         12    1    3    3    0    0  0.49128076178E+02 -0.61759859151E+02  0.12649420324E+03  0.14909269440E+03  0.00000000000E+00 0. -1.
        -11    1    4    4    0    0  0.38332778056E+02 -0.33467186983E+02  0.86905951221E+02  0.10070798794E+03  0.00000000000E+00 0.  1.
         11    1    4    4    0    0  0.54620261597E+02 -0.72216619685E+01 -0.93821176021E+01  0.55888724348E+02  0.00000000000E+00 0. -1.
         21    1    1    2  503  501  0.18875075326E+03  0.68928133269E+02  0.60225816456E+03  0.63489592154E+03  0.00000000000E+00 0. -1.
          1    1    1    2  501    0 -0.33558610271E+03  0.77573287045E+01  0.86236221693E+03  0.92539008081E+03  0.00000000000E+00 0. -1.
<scales pt_clust_5="13000.00000" pt_clust_6="13000.00000" pt_clust_7="13000.00000" pt_clust_8="13000.00000" pt_clust_9="216.38116" pt_clust_10="13000.00000"></scales>
<clustering>
<clus scale="   84.743">  5  6 -1 -1</clus>
<clus scale="   90.646">  7  8 -1 -1</clus>
<clus scale="  106.679">  1  5  2 -1</clus>
<clus scale="  216.381">  2  9  1 -1</clus>
<clus scale="  219.377">  7 10 -1 -1</clus>
<clus scale="  216.381">  2  5  1 -1</clus>
</clustering>
</event>
<event>
10    4  0.2565852E-005  0.2085497E+03  0.7546771E-02  0.1163788E+00
         21   -1    0    0  503  502  0.00000000000E+00  0.00000000000E+00  0.18613183759E+03  0.18613183759E+03  0.00000000000E+00 0.  1.
          2   -1    0    0  502    0 -0.00000000000E+00 -0.00000000000E+00 -0.49532722841E+03  0.49532722841E+03  0.00000000000E+00 0. -1.
         24    2    1    2    0    0  0.84165282654E+02 -0.32004384057E+02 -0.21603935269E+03  0.24751687879E+03  0.80520357508E+02 0.  0.
         23    2    1    2    0    0 -0.13581426591E+03  0.16433147968E+02 -0.13197639332E+03  0.21070449459E+03  0.90901333725E+02 0.  0.
        -11    1    3    3    0    0  0.40077522463E+02 -0.55686555028E+02 -0.10140390822E+03  0.12243346283E+03  0.00000000000E+00 0.  1.
         12    1    3    3    0    0  0.44087760192E+02  0.23682170971E+02 -0.11463544447E+03  0.12508341597E+03  0.00000000000E+00 0. -1.
        -11    1    4    4    0    0 -0.99729969130E+02  0.18922730718E+02 -0.35281265088E+02  0.10746582781E+03  0.00000000000E+00 0.  1.
         11    1    4    4    0    0 -0.36084296776E+02 -0.24895827505E+01 -0.96695128229E+02  0.10323866678E+03  0.00000000000E+00 0. -1.
         21    1    1    2  503  501  0.23295468475E+02 -0.28478342838E+02  0.12061707059E+03  0.12610381667E+03  0.00000000000E+00 0.  1.
          1    1    1    2  501    0  0.28353514776E+02  0.44049578927E+02 -0.81796715406E+02  0.97133875939E+02  0.00000000000E+00 0. -1.
<scales pt_clust_5="13000.00000" pt_clust_6="13000.00000" pt_clust_7="13000.00000" pt_clust_8="13000.00000" pt_clust_9="36.79259" pt_clust_10="13000.00000"></scales>
<clustering>
<clus scale="   36.793">  1  9  2 -1</clus>
<clus scale="   80.520">  5  6 -1 -1</clus>
<clus scale="   90.901">  7  8 -1 -1</clus>
<clus scale="   51.180">  7 10 -1 -1</clus>
<clus scale="  126.953">  2  5  1 -1</clus>
<clus scale="   36.793">  1  5  2 -1</clus>
</clustering>
</event>
<event>
10    4  0.2565852E-005  0.3439609E+03  0.7546771E-02  0.1108557E+00
         21   -1    0    0  501  502  0.00000000000E+00  0.00000000000E+00  0.20286930734E+03  0.20286930734E+03  0.00000000000E+00 0. -1.
          2   -1    0    0  503    0 -0.00000000000E+00 -0.00000000000E+00 -0.42537403893E+03  0.42537403893E+03  0.00000000000E+00 0. -1.
         24    2    1    2    0    0 -0.10631924773E+01 -0.64499347118E+02 -0.16692303121E+03  0.19817340905E+03  0.85135806515E+02 0.  0.
         23    2    1    2    0    0 -0.18231477675E+03  0.96574143913E+01 -0.64943181710E+02  0.21546487280E+03  0.94210143222E+02 0.  0.
        -11    1    3    3    0    0 -0.19427816297E+02  0.14504914571E+02 -0.25819953509E+02  0.35418958087E+02  0.00000000000E+00 0.  1.
         12    1    3    3    0    0  0.18364623819E+02 -0.79004261688E+02 -0.14110307770E+03  0.16275445097E+03  0.00000000000E+00 0. -1.
        -13    1    4    4    0    0 -0.50612422285E+02 -0.30365242237E+02 -0.49349227258E+02  0.76935111989E+02  0.00000000000E+00 0.  1.
         13    1    4    4    0    0 -0.13170235446E+03  0.40022656628E+02 -0.15593954452E+02  0.13852976081E+03  0.00000000000E+00 0. -1.
         21    1    1    2  503  502  0.59886382229E+02 -0.22957527457E+02  0.22716343424E+02  0.68040128615E+02  0.00000000000E+00 0. -1.
          1    1    1    2  501    0  0.12349158700E+03  0.77799460183E+02 -0.13354862092E+02  0.14656493580E+03  0.00000000000E+00 0. -1.
<scales pt_clust_5="13000.00000" pt_clust_6="13000.00000" pt_clust_7="13000.00000" pt_clust_8="13000.00000" pt_clust_9="64.13600" pt_clust_10="13000.00000"></scales>
<clustering>
<clus scale="   64.136">  1  9  2 -1</clus>
<clus scale="   85.136">  5  6 -1 -1</clus>
<clus scale="   94.210">  7  8 -1 -1</clus>
<clus scale="  108.310">  2  5  1 -1</clus>
<clus scale="  155.419">  7 10 -1 -1</clus>
<clus scale="   64.136">  1  5  2 -1</clus>
</clustering>
</event>
<event>
10    4  0.2565852E-005  0.2518241E+03  0.7546771E-02  0.1136111E+00
          2   -1    0    0  503    0 -0.00000000000E+00  0.00000000000E+00  0.67328303172E+03  0.67328303172E+03  0.00000000000E+00 0. -1.
         21   -1    0    0  501  502  0.00000000000E+00 -0.00000000000E+00 -0.85125336786E+02  0.85125336786E+02  0.00000000000E+00 0. -1.
         24    2    1    2    0    0 -0.11387928010E+03  0.47319363548E+02  0.34138300140E+03  0.37203310468E+03  0.81600641714E+02 0.  0.
         23    2    1    2    0    0  0.13957870319E+03 -0.83347088932E+01  0.10020018428E+03  0.19276598555E+03  0.86988312416E+02 0.  0.
        -13    1    3    3    0    0 -0.17272705895E+02 -0.21895834773E+02  0.48325347188E+02  0.55795278744E+02  0.00000000000E+00 0.  1.
         14    1    3    3    0    0 -0.96606574210E+02  0.69215198321E+02  0.29305765421E+03  0.31623782593E+03  0.00000000000E+00 0. -1.
        -11    1    4    4    0    0  0.16457120553E+02  0.30650109874E+02  0.14031104527E+02  0.37511837417E+02  0.00000000000E+00 0.  1.
         11    1    4    4    0    0  0.12312158264E+03 -0.38984818767E+02  0.86169079757E+02  0.15525414813E+03  0.00000000000E+00 0. -1.
         21    1    1    2  503  502  0.35233731850E+02 -0.46287079861E+02  0.39894973192E+02  0.70537355409E+02  0.00000000000E+00 0. -1.
          1    1    1    2  501    0 -0.60933154940E+02  0.73024252062E+01  0.10667953606E+03  0.12307192287E+03  0.00000000000E+00 0. -1.
<scales pt_clust_5="13000.00000" pt_clust_6="13000.00000" pt_clust_7="13000.00000" pt_clust_8="13000.00000" pt_clust_9="58.17138" pt_clust_10="13000.00000"></scales>
<clustering>
<clus scale="   58.171">  2  9  1 -1</clus>
<clus scale="   81.601">  5  6 -1 -1</clus>
<clus scale="   86.988">  7  8 -1 -1</clus>
<clus scale="   56.827">  7 10 -1 -1</clus>
<clus scale="  138.946">  1  5  2 -1</clus>
<clus scale="   58.171">  2  5  1 -1</clus>
</clustering>
</event>
<event>
10    4  0.2565852E-005  0.2096715E+03  0.7546771E-02  0.1164447E+00
         -3   -1    0    0    0  501 -0.00000000000E+00  0.00000000000E+00  0.26567915226E+03  0.26567915226E+03  0.00000000000E+00 0.  1.
         21   -1    0    0  501  502  0.00000000000E+00 -0.00000000000E+00 -0.71333960079E+03  0.71333960079E+03  0.00000000000E+00 0.  1.
         24    2    1    2    0    0  0.91669751454E+02 -0.72280280526E+01  0.19536459042E+03  0.23087997072E+03  0.81747476828E+02 0.  0.
         23    2    1    2    0    0 -0.46871486232E+02  0.67237957162E+02 -0.20253936323E+03  0.23692134954E+03  0.91605966531E+02 0.  0.
        -11    1    3    3    0    0  0.83908304839E+02 -0.35299557026E+02  0.16714509358E+03  0.19032641608E+03  0.00000000000E+00 0.  1.
         12    1    3    3    0    0  0.77614466151E+01  0.28071528974E+02  0.28219496839E+02  0.40553554645E+02  0.00000000000E+00 0. -1.
        -11    1    4    4    0    0 -0.62970903722E+02  0.11675527531E+02 -0.12160698282E+03  0.13744057235E+03  0.00000000000E+00 0.  1.
         11    1    4    4    0    0  0.16099417490E+02  0.55562429631E+02 -0.80932380414E+02  0.99480777186E+02  0.00000000000E+00 0. -1.
         21    1    1    2  503  502  0.13642214110E+02 -0.14756105010E+03 -0.20194744439E+03  0.25048581558E+03  0.00000000000E+00 0.  1.
         -4    1    1    2    0  503 -0.58440479333E+02  0.87551120987E+02 -0.23853823133E+03  0.26073161721E+03  0.00000000000E+00 0.  1.
<scales pt_clust_5="13000.00000" pt_clust_6="13000.00000" pt_clust_7="13000.00000" pt_clust_8="13000.00000" pt_clust_9="160.94527" pt_clust_10="13000.00000"></scales>
<clustering>
<clus scale="   81.747">  5  6 -1 -1</clus>
<clus scale="   91.606">  7  8 -1 -1</clus>
<clus scale="  105.264">  7 10 -1 -1</clus>
<clus scale="  123.038">  1  5  2 -1</clus>
<clus scale="  160.945">  2  9  1 -1</clus>
<clus scale="  160.945">  2  5  1 -1</clus>
</clustering>
</event>
<event>
10    4  0.2565852E-005  0.2749525E+03  0.7546771E-02  0.1128938E+00
          2   -1    0    0  503    0 -0.00000000000E+00  0.00000000000E+00  0.62718938731E+03  0.62718938731E+03  0.00000000000E+00 0. -1.
         21   -1    0    0  501  502  0.00000000000E+00 -0.00000000000E+00 -0.90371951506E+02  0.90371951506E+02  0.00000000000E+00 0.  1.
         24    2    1    2    0    0  0.17887711194E+02 -0.81110901767E+02  0.13043914110E+03  0.17393264406E+03  0.79619385462E+02 0.  0.
         23    2    1    2    0    0  0.27034714037E+02 -0.39988168555E+02  0.12975609562E+03  0.16462677148E+03  0.89080862973E+02 0.  0.
        -11    1    3    3    0    0  0.41160135837E+02 -0.24440198495E+02  0.85378516176E+02  0.97882435140E+02  0.00000000000E+00 0.  1.
         12    1    3    3    0    0 -0.23272424643E+02 -0.56670703272E+02  0.45060624925E+02  0.76050208920E+02  0.00000000000E+00 0. -1.
        -11    1    4    4    0    0  0.31363654917E+01 -0.62681493334E+02  0.10870403918E+03  0.12552041479E+03  0.00000000000E+00 0.  1.
         11    1    4    4    0    0  0.23898348546E+02  0.22693324779E+02  0.21052056440E+02  0.39106356684E+02  0.00000000000E+00 0. -1.
         21    1    1    2  503  502  0.17069109589E+02 -0.58905247445E+02  0.11029602452E+03  0.12619982450E+03  0.00000000000E+00 0.  1.
          1    1    1    2  501    0 -0.61991534820E+02  0.18000431777E+03  0.16632617456E+03  0.25280209878E+03  0.00000000000E+00 0. -1.
<scales pt_clust_5="13000.00000" pt_clust_6="13000.00000" pt_clust_7="13000.00000" pt_clust_8="13000.00000" pt_clust_9="61.32851" pt_clust_10="13000.00000"></scales>
<clustering>
<clus scale="   61.329">  2  9  1 -1</clus>
<clus scale="   79.619">  5  6 -1 -1</clus>
<clus scale="   89.081">  7  8 -1 -1</clus>
<clus scale="  127.210">  1  5  2 -1</clus>
<clus scale="  112.096">  7 10 -1 -1</clus>
<clus scale="   61.329">  2  5  1 -1</clus>
</clustering>
</event>
<event>
10    4  0.2565852E-005  0.3205098E+03  0.7546771E-02  0.1113901E+00
          2   -1    0    0  503    0 -0.00000000000E+00  0.00000000000E+00  0.55637919361E+03  0.55637919361E+03  0.00000000000E+00 0. -1.
         21   -1    0    0  501  502  0.00000000000E+00 -0.00000000000E+00 -0.22236541710E+03  0.22236541710E+03  0.00000000000E+00 0. -1.
         24    2    1    2    0    0 -0.90753520407E+02  0.11496497155E+02  0.21648668891E+03  0.24917404289E+03  0.82781919891E+02 0.  0.
         23    2    1    2    0    0  0.21049038610E+01  0.68859488594E+02 -0.26147094071E+02  0.11674047478E+03  0.90546165760E+02 0.  0.
        -11    1    3    3    0    0 -0.55740120495E+01  0.29871177409E+02  0.94468408445E+02  0.99235261093E+02  0.00000000000E+00 0.  1.
         12    1    3    3    0    0 -0.85179508358E+02 -0.18374680254E+02  0.12201828046E+03  0.14993878179E+03  0.00000000000E+00 0. -1.
        -11    1    4    4    0    0  0.28070194976E+01 -0.22359423437E+02 -0.43524246254E+01  0.22951400285E+02  0.00000000000E+00 0.  1.
         11    1    4    4    0    0 -0.70211563662E+00  0.91218912031E+02 -0.21794669445E+02  0.93789074496E+02  0.00000000000E+00 0. -1.
         21    1    1    2  503  502  0.49677611941E+02 -0.15592418945E+02 -0.12410667207E+03  0.13458623522E+03  0.00000000000E+00 0. -1.
          1    1    1    2  501    0  0.38971004605E+02 -0.64763566804E+02  0.26778085375E+03  0.27824385783E+03  0.00000000000E+00 0. -1.
<scales pt_clust_5="13000.00000" pt_clust_6="13000.00000" pt_clust_7="13000.00000" pt_clust_8="13000.00000" pt_clust_9="52.06716" pt_clust_10="13000.00000"></scales>
<clustering>
<clus scale="   52.067">  2  9  1 -1</clus>
<clus scale="   82.782">  5  6 -1 -1</clus>
<clus scale="   90.546">  7  8 -1 -1</clus>
<clus scale="   77.801">  7 10 -1 -1</clus>
<clus scale="  116.866">  1  5  2 -1</clus>
<clus scale="   52.067">  2  5  1 -1</clus>
</clustering>
</event>
<event>
10    4  0.2565852E-005  0.1775540E+03  0.7546771E-02  0.1203459E+00
         -1   -1    0    0    0  501 -0.00000000000E+00  0.00000000000E+00  0.78572354350E+02  0.78572354350E+02  0.00000000000E+00 0.  1.
         21   -1    0    0  503  502  0.00000000000E+00 -0.00000000000E+00 -0.34821413781E+03  0.34821413781E+03  0.00000000000E+00 0. -1.
         24    2    1    2    0    0  0.11027867234E+02  0.12234666208E+02 -0.44024859201E+02  0.94402401089E+02  0.81867723742E+02 0.  0.
         23    2    1    2    0    0 -0.44916824025E+02 -0.50587331818E+02 -0.77721283128E+02  0.13764084752E+03  0.91256812542E+02 0.  0.
        -11    1    3    3    0    0  0.24051201130E+02  0.43327150063E+02 -0.29712805309E+02  0.57780212942E+02  0.00000000000E+00 0.  1.
         12    1    3    3    0    0 -0.13023333896E+02 -0.31092483855E+02 -0.14312053892E+02  0.36622188147E+02  0.00000000000E+00 0. -1.
        -11    1    4    4    0    0 -0.16186768650E+02  0.21342803955E+02 -0.47432816874E+02  0.54473836624E+02  0.00000000000E+00 0.  1.
         11    1    4    4    0    0 -0.28730055376E+02 -0.71930135772E+02 -0.30288466254E+02  0.83167010901E+02  0.00000000000E+00 0. -1.
         21    1    1    2  503  501  0.38742614929E+02 -0.31850487934E+02 -0.92356355885E+02  0.10509586227E+03  0.00000000000E+00 0. -1.
         -2    1    1    2    0  502 -0.48536581376E+01  0.70203153544E+02 -0.55539285251E+02  0.89647381283E+02  0.00000000000E+00 0.  1.
<scales pt_clust_5="13000.00000" pt_clust_6="13000.00000" pt_clust_7="13000.00000" pt_clust_8="13000.00000" pt_clust_9="50.15420" pt_clust_10="13000.00000"></scales>
<clustering>
<clus scale="   50.154">  2  9  1 -1</clus>
<clus scale="   81.868">  5  6 -1 -1</clus>
<clus scale="   84.782">  1  5  2 -1</clus>
<clus scale="   91.257">  7  8 -1 -1</clus>
<clus scale="   63.396">  7 10 -1 -1</clus>
<clus scale="   50.154">  2  5  1 -1</clus>
</clustering>
</event>
<event>
10    4  0.2565852E-005  0.1891537E+03  0.7546771E-02  0.1184127E+00
         21   -1    0    0  503  502  0.00000000000E+00  0.00000000000E+00  0.64286787659E+02  0.64286787659E+02  0.00000000000E+00 0.  1.
         -1   -1    0    0    0  501 -0.00000000000E+00 -0.00000000000E+00 -0.68743471550E+03  0.68743471550E+03  0.00000000000E+00 0.  1.
         24    2    1    2    0    0 -0.56671984596E+02  0.40780092954E+02 -0.46362231828E+03  0.47575167000E+03  0.80741982143E+02 0.  0.
         23    2    1    2    0    0  0.29707715869E+02  0.45462747134E+02 -0.48589207593E+02  0.11664193649E+03  0.91077003110E+02 0.  0.
        -13    1    3    3    0    0 -0.14613899547E+02  0.58931983351E+02 -0.27915963539E+03  0.28568627330E+03  0.00000000000E+00 0.  1.
         14    1    3    3    0    0 -0.42058085049E+02 -0.18151890397E+02 -0.18446268290E+03  0.19006539670E+03  0.00000000000E+00 0. -1.
        -13    1    4    4    0    0 -0.12949547922E+02  0.37374023298E+02  0.12690824914E+02  0.41539925925E+02  0.00000000000E+00 0.  1.
         13    1    4    4    0    0  0.42657263791E+02  0.80887238361E+01 -0.61280032507E+02  0.75102010569E+02  0.00000000000E+00 0. -1.
         21    1    1    2  503  501 -0.22634135114E+02 -0.22019386430E+02 -0.19664939406E+02  0.37200366839E+02  0.00000000000E+00 0.  1.
         -2    1    1    2    0  502  0.49598403842E+02 -0.64223453658E+02 -0.91271462563E+02  0.12212752983E+03  0.00000000000E+00 0.  1.
<scales pt_clust_5="13000.00000" pt_clust_6="13000.00000" pt_clust_7="13000.00000" pt_clust_8="13000.00000" pt_clust_9="31.57780" pt_clust_10="13000.00000"></scales>
<clustering>
<clus scale="   31.578">  1  9  2 -1</clus>
<clus scale="   80.742">  5  6 -1 -1</clus>
<clus scale="   91.077">  7  8 -1 -1</clus>
<clus scale="   82.606">  7 10 -1 -1</clus>
<clus scale="  107.191">  2  5  1 -1</clus>
<clus scale="   31.578">  1  5  2 -1</clus>
</clustering>
</event>
<event>
10    4  0.2565852E-005  0.2487008E+03  0.7546771E-02  0.1156060E+00
         21   -1    0    0  503  502  0.00000000000E+00  0.00000000000E+00  0.13964591593E+03  0.13964591593E+03  0.00000000000E+00 0.  1.
          2   -1    0    0  502    0 -0.00000000000E+00 -0.00000000000E+00 -0.49257721253E+03  0.49257721253E+03  0.00000000000E+00 0. -1.
         24    2    1    2    0    0 -0.93945660973E-01  0.57313683045E+02 -0.18422907185E+03  0.20648795492E+03  0.73566687586E+02 0.  0.
         23    2    1    2    0    0  0.64564453890E+01  0.51847854697E+02 -0.24687842970E+03  0.26776281448E+03  0.89543732564E+02 0.  0.
        -11    1    3    3    0    0 -0.31140014545E+02  0.11821868096E+02 -0.39710377822E+02  0.51830214913E+02  0.00000000000E+00 0.  1.
         12    1    3    3    0    0  0.31046068884E+02  0.45491814948E+02 -0.14451869403E+03  0.15465774001E+03  0.00000000000E+00 0. -1.
        -11    1    4    4    0    0 -0.33863138035E+02  0.42830313071E+02 -0.87679672794E+02  0.10329023602E+03  0.00000000000E+00 0. -1.
         11    1    4    4    0    0  0.40319583424E+02  0.90175416254E+01 -0.15919875691E+03  0.16447257846E+03  0.00000000000E+00 0.  1.
         21    1    1    2  503  501 -0.21052564143E+02 -0.35408510813E+02  0.71444446108E+02  0.82469885259E+02  0.00000000000E+00 0.  1.
          1    1    1    2  501    0  0.14690064415E+02 -0.73753026928E+02  0.67317588432E+01  0.75502473805E+02  0.00000000000E+00 0. -1.
<scales pt_clust_5="13000.00000" pt_clust_6="13000.00000" pt_clust_7="13000.00000" pt_clust_8="13000.00000" pt_clust_9="41.19433" pt_clust_10="13000.00000"></scales>
<clustering>
<clus scale="   41.194">  1  9  2 -1</clus>
<clus scale="   73.567">  5  6 -1 -1</clus>
<clus scale="   89.544">  7  8 -1 -1</clus>
<clus scale="   89.613">  2  5  1 -1</clus>
<clus scale="   86.468">  7 10 -1 -1</clus>
<clus scale="   41.194">  1  5  2 -1</clus>
</clustering>
</event>
<event>
10    4  0.5367807E-005  0.1589889E+03  0.7546771E-02  0.1216454E+00
          2   -1    0    0  502    0 -0.00000000000E+00  0.00000000000E+00  0.57389405826E+03  0.57389405826E+03  0.00000000000E+00 0. -1.
         21   -1    0    0  503  502  0.00000000000E+00 -0.00000000000E+00 -0.28585194875E+03  0.28585194875E+03  0.00000000000E+00 0.  1.
         24    2    1    2    0    0  0.34239734505E+02  0.16860492061E+02  0.13177276826E+03  0.15885615039E+03  0.80091063481E+02 0.  0.
         23    2    1    2    0    0 -0.55548486225E+00 -0.17115857670E+02  0.13640893662E+03  0.16487181241E+03  0.91005798664E+02 0.  0.
        -11    1    3    3    0    0 -0.13803448428E+02 -0.15054484707E+02  0.73362710740E+01  0.21702386310E+02  0.00000000000E+00 0.  1.
         12    1    3    3    0    0  0.48043182933E+02  0.31914976768E+02  0.12443649719E+03  0.13715376408E+03  0.00000000000E+00 0. -1.
        -11    1    4    4    0    0  0.16781529105E+02  0.34384484041E+02  0.55870568960E+02  0.67715824870E+02  0.00000000000E+00 0.  1.
         11    1    4    4    0    0 -0.17337013967E+02 -0.51500341711E+02  0.80538367659E+02  0.97155987540E+02  0.00000000000E+00 0. -1.
         21    1    1    2  503  501 -0.53628414096E+02  0.48444638079E+02 -0.25047772103E+03  0.26069518309E+03  0.00000000000E+00 0.  1.
          1    1    1    2  501    0  0.19944164453E+02 -0.48189272469E+02  0.27033812565E+03  0.27532286112E+03  0.00000000000E+00 0. -1.
<scales pt_clust_5="13000.00000" pt_clust_6="13000.00000" pt_clust_7="13000.00000" pt_clust_8="13000.00000" pt_clust_9="72.26956" pt_clust_10="13000.00000"></scales>
<clustering>
<clus scale="   72.270">  2  9  1 -1</clus>
<clus scale="   80.091">  5  6 -1 -1</clus>
<clus scale="   89.468">  1  5  2 -1</clus>
<clus scale="   91.006">  7  8 -1 -1</clus>
<clus scale="   31.242">  7 10 -1 -1</clus>
<clus scale="   72.270">  2  5  1 -1</clus>
</clustering>
</event>
<event>
10    4  0.2565852E-005  0.1853649E+03  0.7546771E-02  0.1180471E+00
          2   -1    0    0  502    0 -0.00000000000E+00  0.00000000000E+00  0.47400585137E+03  0.47400585137E+03  0.00000000000E+00 0. -1.
         21   -1    0    0  503  502  0.00000000000E+00 -0.00000000000E+00 -0.21071214501E+03  0.21071214501E+03  0.00000000000E+00 0.  1.
         24    2    1    2    0    0 -0.21358392537E+02  0.11433017729E+03 -0.41357258606E+02  0.14884120793E+03  0.83160759776E+02 0.  0.
         23    2    1    2    0    0 -0.35299566590E+01 -0.85143877000E+01  0.17920926417E+03  0.20209691517E+03  0.92963688423E+02 0.  0.
        -13    1    3    3    0    0 -0.21491472561E+02  0.12765690281E+03 -0.35158599820E+02  0.13414281706E+03  0.00000000000E+00 0.  1.
         14    1    3    3    0    0  0.13308002347E+00 -0.13326725518E+02 -0.61986587860E+01  0.14698390866E+02  0.00000000000E+00 0. -1.
        -11    1    4    4    0    0  0.20077128094E+02 -0.42292297869E+02  0.60893620152E+02  0.76809911514E+02  0.00000000000E+00 0.  1.
         11    1    4    4    0    0 -0.23607084753E+02  0.33777910169E+02  0.11831564402E+03  0.12528700366E+03  0.00000000000E+00 0. -1.
         21    1    1    2  503  501 -0.59865992856E+02 -0.68275440180E+02 -0.71852883586E+02  0.11579425595E+03  0.00000000000E+00 0.  1.
          1    1    1    2  501    0  0.84754342053E+02 -0.37540349413E+02  0.19729458439E+03  0.21798561732E+03  0.00000000000E+00 0. -1.
<scales pt_clust_5="13000.00000" pt_clust_6="13000.00000" pt_clust_7="13000.00000" pt_clust_8="13000.00000" pt_clust_9="90.80459" pt_clust_10="13000.00000"></scales>
<clustering>
<clus scale="   83.161">  5  6 -1 -1</clus>
<clus scale="   90.805">  2  9  1 -1</clus>
<clus scale="   92.964">  7  8 -1 -1</clus>
<clus scale="   90.624">  7 10 -1 -1</clus>
<clus scale="  123.613">  1  5  2 -1</clus>
<clus scale="   90.805">  2  5  1 -1</clus>
</clustering>
</event>
<event>
10    4  0.2565852E-005  0.3596961E+03  0.7546771E-02  0.1094559E+00
          2   -1    0    0  502    0 -0.00000000000E+00  0.00000000000E+00  0.75967841483E+03  0.75967841483E+03  0.00000000000E+00 0. -1.
         21   -1    0    0  503  502  0.00000000000E+00 -0.00000000000E+00 -0.20679409734E+03  0.20679409734E+03  0.00000000000E+00 0. -1.
         24    2    1    2    0    0 -0.94576923554E+02  0.62479326855E+02  0.49448884800E+03  0.51372983688E+03  0.80936170861E+02 0.  0.
         23    2    1    2    0    0 -0.11275924017E+03  0.63584330084E+02  0.66632399856E+02  0.17253161870E+03  0.92572509220E+02 0.  0.
        -13    1    3    3    0    0 -0.19263571362E+02  0.14091018094E+02  0.20807026612E+02  0.31663454154E+02  0.00000000000E+00 0.  1.
         14    1    3    3    0    0 -0.75313352192E+02  0.48388308761E+02  0.47368182138E+03  0.48206638272E+03  0.00000000000E+00 0. -1.
        -11    1    4    4    0    0 -0.26096168273E+02  0.61813476790E+02  0.73072131726E+01  0.67493046129E+02  0.00000000000E+00 0.  1.
         11    1    4    4    0    0 -0.86663071895E+02  0.17708532942E+01  0.59325186684E+02  0.10503857257E+03  0.00000000000E+00 0. -1.
         21    1    1    2  503  501  0.41991927757E+02 -0.36838984401E+02 -0.63302669489E+02  0.84425474431E+02  0.00000000000E+00 0.  1.
          1    1    1    2  501    0  0.16534423597E+03 -0.89224672538E+02  0.55065739132E+02  0.19578558216E+03  0.00000000000E+00 0. -1.
<scales pt_clust_5="13000.00000" pt_clust_6="13000.00000" pt_clust_7="13000.00000" pt_clust_8="13000.00000" pt_clust_9="55.86083" pt_clust_10="13000.00000"></scales>
<clustering>
<clus scale="   55.861">  2  9  1 -1</clus>
<clus scale="   80.936">  5  6 -1 -1</clus>
<clus scale="   92.573">  7  8 -1 -1</clus>
<clus scale="  136.042">  1  5  2 -1</clus>
<clus scale="  149.153">  7 10 -1 -1</clus>
<clus scale="   55.861">  2  5  1 -1</clus>
</clustering>
</event>
<event>
10    4  0.2565852E-005  0.3397250E+03  0.7546771E-02  0.1105030E+00
         -1   -1    0    0    0  501 -0.00000000000E+00  0.00000000000E+00  0.58538378606E+03  0.58538378606E+03  0.00000000000E+00 0.  1.
         21   -1    0    0  501  502  0.00000000000E+00 -0.00000000000E+00 -0.13401614434E+03  0.13401614434E+03  0.00000000000E+00 0.  1.
         24    2    1    2    0    0  0.18578053496E+01  0.90962413873E+02  0.28233463716E+03  0.30727511352E+03  0.80171914501E+02 0.  0.
         23    2    1    2    0    0 -0.15474447224E+03 -0.10097143890E+03  0.12747088339E+03  0.24249365847E+03  0.91723852536E+02 0.  0.
        -13    1    3    3    0    0  0.11053555393E+02  0.91556634159E+02  0.28337308974E+03  0.29800185626E+03  0.00000000000E+00 0.  1.
         14    1    3    3    0    0 -0.91957500430E+01 -0.59422028560E+00 -0.10384525800E+01  0.92732572682E+01  0.00000000000E+00 0. -1.
        -11    1    4    4    0    0 -0.72512243588E+02 -0.86829429832E+02  0.36074549882E+02  0.11873815101E+03  0.00000000000E+00 0. -1.
         11    1    4    4    0    0 -0.82232228654E+02 -0.14142009069E+02  0.91396333503E+02  0.12375550746E+03  0.00000000000E+00 0.  1.
         21    1    1    2  503  502  0.17979148419E+02  0.22697613846E+02  0.76447655179E+01  0.29947852878E+02  0.00000000000E+00 0.  1.
         -2    1    1    2    0  503  0.13490751847E+03 -0.12688588818E+02  0.33917355666E+02  0.13968330552E+03  0.00000000000E+00 0.  1.
<scales pt_clust_5="13000.00000" pt_clust_6="13000.00000" pt_clust_7="13000.00000" pt_clust_8="13000.00000" pt_clust_9="28.95568" pt_clust_10="13000.00000"></scales>
<clustering>
<clus scale="   28.956">  2  9  1 -1</clus>
<clus scale="   80.172">  5  6 -1 -1</clus>
<clus scale="   91.724">  7  8 -1 -1</clus>
<clus scale="  123.043">  1  5  2 -1</clus>
<clus scale="  147.654">  7 10 -1 -1</clus>
<clus scale="   28.956">  2  5  1 -1</clus>
</clustering>
</event>
<event>
10    4  0.2565852E-005  0.8111398E+03  0.7546771E-02  0.9943709E-01
          2   -1    0    0  502    0 -0.00000000000E+00  0.00000000000E+00  0.22219617837E+04  0.22219617837E+04  0.00000000000E+00 0. -1.
         21   -1    0    0  503  502  0.00000000000E+00 -0.00000000000E+00 -0.18337027341E+03  0.18337027341E+03  0.00000000000E+00 0. -1.
         24    2    1    2    0    0  0.16806491532E+03  0.74564393779E+02  0.18109159573E+03  0.27891797472E+03  0.10580834559E+03 0.  0.
         23    2    1    2    0    0 -0.33187177299E+03 -0.11519037540E+03  0.17659593825E+04  0.18029837000E+04  0.93434392580E+02 0.  0.
        -13    1    3    3    0    0  0.11305740375E+03  0.37959732048E+02  0.44694571999E+02  0.12735981535E+03  0.00000000000E+00 0.  1.
         14    1    3    3    0    0  0.55007511576E+02  0.36604661731E+02  0.13639702373E+03  0.15155815938E+03  0.00000000000E+00 0. -1.
        -13    1    4    4    0    0 -0.56115900897E+02 -0.23967545609E+02  0.16569164276E+03  0.17657054697E+03  0.00000000000E+00 0.  1.
         13    1    4    4    0    0 -0.27575587209E+03 -0.91222829794E+02  0.16002677397E+04  0.16264131531E+04  0.00000000000E+00 0. -1.
         21    1    1    2  503  501 -0.38922339394E+02  0.86789414615E+02 -0.26889862903E+01  0.95155565473E+02  0.00000000000E+00 0.  1.
          1    1    1    2  501    0  0.20272919706E+03 -0.46163432992E+02  0.94229518333E+02  0.22827481685E+03  0.00000000000E+00 0. -1.
<scales pt_clust_5="13000.00000" pt_clust_6="13000.00000" pt_clust_7="13000.00000" pt_clust_8="13000.00000" pt_clust_9="95.11756" pt_clust_10="13000.00000"></scales>
<clustering>
<clus scale="   93.434">  7  8 -1 -1</clus>
<clus scale="   95.118">  2  9  1 -1</clus>
<clus scale="  105.808">  5  6 -1 -1</clus>
<clus scale="  183.349">  7 10 -1 -1</clus>
<clus scale="  214.820">  1  5  2 -1</clus>
<clus scale="   95.118">  2  5  1 -1</clus>
</clustering>
</event>
<event>
10    4  0.2565852E-005  0.1611772E+03  0.7546771E-02  0.1215984E+00
         21   -1    0    0  503  502  0.00000000000E+00  0.00000000000E+00  0.10383183275E+03  0.10383183275E+03  0.00000000000E+00 0. -1.
         -1   -1    0    0    0  501 -0.00000000000E+00 -0.00000000000E+00 -0.35667008489E+03  0.35667008489E+03  0.00000000000E+00 0.  1.
         24    2    1    2    0    0 -0.23450022184E+02  0.15944916308E+02 -0.23340377429E+03  0.24951913853E+03  0.83536427626E+02 0.  0.
         23    2    1    2    0    0  0.37475956833E+02 -0.12976755373E+02 -0.30962015405E+02  0.10374851791E+03  0.90731830415E+02 0.  0.
        -13    1    3    3    0    0 -0.12337042811E+02  0.41055225369E+02 -0.20711273764E+03  0.21150276653E+03  0.00000000000E+00 0.  1.
         14    1    3    3    0    0 -0.11112979373E+02 -0.25110309061E+02 -0.26291036647E+02  0.38016371996E+02  0.00000000000E+00 0. -1.
        -11    1    4    4    0    0  0.15730201706E+02  0.29080802290E+02 -0.43624438522E+02  0.54737774378E+02  0.00000000000E+00 0.  1.
         11    1    4    4    0    0  0.21745755128E+02 -0.42057557663E+02  0.12662423117E+02  0.49010743535E+02  0.00000000000E+00 0. -1.
         21    1    1    2  503  501  0.39120291936E+02 -0.27751121051E+02  0.58616673461E+01  0.48320607456E+02  0.00000000000E+00 0. -1.
         -2    1    1    2    0  502 -0.53146226585E+02  0.24782960116E+02  0.56658702025E+01  0.58913653745E+02  0.00000000000E+00 0.  1.
<scales pt_clust_5="13000.00000" pt_clust_6="13000.00000" pt_clust_7="13000.00000" pt_clust_8="13000.00000" pt_clust_9="47.96376" pt_clust_10="13000.00000"></scales>
<clustering>
<clus scale="   47.964">  1  9  2 -1</clus>
<clus scale="   83.536">  5  6 -1 -1</clus>
<clus scale="   86.731">  2  5  1 -1</clus>
<clus scale="   90.732">  7  8 -1 -1</clus>
<clus scale="   43.745">  7 10 -1 -1</clus>
<clus scale="   47.964">  1  5  2 -1</clus>
</clustering>
</event>
<event>
10    4  0.2565852E-005  0.3594489E+03  0.7546771E-02  0.1062308E+00
          2   -1    0    0  502    0 -0.00000000000E+00  0.00000000000E+00  0.72260400298E+03  0.72260400298E+03  0.00000000000E+00 0. -1.
         21   -1    0    0  503  502  0.00000000000E+00 -0.00000000000E+00 -0.41484789781E+03  0.41484789781E+03  0.00000000000E+00 0. -1.
         24    2    1    2    0    0 -0.33412408743E+03 -0.27466062397E+02  0.20126116669E+03  0.39776519005E+03  0.72923239204E+02 0.  0.
         23    2    1    2    0    0  0.92072067206E+02  0.35521482974E+02  0.10462630907E+03  0.17175542828E+03  0.93884084281E+02 0.  0.
        -13    1    3    3    0    0 -0.15822932014E+03 -0.28446553421E+02  0.13455306131E+03  0.20964315028E+03  0.00000000000E+00 0.  1.
         14    1    3    3    0    0 -0.17589476729E+03  0.98049102384E+00  0.66708105375E+02  0.18812203977E+03  0.00000000000E+00 0. -1.
        -11    1    4    4    0    0  0.63683024899E+02  0.65512367921E+01  0.50299842736E+01  0.64216408383E+02  0.00000000000E+00 0.  1.
         11    1    4    4    0    0  0.28389042307E+02  0.28970246182E+02  0.99596324799E+02  0.10753901990E+03  0.00000000000E+00 0. -1.
         21    1    1    2  503  501  0.34068732691E+02 -0.29662075558E+02 -0.24229293162E+03  0.24646781126E+03  0.00000000000E+00 0. -1.
          1    1    1    2  501    0  0.20798328753E+03  0.21606654981E+02  0.24416156103E+03  0.32146347120E+03  0.00000000000E+00 0. -1.
<scales pt_clust_5="13000.00000" pt_clust_6="13000.00000" pt_clust_7="13000.00000" pt_clust_8="13000.00000" pt_clust_9="45.17209" pt_clust_10="13000.00000"></scales>
<clustering>
<clus scale="   45.172">  2  9  1 -1</clus>
<clus scale="   72.923">  5  6 -1 -1</clus>
<clus scale="   93.884">  7  8 -1 -1</clus>
<clus scale="  216.221">  7 10 -1 -1</clus>
<clus scale="  325.893">  1  5  2 -1</clus>
<clus scale="   45.172">  2  5  1 -1</clus>
</clustering>
</event>
<event>
10    4  0.2565852E-005  0.4256965E+03  0.7546771E-02  0.1087990E+00
          2   -1    0    0  503    0 -0.00000000000E+00  0.00000000000E+00  0.29905381992E+03  0.29905381992E+03  0.00000000000E+00 0. -1.
         21   -1    0    0  501  502  0.00000000000E+00 -0.00000000000E+00 -0.29795138803E+03  0.29795138803E+03  0.00000000000E+00 0.  1.
         24    2    1    2    0    0  0.42756265859E+02 -0.84944230229E+01  0.25679294327E+02  0.99031466446E+02  0.85132553683E+02 0.  0.
         23    2    1    2    0    0  0.89662539074E+02  0.36099410636E+02 -0.14701564792E+03  0.19503216227E+03  0.84151085705E+02 0.  0.
        -13    1    3    3    0    0  0.55765437796E+02 -0.32772777548E+02  0.55584804967E+01  0.64920995881E+02  0.00000000000E+00 0.  1.
         14    1    3    3    0    0 -0.13009171937E+02  0.24278354525E+02  0.20120813831E+02  0.34110470564E+02  0.00000000000E+00 0. -1.
        -13    1    4    4    0    0  0.67658643485E+02  0.56826261771E+02 -0.13731326467E+03  0.16328456362E+03  0.00000000000E+00 0.  1.
         13    1    4    4    0    0  0.22003895589E+02 -0.20726851136E+02 -0.97023832584E+01  0.31747598649E+02  0.00000000000E+00 0. -1.
         21    1    1    2  503  502  0.20085080268E+02 -0.29682891267E+02 -0.57068930705E+02  0.67389519476E+02  0.00000000000E+00 0.  1.
          1    1    1    2  501    0 -0.15250388520E+03  0.20779036539E+01  0.17950771619E+03  0.23555205976E+03  0.00000000000E+00 0. -1.
<scales pt_clust_5="13000.00000" pt_clust_6="13000.00000" pt_clust_7="13000.00000" pt_clust_8="13000.00000" pt_clust_9="35.83971" pt_clust_10="13000.00000"></scales>
<clustering>
<clus scale="   35.840">  2  9  1 -1</clus>
<clus scale="   84.151">  7  8 -1 -1</clus>
<clus scale="   85.133">  5  6 -1 -1</clus>
<clus scale="   97.594">  1  5  2 -1</clus>
<clus scale="  111.186">  7 10 -1 -1</clus>
<clus scale="   35.840">  2  5  1 -1</clus>
</clustering>
</event>
<event>
10    4  0.2565852E-005  0.1927730E+03  0.7546771E-02  0.1192944E+00
         21   -1    0    0  501  502  0.00000000000E+00  0.00000000000E+00  0.14553288145E+03  0.14553288145E+03  0.00000000000E+00 0.  1.
          2   -1    0    0  503    0 -0.00000000000E+00 -0.00000000000E+00 -0.39668709304E+03  0.39668709304E+03  0.00000000000E+00 0. -1.
         24    2    1    2    0    0  0.10871998753E+02 -0.13478784870E+02 -0.25488971257E+03  0.26806748188E+03  0.81188245881E+02 0.  0.
         23    2    1    2    0    0  0.28384302064E+02  0.43350338950E+00 -0.45035802847E+02  0.10483673817E+03  0.90314238098E+02 0.  0.
        -11    1    3    3    0    0 -0.34366025045E+02  0.18707879105E+01 -0.12576685194E+03  0.13039104483E+03  0.00000000000E+00 0.  1.
         12    1    3    3    0    0  0.45238023798E+02 -0.15349572780E+02 -0.12912286062E+03  0.13767643704E+03  0.00000000000E+00 0. -1.
        -11    1    4    4    0    0 -0.19791188540E+02 -0.30594706905E+02 -0.24751500480E+02  0.44049563113E+02  0.00000000000E+00 0.  1.
         11    1    4    4    0    0  0.48175490604E+02  0.31028210294E+02 -0.20284302366E+02  0.60787175057E+02  0.00000000000E+00 0. -1.
         21    1    1    2  503  502 -0.31956500530E+02 -0.52234530479E+02 -0.28799994816E+02  0.67669075669E+02  0.00000000000E+00 0.  1.
          1    1    1    2  501    0 -0.72998002872E+01  0.65279811960E+02  0.77571298643E+02  0.10164667878E+03  0.00000000000E+00 0. -1.
<scales pt_clust_5="13000.00000" pt_clust_6="13000.00000" pt_clust_7="13000.00000" pt_clust_8="13000.00000" pt_clust_9="61.23450" pt_clust_10="13000.00000"></scales>
<clustering>
<clus scale="   61.235">  1  9  2 -1</clus>
<clus scale="   81.188">  5  6 -1 -1</clus>
<clus scale="   83.300">  2  5  1 -1</clus>
<clus scale="   90.314">  7  8 -1 -1</clus>
<clus scale="   35.302">  7 10 -1 -1</clus>
<clus scale="   61.235">  1  5  2 -1</clus>
</clustering>
</event>
<event>
10    4  0.2565852E-005  0.6078846E+03  0.7546771E-02  0.1042849E+00
          2   -1    0    0  502    0 -0.00000000000E+00  0.00000000000E+00  0.10778923701E+04  0.10778923701E+04  0.00000000000E+00 0. -1.
         21   -1    0    0  503  502  0.00000000000E+00 -0.00000000000E+00 -0.26595078327E+03  0.26595078327E+03  0.00000000000E+00 0. -1.
         24    2    1    2    0    0 -0.36984725622E+02  0.90388809350E+02  0.17725700625E+02  0.12796457265E+03  0.80763386540E+02 0.  0.
         23    2    1    2    0    0 -0.16375337392E+03  0.47202150163E+02  0.42447426414E+02  0.19875549825E+03  0.93052424060E+02 0.  0.
        -11    1    3    3    0    0 -0.41045662692E+02  0.82648007482E+02  0.42571695393E+02  0.10162572910E+03  0.00000000000E+00 0.  1.
         12    1    3    3    0    0  0.40609370698E+01  0.77408018680E+01 -0.24845994768E+02  0.26338843548E+02  0.00000000000E+00 0. -1.
        -11    1    4    4    0    0 -0.96786374149E+02  0.17027315534E+02  0.69625007254E+02  0.12043742496E+03  0.00000000000E+00 0.  1.
         11    1    4    4    0    0 -0.66966999776E+02  0.30174834629E+02 -0.27177580840E+02  0.78318073292E+02  0.00000000000E+00 0. -1.
         21    1    1    2  503  501  0.12610724063E+02 -0.31892862254E+02 -0.11701759299E+03  0.12193974780E+03  0.00000000000E+00 0. -1.
          1    1    1    2  501    0  0.18812737548E+03 -0.10569809726E+03  0.86878605280E+03  0.89518333469E+03  0.00000000000E+00 0. -1.
<scales pt_clust_5="13000.00000" pt_clust_6="13000.00000" pt_clust_7="13000.00000" pt_clust_8="13000.00000" pt_clust_9="34.29555" pt_clust_10="13000.00000"></scales>
<clustering>
<clus scale="   34.296">  2  9  1 -1</clus>
<clus scale="   80.763">  5  6 -1 -1</clus>
<clus scale="   93.052">  7  8 -1 -1</clus>
<clus scale="  117.075">  1  5  2 -1</clus>
<clus scale="  165.216">  7 10 -1 -1</clus>
<clus scale="   34.296">  2  5  1 -1</clus>
</clustering>
</event>
<event>
10    4  0.2565852E-005  0.5305403E+03  0.7546771E-02  0.1062440E+00
         21   -1    0    0  501  502  0.00000000000E+00  0.00000000000E+00  0.80717439650E+03  0.80717439650E+03  0.00000000000E+00 0.  1.
          2   -1    0    0  503    0 -0.00000000000E+00 -0.00000000000E+00 -0.19673664238E+03  0.19673664238E+03  0.00000000000E+00 0. -1.
         24    2    1    2    0    0 -0.15910837708E+02 -0.63284578140E+02 -0.21742582023E+02  0.10603489697E+03  0.80700476548E+02 0.  0.
         23    2    1    2    0    0  0.20143395442E+03 -0.10382318549E+03  0.43648295569E+03  0.49963587668E+03  0.88112126429E+02 0.  0.
        -11    1    3    3    0    0  0.31975673377E+02 -0.22162226527E+02  0.10670202758E+01  0.38919744408E+02  0.00000000000E+00 0.  1.
         12    1    3    3    0    0 -0.47886511085E+02 -0.41122351612E+02 -0.22809602299E+02  0.67115152559E+02  0.00000000000E+00 0. -1.
        -11    1    4    4    0    0  0.13873804181E+02 -0.42680710763E+02  0.99556851857E+02  0.10920481796E+03  0.00000000000E+00 0. -1.
         11    1    4    4    0    0  0.18756015024E+03 -0.61142474726E+02  0.33692610383E+03  0.39043105872E+03  0.00000000000E+00 0.  1.
         21    1    1    2  503  502 -0.26510044888E+02  0.74706186848E+02  0.19909751763E+03  0.21429796629E+03  0.00000000000E+00 0.  1.
          1    1    1    2  501    0 -0.15901307183E+03  0.92401576781E+02 -0.34001371662E+01  0.18394229893E+03  0.00000000000E+00 0. -1.
<scales pt_clust_5="13000.00000" pt_clust_6="13000.00000" pt_clust_7="13000.00000" pt_clust_8="13000.00000" pt_clust_9="79.27040" pt_clust_10="13000.00000"></scales>
<clustering>
<clus scale="   79.270">  1  9  2 -1</clus>
<clus scale="   80.700">  5  6 -1 -1</clus>
<clus scale="   88.112">  7  8 -1 -1</clus>
<clus scale="  100.981">  2  5  1 -1</clus>
<clus scale="  186.249">  7 10 -1 -1</clus>
<clus scale="   79.270">  1  5  2 -1</clus>
</clustering>
</event>
<event>
10    4  0.2565852E-005  0.3168430E+03  0.7546771E-02  0.1124059E+00
          2   -1    0    0  503    0 -0.00000000000E+00  0.00000000000E+00  0.12830242291E+04  0.12830242291E+04  0.00000000000E+00 0. -1.
         21   -1    0    0  501  502  0.00000000000E+00 -0.00000000000E+00 -0.50153238835E+02  0.50153238835E+02  0.00000000000E+00 0.  1.
         24    2    1    2    0    0  0.45685706308E+02 -0.96585402513E+00  0.58047874299E+03  0.58786360338E+03  0.80869824246E+02 0.  0.
         23    2    1    2    0    0  0.65501959353E+02  0.71879870105E+02  0.13123836155E+03  0.18642661324E+03  0.89856286224E+02 0.  0.
        -11    1    3    3    0    0  0.12008747492E+02 -0.28795023991E+02  0.86457641008E+02  0.91914564197E+02  0.00000000000E+00 0.  1.
         12    1    3    3    0    0  0.33676958816E+02  0.27829169966E+02  0.49402110198E+03  0.49594903918E+03  0.00000000000E+00 0. -1.
        -11    1    4    4    0    0  0.71539441836E+02  0.13017727598E+02  0.64087462976E+02  0.96925517181E+02  0.00000000000E+00 0.  1.
         11    1    4    4    0    0 -0.60374824831E+01  0.58862142507E+02  0.67150898578E+02  0.89501096056E+02  0.00000000000E+00 0. -1.
         21    1    1    2  503  502  0.22896213899E+02  0.27257892121E+02  0.98665550252E+02  0.10489099151E+03  0.00000000000E+00 0. -1.
          1    1    1    2  501    0 -0.13408387956E+03 -0.98171908201E+02  0.42248833547E+03  0.45399625981E+03  0.00000000000E+00 0. -1.
<scales pt_clust_5="13000.00000" pt_clust_6="13000.00000" pt_clust_7="13000.00000" pt_clust_8="13000.00000" pt_clust_9="35.59818" pt_clust_10="13000.00000"></scales>
<clustering>
<clus scale="   35.598">  2  9  1 -1</clus>
<clus scale="   80.870">  5  6 -1 -1</clus>
<clus scale="   89.856">  7  8 -1 -1</clus>
<clus scale="   93.787">  1  5  2 -1</clus>
<clus scale="  131.868">  7 10 -1 -1</clus>
<clus scale="   35.598">  2  5  1 -1</clus>
</clustering>
</event>
<event>
10    4  0.2565852E-005  0.2145282E+03  0.7546771E-02  0.1162191E+00
         21   -1    0    0  503  502  0.00000000000E+00  0.00000000000E+00  0.22553894529E+03  0.22553894529E+03  0.00000000000E+00 0. -1.
          4   -1    0    0  502    0 -0.00000000000E+00 -0.00000000000E+00 -0.22720831941E+03  0.22720831941E+03  0.00000000000E+00 0. -1.
         24    2    1    2    0    0  0.66787702169E+02  0.20635094035E+02  0.21757045286E+02  0.10973468641E+03  0.81743061566E+02 0.  0.
         23    2    1    2    0    0  0.17943276460E+02  0.98669562751E+01 -0.49783425604E+02  0.10644690155E+03  0.91832648821E+02 0.  0.
        -11    1    3    3    0    0  0.51042887452E+01 -0.26473474176E+02 -0.54178839910E+01  0.27500037554E+02  0.00000000000E+00 0.  1.
         12    1    3    3    0    0  0.61683413424E+02  0.47108568211E+02  0.27174929277E+02  0.82234648851E+02  0.00000000000E+00 0. -1.
        -11    1    4    4    0    0  0.10583604998E+01  0.39757177512E+02  0.67171975259E+01  0.40334526566E+02  0.00000000000E+00 0. -1.
         11    1    4    4    0    0  0.16884915960E+02 -0.29890221237E+02 -0.56500623129E+02  0.66112374988E+02  0.00000000000E+00 0.  1.
         21    1    1    2  503  501  0.41699814638E+02 -0.85092907847E+00  0.84537848426E+02  0.94266889403E+02  0.00000000000E+00 0. -1.
          3    1    1    2  501    0 -0.12643079327E+03 -0.29651121231E+02 -0.58180842220E+02  0.14229878734E+03  0.00000000000E+00 0. -1.
<scales pt_clust_5="13000.00000" pt_clust_6="13000.00000" pt_clust_7="13000.00000" pt_clust_8="13000.00000" pt_clust_9="41.70850" pt_clust_10="13000.00000"></scales>
<clustering>
<clus scale="   41.708">  1  9  2 -1</clus>
<clus scale="   81.743">  5  6 -1 -1</clus>
<clus scale="   91.833">  7  8 -1 -1</clus>
<clus scale="  117.422">  7 10 -1 -1</clus>
<clus scale="  121.025">  2  5  1 -1</clus>
<clus scale="   41.708">  1  5  2 -1</clus>
</clustering>
</event>
<event>
10    4  0.2565852E-005  0.2233171E+03  0.7546771E-02  0.1136015E+00
         21   -1    0    0  501  502  0.00000000000E+00  0.00000000000E+00  0.15023222911E+03  0.15023222911E+03  0.00000000000E+00 0. -1.
          2   -1    0    0  503    0 -0.00000000000E+00 -0.00000000000E+00 -0.12718065716E+04  0.12718065716E+04  0.00000000000E+00 0. -1.
         24    2    1    2    0    0 -0.26378598941E+03  0.31924071014E+02 -0.33900631770E+03  0.43812366519E+03  0.80155274568E+02 0.  0.
         23    2    1    2    0    0  0.64683475818E+02  0.27334323593E+02 -0.34716008455E+03  0.36391356526E+03  0.83557413722E+02 0.  0.
        -11    1    3    3    0    0 -0.47969740234E+02  0.30571289080E+02 -0.40753699164E+02  0.69975450621E+02  0.00000000000E+00 0.  1.
         12    1    3    3    0    0 -0.21581624917E+03  0.13527819341E+01 -0.29825261854E+03  0.36814821457E+03  0.00000000000E+00 0. -1.
        -13    1    4    4    0    0 -0.10408666369E+02 -0.18454084791E+02 -0.65643582093E+02  0.68978064999E+02  0.00000000000E+00 0.  1.
         13    1    4    4    0    0  0.75092142187E+02  0.45788408384E+02 -0.28151650246E+03  0.29493550026E+03  0.00000000000E+00 0. -1.
         21    1    1    2  503  502  0.10676425929E+03 -0.84983818783E+02  0.34226140174E+02  0.14068505673E+03  0.00000000000E+00 0. -1.
          1    1    1    2  501    0  0.92338254296E+02  0.25725424176E+02 -0.46963408042E+03  0.47931651353E+03  0.00000000000E+00 0. -1.
<scales pt_clust_5="13000.00000" pt_clust_6="13000.00000" pt_clust_7="13000.00000" pt_clust_8="13000.00000" pt_clust_9="136.45826" pt_clust_10="13000.00000"></scales>
<clustering>
<clus scale="   80.155">  5  6 -1 -1</clus>
<clus scale="   83.557">  7  8 -1 -1</clus>
<clus scale="   95.855">  7 10 -1 -1</clus>
<clus scale="  136.458">  1  9  2 -1</clus>
<clus scale="  199.706">  2  5  1 -1</clus>
<clus scale="  136.458">  1  5  2 -1</clus>
</clustering>
</event>
<event>
10    4  0.2565852E-005  0.2554230E+03  0.7546771E-02  0.1147913E+00
          2   -1    0    0  502    0 -0.00000000000E+00  0.00000000000E+00  0.12753723504E+03  0.12753723504E+03  0.00000000000E+00 0. -1.
         21   -1    0    0  503  502  0.00000000000E+00 -0.00000000000E+00 -0.33684473178E+03  0.33684473178E+03  0.00000000000E+00 0. -1.
         24    2    1    2    0    0 -0.49439458282E+02  0.38997047819E+02 -0.72870652363E+02  0.12508713666E+03  0.79822490619E+02 0.  0.
         23    2    1    2    0    0 -0.24420263782E+02  0.43915552682E+02  0.21172897745E+02  0.10346143572E+03  0.87926401222E+02 0.  0.
        -13    1    3    3    0    0 -0.74914918508E+01 -0.22515083571E+02 -0.32953908949E+02  0.40608023263E+02  0.00000000000E+00 0.  1.
         14    1    3    3    0    0 -0.41947966431E+02  0.61512131390E+02 -0.39916743415E+02  0.84479113399E+02  0.00000000000E+00 0. -1.
        -13    1    4    4    0    0  0.17876612785E+02  0.45986569631E+02  0.33163853074E+02  0.59448961487E+02  0.00000000000E+00 0. -1.
         13    1    4    4    0    0 -0.42296876567E+02 -0.20710169486E+01 -0.11990955329E+02  0.44012474234E+02  0.00000000000E+00 0.  1.
         21    1    1    2  503  501  0.42495180342E+02  0.31128376994E+02 -0.25531611966E+02  0.58537846015E+02  0.00000000000E+00 0. -1.
          1    1    1    2  501    0  0.31364541722E+02 -0.11404097749E+03 -0.13207813015E+03  0.17729554842E+03  0.00000000000E+00 0. -1.
<scales pt_clust_5="13000.00000" pt_clust_6="13000.00000" pt_clust_7="13000.00000" pt_clust_8="13000.00000" pt_clust_9="52.67655" pt_clust_10="13000.00000"></scales>
<clustering>
<clus scale="   52.677">  2  9  1 -1</clus>
<clus scale="   79.822">  5  6 -1 -1</clus>
<clus scale="   87.926">  7  8 -1 -1</clus>
<clus scale="  100.269">  1  5  2 -1</clus>
<clus scale="   93.831">  7 10 -1 -1</clus>
<clus scale="   52.677">  2  5  1 -1</clus>
</clustering>
</event>
<event>
10    4  0.2565852E-005  0.2730921E+03  0.7546771E-02  0.1131474E+00
         21   -1    0    0  503  502  0.00000000000E+00  0.00000000000E+00  0.45409431152E+02  0.45409431152E+02  0.00000000000E+00 0. -1.
          2   -1    0    0  502    0 -0.00000000000E+00 -0.00000000000E+00 -0.10456487770E+04  0.10456487770E+04  0.00000000000E+00 0. -1.
         24    2    1    2    0    0 -0.98766010506E+00 -0.10307899065E+03 -0.24696278308E+03  0.27890417571E+03  0.78553607289E+02 0.  0.
         23    2    1    2    0    0 -0.42279324654E+02 -0.17222895556E+02 -0.11622614983E+03  0.15510133556E+03  0.91998570435E+02 0.  0.
        -13    1    3    3    0    0 -0.25594152505E+02 -0.26435181299E+01 -0.59207460052E+02  0.64556735949E+02  0.00000000000E+00 0.  1.
         14    1    3    3    0    0  0.24606492400E+02 -0.10043547252E+03 -0.18775532303E+03  0.21434743976E+03  0.00000000000E+00 0. -1.
        -11    1    4    4    0    0 -0.55172818533E+02 -0.42862908719E+02 -0.60505062790E+02  0.92423652123E+02  0.00000000000E+00 0. -1.
         11    1    4    4    0    0  0.12893493879E+02  0.25640013163E+02 -0.55721087042E+02  0.62677683433E+02  0.00000000000E+00 0.  1.
         21    1    1    2  503  501  0.22789558230E+01  0.24281143078E+02 -0.20895665774E+02  0.32115360763E+02  0.00000000000E+00 0. -1.
          1    1    1    2  501    0  0.40988028936E+02  0.96020743127E+02 -0.61615474716E+03  0.62493733611E+03  0.00000000000E+00 0. -1.
<scales pt_clust_5="13000.00000" pt_clust_6="13000.00000" pt_clust_7="13000.00000" pt_clust_8="13000.00000" pt_clust_9="24.38786" pt_clust_10="13000.00000"></scales>
<clustering>
<clus scale="   24.388">  1  9  2 -1</clus>
<clus scale="   78.554">  5  6 -1 -1</clus>
<clus scale="   91.999">  7  8 -1 -1</clus>
<clus scale="  106.969">  7 10 -1 -1</clus>
<clus scale="  121.993">  2  5  1 -1</clus>
<clus scale="   24.388">  1  5  2 -1</clus>
</clustering>
</event>
<event>
10    4  0.2565852E-005  0.2859547E+03  0.7546771E-02  0.1116140E+00
         21   -1    0    0  503  502  0.00000000000E+00  0.00000000000E+00  0.46696834138E+02  0.46696834138E+02  0.00000000000E+00 0.  1.
          2   -1    0    0  502    0 -0.00000000000E+00 -0.00000000000E+00 -0.12559151001E+04  0.12559151001E+04  0.00000000000E+00 0. -1.
         24    2    1    2    0    0  0.12028481376E+03  0.37773452135E+02 -0.45156110129E+03  0.47574585398E+03  0.80817196609E+02 0.  0.
         23    2    1    2    0    0  0.36041454163E+02  0.17716689173E+02 -0.16997062420E+03  0.19616266454E+03  0.89313550919E+02 0.  0.
        -11    1    3    3    0    0  0.72739840009E+02  0.41517309265E+02 -0.38412254315E+03  0.39314742712E+03  0.00000000000E+00 0.  1.
         12    1    3    3    0    0  0.47544973751E+02 -0.37438571302E+01 -0.67438558141E+02  0.82598426857E+02  0.00000000000E+00 0. -1.
        -13    1    4    4    0    0 -0.23748042064E+02  0.19830107451E+02 -0.26567906276E+02  0.40780587383E+02  0.00000000000E+00 0. -1.
         13    1    4    4    0    0  0.59789496228E+02 -0.21134182774E+01 -0.14340271792E+03  0.15538207716E+03  0.00000000000E+00 0.  1.
         21    1    1    2  503  501  0.27280594893E+02 -0.11887875622E+02 -0.31318341249E+02  0.43201746991E+02  0.00000000000E+00 0.  1.
          1    1    1    2  501    0 -0.18360686282E+03 -0.43602265686E+02 -0.55636819917E+03  0.58750166868E+03  0.00000000000E+00 0. -1.
<scales pt_clust_5="13000.00000" pt_clust_6="13000.00000" pt_clust_7="13000.00000" pt_clust_8="13000.00000" pt_clust_9="29.75823" pt_clust_10="13000.00000"></scales>
<clustering>
<clus scale="   29.758">  1  9  2 -1</clus>
<clus scale="   80.817">  5  6 -1 -1</clus>
<clus scale="   89.314">  7  8 -1 -1</clus>
<clus scale="  155.517">  2  5  1 -1</clus>
<clus scale="   85.526">  7 10 -1 -1</clus>
<clus scale="   29.758">  1  5  2 -1</clus>
</clustering>
</event>
<event>
10    4  0.2565852E-005  0.1666550E+03  0.7546771E-02  0.1199644E+00
          2   -1    0    0  502    0 -0.00000000000E+00  0.00000000000E+00  0.21974643629E+03  0.21974643629E+03  0.00000000000E+00 0. -1.
         21   -1    0    0  503  502  0.00000000000E+00 -0.00000000000E+00 -0.22466550932E+03  0.22466550932E+03  0.00000000000E+00 0. -1.
         24    2    1    2    0    0  0.50353053763E+02  0.46292861717E+02  0.65930448287E+02  0.12568059847E+03  0.82282013541E+02 0.  0.
         23    2    1    2    0    0 -0.96578039282E+01 -0.32773155327E+02  0.45305816948E+02  0.12209204283E+03  0.10810410255E+03 0.  0.
        -13    1    3    3    0    0  0.26335612095E+02 -0.11292853519E+02 -0.72049405168E+01  0.29546644020E+02  0.00000000000E+00 0.  1.
         14    1    3    3    0    0  0.24017441669E+02  0.57585715236E+02  0.73135388804E+02  0.96133954454E+02  0.00000000000E+00 0. -1.
        -13    1    4    4    0    0 -0.26540403541E+02  0.88324201970E+01 -0.25762697984E+02  0.38027901258E+02  0.00000000000E+00 0. -1.
         13    1    4    4    0    0  0.16882599613E+02 -0.41605575524E+02  0.71068514932E+02  0.84064141577E+02  0.00000000000E+00 0.  1.
         21    1    1    2  503  501  0.84778889930E+01  0.20348381227E+02 -0.13282994092E+03  0.13464666511E+03  0.00000000000E+00 0. -1.
          1    1    1    2  501    0 -0.49173138828E+02 -0.33868087617E+02  0.16674602656E+02  0.61992639198E+02  0.00000000000E+00 0. -1.
<scales pt_clust_5="13000.00000" pt_clust_6="13000.00000" pt_clust_7="13000.00000" pt_clust_8="13000.00000" pt_clust_9="22.04385" pt_clust_10="13000.00000"></scales>
<clustering>
<clus scale="   22.044">  2  9  1 -1</clus>
<clus scale="   82.282">  5  6 -1 -1</clus>
<clus scale="  108.104">  7  8 -1 -1</clus>
<clus scale="   55.172">  7 10 -1 -1</clus>
<clus scale="  111.359">  1  5  2 -1</clus>
<clus scale="   22.044">  2  5  1 -1</clus>
</clustering>
</event>
<event>
10    4  0.2565852E-005  0.4073798E+03  0.7546771E-02  0.1044920E+00
          2   -1    0    0  503    0 -0.00000000000E+00  0.00000000000E+00  0.11494006627E+04  0.11494006627E+04  0.00000000000E+00 0. -1.
         21   -1    0    0  501  502  0.00000000000E+00 -0.00000000000E+00 -0.59118778676E+03  0.59118778676E+03  0.00000000000E+00 0. -1.
         24    2    1    2    0    0 -0.17195113419E+03 -0.29960503419E+03  0.75840341080E+03  0.83733669018E+03  0.81404116263E+02 0.  0.
         23    2    1    2    0    0  0.59222676013E+02  0.84183967541E+02  0.10909085994E+03  0.17568889093E+03  0.91495928479E+02 0.  0.
        -13    1    3    3    0    0 -0.81816702150E+02 -0.10489945414E+03  0.21159268443E+03  0.24993865714E+03  0.00000000000E+00 0.  1.
         14    1    3    3    0    0 -0.90134432044E+02 -0.19470558005E+03  0.54681072637E+03  0.58739803304E+03  0.00000000000E+00 0. -1.
        -13    1    4    4    0    0  0.50230679706E+00  0.57767731851E+02  0.92731895985E+02  0.10925460031E+03  0.00000000000E+00 0.  1.
         13    1    4    4    0    0  0.58720369216E+02  0.26416235690E+02  0.16358963959E+02  0.66434290624E+02  0.00000000000E+00 0. -1.
         21    1    1    2  503  502  0.66045840395E+01 -0.66129433053E+02 -0.40608488204E+03  0.41148712479E+03  0.00000000000E+00 0. -1.
          1    1    1    2  501    0  0.10612387414E+03  0.28155049970E+03  0.96803487282E+02  0.31607574360E+03  0.00000000000E+00 0. -1.
<scales pt_clust_5="13000.00000" pt_clust_6="13000.00000" pt_clust_7="13000.00000" pt_clust_8="13000.00000" pt_clust_9="66.45843" pt_clust_10="13000.00000"></scales>
<clustering>
<clus scale="   66.458">  2  9  1 -1</clus>
<clus scale="   81.404">  5  6 -1 -1</clus>
<clus scale="   91.496">  7  8 -1 -1</clus>
<clus scale="  265.686">  7 10 -1 -1</clus>
<clus scale="  366.396">  1  5  2 -1</clus>
<clus scale="   66.458">  2  5  1 -1</clus>
</clustering>
</event>
<event>
10    4  0.2565852E-005  0.3004211E+03  0.7546771E-02  0.1109554E+00
          2   -1    0    0  502    0 -0.00000000000E+00  0.00000000000E+00  0.65593187494E+03  0.65593187494E+03  0.00000000000E+00 0. -1.
         21   -1    0    0  503  502  0.00000000000E+00 -0.00000000000E+00 -0.13615515502E+03  0.13615515502E+03  0.00000000000E+00 0.  1.
         24    2    1    2    0    0 -0.11226103079E+03 -0.98798507288E+01  0.15503002870E+02  0.14060019075E+03  0.82631229298E+02 0.  0.
         23    2    1    2    0    0  0.25214611310E+02 -0.10451447446E+03  0.18068760245E+03  0.23382945734E+03  0.10231888118E+03 0.  0.
        -11    1    3    3    0    0 -0.95325477068E+02 -0.41223281302E+02  0.15266835907E+02  0.10497324315E+03  0.00000000000E+00 0.  1.
         12    1    3    3    0    0 -0.16935553724E+02  0.31343430573E+02  0.23616696291E+00  0.35626947594E+02  0.00000000000E+00 0. -1.
        -11    1    4    4    0    0  0.36623596539E+02 -0.16793711210E+02  0.98944034485E+01  0.41487537638E+02  0.00000000000E+00 0.  1.
         11    1    4    4    0    0 -0.11408985228E+02 -0.87720763250E+02  0.17079319900E+03  0.19234191970E+03  0.00000000000E+00 0. -1.
         21    1    1    2  503  501 -0.38087418345E+02  0.31861988187E+02 -0.11146782471E+02  0.50892911951E+02  0.00000000000E+00 0.  1.
          1    1    1    2  501    0  0.12513383783E+03  0.82532337002E+02  0.33473289707E+03  0.36676446993E+03  0.00000000000E+00 0. -1.
<scales pt_clust_5="13000.00000" pt_clust_6="13000.00000" pt_clust_7="13000.00000" pt_clust_8="13000.00000" pt_clust_9="49.65720" pt_clust_10="13000.00000"></scales>
<clustering>
<clus scale="   49.657">  2  9  1 -1</clus>
<clus scale="   82.631">  5  6 -1 -1</clus>
<clus scale="  102.319">  7  8 -1 -1</clus>
<clus scale="  147.907">  7 10 -1 -1</clus>
<clus scale="  158.474">  1  5  2 -1</clus>
<clus scale="   49.657">  2  5  1 -1</clus>
</clustering>
</event>
<event>
10    4  0.2565852E-005  0.3685429E+03  0.7546771E-02  0.1096537E+00
          2   -1    0    0  503    0 -0.00000000000E+00  0.00000000000E+00  0.81838503469E+02  0.81838503469E+02  0.00000000000E+00 0. -1.
         21   -1    0    0  501  502  0.00000000000E+00 -0.00000000000E+00 -0.12954575622E+04  0.12954575622E+04  0.00000000000E+00 0. -1.
         24    2    1    2    0    0 -0.68526101039E+02  0.57761684314E+02 -0.62132483814E+02  0.13619752669E+03  0.81590943330E+02 0.  0.
         23    2    1    2    0    0  0.13924754465E+03 -0.34606430593E+02 -0.65193673215E+03  0.67442348733E+03  0.96114794938E+02 0.  0.
        -11    1    3    3    0    0 -0.79605134715E+01 -0.19520899695E+02 -0.20956873212E+02  0.29725844554E+02  0.00000000000E+00 0.  1.
         12    1    3    3    0    0 -0.60565587568E+02  0.77282584009E+02 -0.41175610602E+02  0.10647168214E+03  0.00000000000E+00 0. -1.
        -13    1    4    4    0    0 -0.38996932803E+01 -0.29132538825E+02 -0.11761501857E+03  0.12123202968E+03  0.00000000000E+00 0.  1.
         13    1    4    4    0    0  0.14314723793E+03 -0.54738917673E+01 -0.53432171358E+03  0.55319145766E+03  0.00000000000E+00 0. -1.
         21    1    1    2  503  502  0.52957554358E+02  0.37627905268E+02 -0.37606704358E+03  0.38163697814E+03  0.00000000000E+00 0. -1.
          1    1    1    2  501    0 -0.12367899797E+03 -0.60783158989E+02 -0.12348279922E+03  0.18503807354E+03  0.00000000000E+00 0. -1.
<scales pt_clust_5="13000.00000" pt_clust_6="13000.00000" pt_clust_7="13000.00000" pt_clust_8="13000.00000" pt_clust_9="64.96431" pt_clust_10="13000.00000"></scales>
<clustering>
<clus scale="   64.964">  2  9  1 -1</clus>
<clus scale="   81.591">  5  6 -1 -1</clus>
<clus scale="   96.115">  7  8 -1 -1</clus>
<clus scale="  120.099">  1  5  2 -1</clus>
<clus scale="  153.665">  7 10 -1 -1</clus>
<clus scale="   64.964">  2  5  1 -1</clus>
</clustering>
</event>
<event>
10    4  0.2565852E-005  0.3090525E+03  0.7546771E-02  0.1128199E+00
         21   -1    0    0  503  502  0.00000000000E+00  0.00000000000E+00  0.21674607771E+03  0.21674607771E+03  0.00000000000E+00 0. -1.
          2   -1    0    0  502    0 -0.00000000000E+00 -0.00000000000E+00 -0.37482984804E+03  0.37482984804E+03  0.00000000000E+00 0. -1.
         24    2    1    2    0    0  0.68353738318E+01  0.26869457553E+02  0.21357022022E+02  0.88339847789E+02  0.81111751510E+02 0.  0.
         23    2    1    2    0    0 -0.10464502594E+03  0.44521392137E+02 -0.79669496026E+02  0.16580068685E+03  0.90608516989E+02 0.  0.
        -11    1    3    3    0    0  0.19265226599E+02 -0.21893907022E+02  0.24258391933E+02  0.37933648648E+02  0.00000000000E+00 0.  1.
         12    1    3    3    0    0 -0.12429852767E+02  0.48763364575E+02 -0.29013699109E+01  0.50406199141E+02  0.00000000000E+00 0. -1.
        -11    1    4    4    0    0  0.30855066370E+01  0.33538608069E+02 -0.35255241485E+02  0.48757467475E+02  0.00000000000E+00 0.  1.
         11    1    4    4    0    0 -0.10773053258E+03  0.10982784068E+02 -0.44414254541E+02  0.11704321937E+03  0.00000000000E+00 0. -1.
         21    1    1    2  503  501 -0.20654506676E+02  0.34428962370E+02  0.84859544090E+02  0.93878135469E+02  0.00000000000E+00 0. -1.
          1    1    1    2  501    0  0.11846415878E+03 -0.10581981206E+03 -0.18463084042E+03  0.24355725564E+03  0.00000000000E+00 0. -1.
<scales pt_clust_5="13000.00000" pt_clust_6="13000.00000" pt_clust_7="13000.00000" pt_clust_8="13000.00000" pt_clust_9="40.14925" pt_clust_10="13000.00000"></scales>
<clustering>
<clus scale="   40.149">  1  9  2 -1</clus>
<clus scale="   81.112">  5  6 -1 -1</clus>
<clus scale="   90.609">  7  8 -1 -1</clus>
<clus scale="   91.224">  2  5  1 -1</clus>
<clus scale="  134.551">  7 10 -1 -1</clus>
<clus scale="   40.149">  1  5  2 -1</clus>
</clustering>
</event>
<event>
10    4  0.2565852E-005  0.2490546E+03  0.7546771E-02  0.1152107E+00
          2   -1    0    0  502    0 -0.00000000000E+00  0.00000000000E+00  0.10842722985E+04  0.10842722985E+04  0.00000000000E+00 0. -1.
         21   -1    0    0  503  502  0.00000000000E+00 -0.00000000000E+00 -0.91768628658E+02  0.91768628658E+02  0.00000000000E+00 0.  1.
         24    2    1    2    0    0  0.31785905637E+02 -0.44610386305E+02  0.41687684035E+03  0.42822451565E+03  0.81175768651E+02 0.  0.
         23    2    1    2    0    0 -0.54215675235E+01  0.84361889129E+02  0.15189225874E+03  0.19544378015E+03  0.89334714438E+02 0.  0.
        -13    1    3    3    0    0 -0.27014541497E+02 -0.11681519912E+02  0.99005930524E+02  0.10328803241E+03  0.00000000000E+00 0.  1.
         14    1    3    3    0    0  0.58800447134E+02 -0.32928866393E+02  0.31787090983E+03  0.32493648324E+03  0.00000000000E+00 0. -1.
        -11    1    4    4    0    0  0.27916471925E+02  0.72862969883E+02  0.64606645502E+02  0.10130330907E+03  0.00000000000E+00 0.  1.
         11    1    4    4    0    0 -0.33338039449E+02  0.11498919246E+02  0.87285613237E+02  0.94140471086E+02  0.00000000000E+00 0. -1.
         21    1    1    2  503  501 -0.52503762696E+02 -0.18145287287E+03  0.14335355315E+03  0.23713294029E+03  0.00000000000E+00 0.  1.
          1    1    1    2  501    0  0.26139424583E+02  0.14170137005E+03  0.28038101756E+03  0.31523969103E+03  0.00000000000E+00 0. -1.
<scales pt_clust_5="13000.00000" pt_clust_6="13000.00000" pt_clust_7="13000.00000" pt_clust_8="13000.00000" pt_clust_9="199.05927" pt_clust_10="13000.00000"></scales>
<clustering>
<clus scale="   81.176">  5  6 -1 -1</clus>
<clus scale="   89.335">  7  8 -1 -1</clus>
<clus scale="   97.928">  1  5  2 -1</clus>
<clus scale="  128.173">  7 10 -1 -1</clus>
<clus scale="  199.059">  2  9  1 -1</clus>
<clus scale="  199.059">  2  5  1 -1</clus>
</clustering>
</event>
<event>
10    4  0.2565852E-005  0.4850008E+03  0.7546771E-02  0.1077545E+00
          2   -1    0    0  502    0 -0.00000000000E+00  0.00000000000E+00  0.23257333618E+03  0.23257333618E+03  0.00000000000E+00 0. -1.
         21   -1    0    0  503  502  0.00000000000E+00 -0.00000000000E+00 -0.54749286183E+03  0.54749286183E+03  0.00000000000E+00 0. -1.
         24    2    1    2    0    0 -0.35618604938E+02  0.26187330502E+02 -0.18064729523E+03  0.20215635138E+03  0.79241932285E+02 0.  0.
         23    2    1    2    0    0 -0.14646605270E+03 -0.46849680967E+02 -0.18753106948E+03  0.25878127025E+03  0.90292007462E+02 0.  0.
        -11    1    3    3    0    0 -0.26918717219E+02 -0.22910396553E+02 -0.11105316712E+03  0.11654316597E+03  0.00000000000E+00 0.  1.
         12    1    3    3    0    0 -0.86998877189E+01  0.49097727055E+02 -0.69594128103E+02  0.85613185402E+02  0.00000000000E+00 0. -1.
        -13    1    4    4    0    0 -0.65411366237E+02 -0.14766406137E+02 -0.14915301472E+03  0.16353383560E+03  0.00000000000E+00 0. -1.
         13    1    4    4    0    0 -0.81054686460E+02 -0.32083274830E+02 -0.38378054754E+02  0.95247434651E+02  0.00000000000E+00 0.  1.
         21    1    1    2  503  501  0.87030344318E+01 -0.19780950147E+02 -0.88781365106E+02  0.91373735762E+02  0.00000000000E+00 0. -1.
          1    1    1    2  501    0  0.17338162320E+03  0.40443300612E+02  0.14204020416E+03  0.22775484062E+03  0.00000000000E+00 0. -1.
<scales pt_clust_5="13000.00000" pt_clust_6="13000.00000" pt_clust_7="13000.00000" pt_clust_8="13000.00000" pt_clust_9="21.61085" pt_clust_10="13000.00000"></scales>
<clustering>
<clus scale="   21.611">  2  9  1 -1</clus>
<clus scale="   79.242">  5  6 -1 -1</clus>
<clus scale="   87.307">  1  5  2 -1</clus>
<clus scale="   90.292">  7  8 -1 -1</clus>
<clus scale="  156.864">  7 10 -1 -1</clus>
<clus scale="   21.611">  2  5  1 -1</clus>
</clustering>
</event>
<event>
10    4  0.2565852E-005  0.4370975E+03  0.7546771E-02  0.1050326E+00
         21   -1    0    0  503  502  0.00000000000E+00  0.00000000000E+00  0.39044517818E+03  0.39044517818E+03  0.00000000000E+00 0. -1.
          4   -1    0    0  502    0 -0.00000000000E+00 -0.00000000000E+00 -0.82196384477E+03  0.82196384477E+03  0.00000000000E+00 0. -1.
         24    2    1    2    0    0 -0.18769527845E+03 -0.12606594645E+03  0.19242167040E+03  0.30735987526E+03  0.79510082825E+02 0.  0.
         23    2    1    2    0    0  0.25924796441E+03  0.19689875224E+03 -0.64273318390E+03  0.72625850527E+03  0.91470460298E+02 0.  0.
        -11    1    3    3    0    0 -0.34705296187E+02 -0.58400427286E+02  0.30231632804E+02  0.74357374299E+02  0.00000000000E+00 0.  1.
         12    1    3    3    0    0 -0.15298998226E+03 -0.67665519164E+02  0.16219003760E+03  0.23300250096E+03  0.00000000000E+00 0. -1.
        -11    1    4    4    0    0  0.89492247499E+02  0.60065716343E+02 -0.31226455316E+03  0.33034210116E+03  0.00000000000E+00 0.  1.
         11    1    4    4    0    0  0.16975571691E+03  0.13683303590E+03 -0.33046863075E+03  0.39591640411E+03  0.00000000000E+00 0. -1.
         21    1    1    2  503  501  0.24055496314E+00 -0.32345437557E+02  0.73746525087E+02  0.80528474217E+02  0.00000000000E+00 0. -1.
          3    1    1    2  501    0 -0.71793240922E+02 -0.38487368237E+02 -0.54953678177E+02  0.98262168209E+02  0.00000000000E+00 0. -1.
<scales pt_clust_5="13000.00000" pt_clust_6="13000.00000" pt_clust_7="13000.00000" pt_clust_8="13000.00000" pt_clust_9="32.34633" pt_clust_10="13000.00000"></scales>
<clustering>
<clus scale="   32.346">  1  9  2 -1</clus>
<clus scale="   79.510">  5  6 -1 -1</clus>
<clus scale="   91.470">  7  8 -1 -1</clus>
<clus scale="   82.524">  7 10 -1 -1</clus>
<clus scale="  254.052">  2  5  1 -1</clus>
<clus scale="   32.346">  1  5  2 -1</clus>
</clustering>
</event>
<event>
10    4  0.2565852E-005  0.2791418E+03  0.7546771E-02  0.1143668E+00
         21   -1    0    0  503  502  0.00000000000E+00  0.00000000000E+00  0.55438601768E+02  0.55438601768E+02  0.00000000000E+00 0. -1.
          2   -1    0    0  502    0 -0.00000000000E+00 -0.00000000000E+00 -0.12136773491E+04  0.12136773491E+04  0.00000000000E+00 0. -1.
         24    2    1    2    0    0  0.31731041314E+02 -0.15124304728E+02 -0.50117393473E+03  0.50872208649E+03  0.79920240588E+02 0.  0.
         23    2    1    2    0    0  0.23204618755E+02  0.60847537790E+02 -0.98348961337E+02  0.15004536749E+03  0.92737354507E+02 0.  0.
        -13    1    3    3    0    0  0.88010429809E+01 -0.19495965308E+02 -0.29332205893E+02  0.36303296316E+02  0.00000000000E+00 0.  1.
         14    1    3    3    0    0  0.22929998333E+02  0.43716605797E+01 -0.47184172883E+03  0.47241879017E+03  0.00000000000E+00 0. -1.
        -11    1    4    4    0    0  0.47630890529E+02  0.71835315048E+02 -0.79843296360E+02  0.11749028128E+03  0.00000000000E+00 0. -1.
         11    1    4    4    0    0 -0.24426271774E+02 -0.10987777258E+02 -0.18505664978E+02  0.32555086209E+02  0.00000000000E+00 0.  1.
         21    1    1    2  503  501 -0.43764876021E+02  0.31745200197E+02 -0.86638171098E+01  0.54755674003E+02  0.00000000000E+00 0.  1.
          1    1    1    2  501    0 -0.11170784049E+02 -0.77468433259E+02 -0.55005203419E+03  0.55559282292E+03  0.00000000000E+00 0. -1.
<scales pt_clust_5="13000.00000" pt_clust_6="13000.00000" pt_clust_7="13000.00000" pt_clust_8="13000.00000" pt_clust_9="54.06591" pt_clust_10="13000.00000"></scales>
<clustering>
<clus scale="   54.066">  1  9  2 -1</clus>
<clus scale="   79.920">  5  6 -1 -1</clus>
<clus scale="   85.012">  2  5  1 -1</clus>
<clus scale="   92.737">  7  8 -1 -1</clus>
<clus scale="   83.188">  7 10 -1 -1</clus>
<clus scale="   54.066">  1  5  2 -1</clus>
</clustering>
</event>
<event>
10    4  0.2565852E-005  0.2725287E+03  0.7546771E-02  0.1133707E+00
          2   -1    0    0  503    0 -0.00000000000E+00  0.00000000000E+00  0.48593081092E+03  0.48593081092E+03  0.00000000000E+00 0. -1.
         21   -1    0    0  501  502  0.00000000000E+00 -0.00000000000E+00 -0.24882687904E+03  0.24882687904E+03  0.00000000000E+00 0. -1.
         24    2    1    2    0    0  0.67911282576E+02 -0.53801845297E+02  0.25061921460E+03  0.27711722396E+03  0.80482198209E+02 0.  0.
         23    2    1    2    0    0 -0.92760718342E+02  0.27427267789E+02 -0.18083225886E+02  0.13546048568E+03  0.93089925533E+02 0.  0.
        -11    1    3    3    0    0 -0.17708018927E+02 -0.12804639739E+02  0.65976597578E+02  0.69501396828E+02  0.00000000000E+00 0.  1.
         12    1    3    3    0    0  0.85619301504E+02 -0.40997205558E+02  0.18464261703E+03  0.20761582713E+03  0.00000000000E+00 0. -1.
        -11    1    4    4    0    0 -0.79285380359E+02 -0.18869569919E+02 -0.28109137427E+02  0.86211111897E+02  0.00000000000E+00 0. -1.
         11    1    4    4    0    0 -0.13475337983E+02  0.46296837708E+02  0.10025911541E+02  0.49249373781E+02  0.00000000000E+00 0.  1.
         21    1    1    2  503  502 -0.23316318620E+02  0.27035645308E+01 -0.15348210909E+03  0.15526660228E+03  0.00000000000E+00 0. -1.
          1    1    1    2  501    0  0.48165754386E+02  0.23671012978E+02  0.15805005224E+03  0.16691337803E+03  0.00000000000E+00 0. -1.
<scales pt_clust_5="13000.00000" pt_clust_6="13000.00000" pt_clust_7="13000.00000" pt_clust_8="13000.00000" pt_clust_9="23.47254" pt_clust_10="13000.00000"></scales>
<clustering>
<clus scale="   23.473">  2  9  1 -1</clus>
<clus scale="   80.482">  5  6 -1 -1</clus>
<clus scale="   93.090">  7  8 -1 -1</clus>
<clus scale="   52.746">  7 10 -1 -1</clus>
<clus scale="  116.232">  1  5  2 -1</clus>
<clus scale="   23.473">  2  5  1 -1</clus>
</clustering>
</event>
<event>
10    4  0.2565852E-005  0.1199435E+04  0.7546771E-02  0.9825649E-01
         21   -1    0    0  501  502  0.00000000000E+00  0.00000000000E+00  0.12955187470E+04  0.12955187470E+04  0.00000000000E+00 0. -1.
          2   -1    0    0  503    0 -0.00000000000E+00 -0.00000000000E+00 -0.35819967151E+03  0.35819967151E+03  0.00000000000E+00 0. -1.
         24    2    1    2    0    0  0.65863392608E+02 -0.89901674542E+01  0.18292743891E+03  0.20811492391E+03  0.73692360881E+02 0.  0.
         23    2    1    2    0    0  0.56448445944E+03 -0.91959116243E+02  0.35446751393E+03  0.67934790101E+03  0.93633157425E+02 0.  0.
        -13    1    3    3    0    0  0.52325679962E+02  0.20581489269E+02  0.15622094793E+03  0.16603180134E+03  0.00000000000E+00 0.  1.
         14    1    3    3    0    0  0.13537712646E+02 -0.29571656723E+02  0.26706490981E+02  0.42083122574E+02  0.00000000000E+00 0. -1.
        -11    1    4    4    0    0  0.10742432896E+03 -0.52731429140E+02  0.90940903111E+02  0.15030248810E+03  0.00000000000E+00 0.  1.
         11    1    4    4    0    0  0.45706013048E+03 -0.39227687103E+02  0.26352661082E+03  0.52904541291E+03  0.00000000000E+00 0. -1.
         21    1    1    2  503  502 -0.17609650644E+02  0.13578103492E+02  0.51246180197E+02  0.55862650089E+02  0.00000000000E+00 0. -1.
          1    1    1    2  501    0 -0.61273820140E+03  0.87371180205E+02  0.34867794241E+03  0.71039294345E+03  0.00000000000E+00 0. -1.
<scales pt_clust_5="13000.00000" pt_clust_6="13000.00000" pt_clust_7="13000.00000" pt_clust_8="13000.00000" pt_clust_9="22.23656" pt_clust_10="13000.00000"></scales>
<clustering>
<clus scale="   22.237">  1  9  2 -1</clus>
<clus scale="   73.692">  5  6 -1 -1</clus>
<clus scale="   93.633">  7  8 -1 -1</clus>
<clus scale="   97.252">  2  5  1 -1</clus>
<clus scale="  592.974">  7 10 -1 -1</clus>
<clus scale="   22.237">  1  5  2 -1</clus>
</clustering>
</event>
<event>
10    4  0.2565852E-005  0.6291982E+03  0.7546771E-02  0.1048372E+00
          2   -1    0    0  503    0 -0.00000000000E+00  0.00000000000E+00  0.23175344049E+04  0.23175344049E+04  0.00000000000E+00 0. -1.
         21   -1    0    0  501  502  0.00000000000E+00 -0.00000000000E+00 -0.62510376195E+02  0.62510376195E+02  0.00000000000E+00 0. -1.
         24    2    1    2    0    0  0.26453534165E+02  0.34587721884E+02  0.17230713814E+03  0.19480810403E+03  0.79776861102E+02 0.  0.
         23    2    1    2    0    0  0.16777249129E+03  0.23429566024E+03  0.11341723773E+04  0.11737318271E+04  0.90869990897E+02 0.  0.
        -11    1    3    3    0    0 -0.28754057249E+02  0.12015035070E+02  0.63051174647E+02  0.70332122820E+02  0.00000000000E+00 0.  1.
         12    1    3    3    0    0  0.55207591414E+02  0.22572686814E+02  0.10925596349E+03  0.12447598121E+03  0.00000000000E+00 0. -1.
        -13    1    4    4    0    0  0.12915013914E+03  0.21907341333E+03  0.10429547969E+04  0.10735118198E+04  0.00000000000E+00 0. -1.
         13    1    4    4    0    0  0.38622352158E+02  0.15222246910E+02  0.91217580390E+02  0.10022000728E+03  0.00000000000E+00 0.  1.
         21    1    1    2  503  502  0.82132215839E+01 -0.18612663568E+02  0.19130958006E+02  0.27926364033E+02  0.00000000000E+00 0.  1.
          1    1    1    2  501    0 -0.20243924704E+03 -0.25027071856E+03  0.92941355529E+03  0.98357848598E+03  0.00000000000E+00 0. -1.
<scales pt_clust_5="13000.00000" pt_clust_6="13000.00000" pt_clust_7="13000.00000" pt_clust_8="13000.00000" pt_clust_9="20.34424" pt_clust_10="13000.00000"></scales>
<clustering>
<clus scale="   20.344">  2  9  1 -1</clus>
<clus scale="   79.777">  5  6 -1 -1</clus>
<clus scale="   90.060">  1  5  2 -1</clus>
<clus scale="   90.870">  7  8 -1 -1</clus>
<clus scale="  306.938">  7 10 -1 -1</clus>
<clus scale="   20.344">  2  5  1 -1</clus>
</clustering>
</event>
<event>
10    4  0.2565852E-005  0.2442631E+03  0.7546771E-02  0.1135822E+00
         21   -1    0    0  503  502  0.00000000000E+00  0.00000000000E+00  0.32060526117E+03  0.32060526117E+03  0.00000000000E+00 0. -1.
          4   -1    0    0  502    0 -0.00000000000E+00 -0.00000000000E+00 -0.25097728968E+03  0.25097728968E+03  0.00000000000E+00 0. -1.
         24    2    1    2    0    0 -0.14928892441E+03 -0.68824934260E+02  0.10202307348E+03  0.21201940017E+03  0.86714843027E+02 0.  0.
         23    2    1    2    0    0 -0.19170565344E+02  0.38181679051E+02  0.68796368969E+02  0.12386639015E+03  0.93726149155E+02 0.  0.
        -11    1    3    3    0    0 -0.25704752976E+02  0.18900127082E+02  0.31588265564E+02  0.44897301151E+02  0.00000000000E+00 0.  1.
         12    1    3    3    0    0 -0.12358417143E+03 -0.87725061341E+02  0.70434807911E+02  0.16712209902E+03  0.00000000000E+00 0. -1.
        -13    1    4    4    0    0 -0.15831699964E+02 -0.30067101887E+02  0.16239484206E+02  0.37661574408E+02  0.00000000000E+00 0.  1.
         13    1    4    4    0    0 -0.33388653802E+01  0.68248780938E+02  0.52556884763E+02  0.86204815745E+02  0.00000000000E+00 0. -1.
         21    1    1    2  503  501  0.10914477037E+03 -0.39891639440E+02 -0.32233141649E+02  0.12059394354E+03  0.00000000000E+00 0. -1.
          3    1    1    2  501    0  0.59314719379E+02  0.70534894648E+02 -0.68958329312E+02  0.11510281699E+03  0.00000000000E+00 0. -1.
<scales pt_clust_5="13000.00000" pt_clust_6="13000.00000" pt_clust_7="13000.00000" pt_clust_8="13000.00000" pt_clust_9="116.20644" pt_clust_10="13000.00000"></scales>
<clustering>
<clus scale="   86.715">  5  6 -1 -1</clus>
<clus scale="   93.726">  7  8 -1 -1</clus>
<clus scale="   92.160">  7 10 -1 -1</clus>
<clus scale="  116.206">  1  9  2 -1</clus>
<clus scale="  153.325">  2  5  1 -1</clus>
<clus scale="  116.206">  1  5  2 -1</clus>
</clustering>
</event>
<event>
10    4  0.2565852E-005  0.4234429E+03  0.7546771E-02  0.1052258E+00
          2   -1    0    0  503    0 -0.00000000000E+00  0.00000000000E+00  0.28594196515E+04  0.28594196515E+04  0.00000000000E+00 0. -1.
         21   -1    0    0  501  502  0.00000000000E+00 -0.00000000000E+00 -0.47493567270E+02  0.47493567270E+02  0.00000000000E+00 0. -1.
         24    2    1    2    0    0 -0.24291310183E+03  0.23221022506E+02  0.10749256955E+04  0.11053276384E+04  0.82084994423E+02 0.  0.
         23    2    1    2    0    0 -0.49694122949E+02  0.20470619604E+02  0.29000339441E+03  0.30877885809E+03  0.91399465601E+02 0.  0.
        -13    1    3    3    0    0 -0.11793058044E+03  0.87513679877E+01  0.34669645563E+03  0.36630948744E+03  0.00000000000E+00 0.  1.
         14    1    3    3    0    0 -0.12498252138E+03  0.14469654518E+02  0.72822923989E+03  0.73901815092E+03  0.00000000000E+00 0. -1.
        -13    1    4    4    0    0 -0.77103358452E+01 -0.34006577746E+02  0.68836106958E+02  0.77164151197E+02  0.00000000000E+00 0.  1.
         13    1    4    4    0    0 -0.41983787104E+02  0.54477197350E+02  0.22116728745E+03  0.23161470689E+03  0.00000000000E+00 0. -1.
         21    1    1    2  503  502 -0.20960439330E+02 -0.58854268586E+01  0.15110993539E+02  0.26501328117E+02  0.00000000000E+00 0. -1.
          1    1    1    2  501    0  0.31356766410E+03 -0.37806215251E+02  0.14318860007E+04  0.14663053942E+04  0.00000000000E+00 0. -1.
<scales pt_clust_5="13000.00000" pt_clust_6="13000.00000" pt_clust_7="13000.00000" pt_clust_8="13000.00000" pt_clust_9="21.77104" pt_clust_10="13000.00000"></scales>
<clustering>
<clus scale="   21.771">  2  9  1 -1</clus>
<clus scale="   82.085">  5  6 -1 -1</clus>
<clus scale="   91.399">  7  8 -1 -1</clus>
<clus scale="  264.482">  1  5  2 -1</clus>
<clus scale="  104.249">  7 10 -1 -1</clus>
<clus scale="   21.771">  2  5  1 -1</clus>
</clustering>
</event>
<event>
10    4  0.2565852E-005  0.2073179E+03  0.7546771E-02  0.1156952E+00
         21   -1    0    0  501  502  0.00000000000E+00  0.00000000000E+00  0.15193716762E+03  0.15193716762E+03  0.00000000000E+00 0.  1.
          2   -1    0    0  503    0 -0.00000000000E+00 -0.00000000000E+00 -0.30506175266E+03  0.30506175266E+03  0.00000000000E+00 0. -1.
         24    2    1    2    0    0  0.49073724800E+02 -0.93897028580E+02 -0.53500498998E+00  0.13274054596E+03  0.79968017797E+02 0.  0.
         23    2    1    2    0    0 -0.32244844625E+02  0.21746724501E+02 -0.48591734122E+02  0.10864440761E+03  0.89049428116E+02 0.  0.
        -13    1    3    3    0    0  0.60707331133E+02 -0.89284973043E+02 -0.19798750032E+02  0.10976874313E+03  0.00000000000E+00 0.  1.
         14    1    3    3    0    0 -0.11633606333E+02 -0.46120555377E+01  0.19263745042E+02  0.22971802838E+02  0.00000000000E+00 0. -1.
        -11    1    4    4    0    0 -0.52655581926E+02  0.14515335726E+02  0.89554675870E+00  0.54626983106E+02  0.00000000000E+00 0. -1.
         11    1    4    4    0    0  0.20410737301E+02  0.72313887758E+01 -0.49487280881E+02  0.54017424501E+02  0.00000000000E+00 0.  1.
         21    1    1    2  503  502  0.46078002802E+01 -0.43543348047E+02  0.16877579586E+02  0.46926620113E+02  0.00000000000E+00 0. -1.
          1    1    1    2  501    0 -0.21436680455E+02  0.11569365213E+03 -0.12087542551E+03  0.16868734660E+03  0.00000000000E+00 0. -1.
<scales pt_clust_5="13000.00000" pt_clust_6="13000.00000" pt_clust_7="13000.00000" pt_clust_8="13000.00000" pt_clust_9="43.78647" pt_clust_10="13000.00000"></scales>
<clustering>
<clus scale="   43.786">  1  9  2 -1</clus>
<clus scale="   79.968">  5  6 -1 -1</clus>
<clus scale="   89.049">  7  8 -1 -1</clus>
<clus scale="  108.971">  7 10 -1 -1</clus>
<clus scale="  151.504">  2  5  1 -1</clus>
<clus scale="   43.786">  1  5  2 -1</clus>
</clustering>
</event>
<event>
10    4  0.2565852E-005  0.9063491E+03  0.7546771E-02  0.1012776E+00
          2   -1    0    0  503    0 -0.00000000000E+00  0.00000000000E+00  0.99233658166E+03  0.99233658166E+03  0.00000000000E+00 0. -1.
         21   -1    0    0  501  502  0.00000000000E+00 -0.00000000000E+00 -0.33635315545E+03  0.33635315545E+03  0.00000000000E+00 0. -1.
         24    2    1    2    0    0  0.40429552653E+02  0.27475369354E+02 -0.52829586986E+02  0.10508885806E+03  0.76571915072E+02 0.  0.
         23    2    1    2    0    0 -0.23252082169E+03 -0.13551426780E+03 -0.93853471758E+02  0.29929090840E+03  0.91304569381E+02 0.  0.
        -13    1    3    3    0    0  0.60241141114E+02  0.34956933103E+02 -0.39616160142E+02  0.80127538332E+02  0.00000000000E+00 0.  1.
         14    1    3    3    0    0 -0.19811588461E+02 -0.74815637496E+01 -0.13213426844E+02  0.24961319726E+02  0.00000000000E+00 0. -1.
        -13    1    4    4    0    0 -0.19381397266E+03 -0.72639646015E+02 -0.88984370615E+02  0.22529667637E+03  0.00000000000E+00 0.  1.
         13    1    4    4    0    0 -0.38706849035E+02 -0.62874621787E+02 -0.48691011429E+01  0.73994232025E+02  0.00000000000E+00 0. -1.
         21    1    1    2  503  502 -0.99199319307E+01 -0.49283262571E+02 -0.26276021192E+02  0.56724547674E+02  0.00000000000E+00 0. -1.
          1    1    1    2  501    0  0.20201120097E+03  0.15732216102E+03  0.82894250615E+03  0.86758542298E+03  0.00000000000E+00 0. -1.
<scales pt_clust_5="13000.00000" pt_clust_6="13000.00000" pt_clust_7="13000.00000" pt_clust_8="13000.00000" pt_clust_9="50.27171" pt_clust_10="13000.00000"></scales>
<clustering>
<clus scale="   50.272">  2  9  1 -1</clus>
<clus scale="   76.572">  5  6 -1 -1</clus>
<clus scale="   86.567">  1  5  2 -1</clus>
<clus scale="   91.305">  7  8 -1 -1</clus>
<clus scale="  287.166">  7 10 -1 -1</clus>
<clus scale="   50.272">  2  5  1 -1</clus>
</clustering>
</event>
<event>
10    4  0.2565852E-005  0.3872529E+03  0.7546771E-02  0.1105444E+00
          2   -1    0    0  503    0 -0.00000000000E+00  0.00000000000E+00  0.79870056239E+03  0.79870056239E+03  0.00000000000E+00 0. -1.
         21   -1    0    0  501  502  0.00000000000E+00 -0.00000000000E+00 -0.41870708285E+03  0.41870708285E+03  0.00000000000E+00 0. -1.
         24    2    1    2    0    0 -0.41781154424E+01  0.19183684288E+02  0.67867374849E+03  0.68362878076E+03  0.79779587617E+02 0.  0.
         23    2    1    2    0    0  0.12663298125E+03  0.73531594668E+02 -0.30757996677E+03  0.35259868982E+03  0.90981276926E+02 0.  0.
        -13    1    3    3    0    0  0.39779889569E+00 -0.25965138374E+02  0.10502182830E+03  0.10818470813E+03  0.00000000000E+00 0.  1.
         14    1    3    3    0    0 -0.45759143381E+01  0.45148822663E+02  0.57365192019E+03  0.57544407262E+03  0.00000000000E+00 0. -1.
        -11    1    4    4    0    0  0.18967167510E+02  0.59501245065E+02 -0.13433306026E+03  0.14814021293E+03  0.00000000000E+00 0.  1.
         11    1    4    4    0    0  0.10766581374E+03  0.14030349603E+02 -0.17324690651E+03  0.20445847689E+03  0.00000000000E+00 0. -1.
         21    1    1    2  503  502 -0.25432524554E+02  0.17718689383E+02  0.14179210975E+02  0.34085411579E+02  0.00000000000E+00 0. -1.
          1    1    1    2  501    0 -0.97022341254E+02 -0.11043396834E+03 -0.52795131564E+01  0.14709476308E+03  0.00000000000E+00 0. -1.
<scales pt_clust_5="13000.00000" pt_clust_6="13000.00000" pt_clust_7="13000.00000" pt_clust_8="13000.00000" pt_clust_9="30.99623" pt_clust_10="13000.00000"></scales>
<clustering>
<clus scale="   30.996">  2  9  1 -1</clus>
<clus scale="   79.780">  5  6 -1 -1</clus>
<clus scale="   82.193">  1  5  2 -1</clus>
<clus scale="   90.981">  7  8 -1 -1</clus>
<clus scale="  141.017">  7 10 -1 -1</clus>
<clus scale="   30.996">  2  5  1 -1</clus>
</clustering>
</event>
<event>
10    4  0.2565852E-005  0.1478591E+03  0.7546771E-02  0.1230972E+00
         21   -1    0    0  501  502  0.00000000000E+00  0.00000000000E+00  0.29686920822E+03  0.29686920822E+03  0.00000000000E+00 0. -1.
          2   -1    0    0  503    0 -0.00000000000E+00 -0.00000000000E+00 -0.45592646253E+03  0.45592646253E+03  0.00000000000E+00 0. -1.
         24    2    1    2    0    0  0.10327784826E+02 -0.10702676090E+02 -0.24356578565E+03  0.25651820982E+03  0.79095446225E+02 0.  0.
         23    2    1    2    0    0  0.46267590017E+02  0.93590712356E+02 -0.14924692204E+03  0.20388662660E+03  0.91625331889E+02 0.  0.
        -11    1    3    3    0    0 -0.24929000437E+02 -0.12765446203E+02 -0.34247540706E+02  0.44241448031E+02  0.00000000000E+00 0.  1.
         12    1    3    3    0    0  0.35256785263E+02  0.20627701129E+01 -0.20931824494E+03  0.21227676178E+03  0.00000000000E+00 0. -1.
        -11    1    4    4    0    0  0.26003698971E+02  0.82839167556E+02 -0.15721971291E+03  0.17960110849E+03  0.00000000000E+00 0. -1.
         11    1    4    4    0    0  0.20263891046E+02  0.10751544799E+02  0.79727908715E+01  0.24285518116E+02  0.00000000000E+00 0.  1.
         21    1    1    2  503  502 -0.31892374899E+02 -0.70345645338E+02  0.24904507125E+03  0.26074715896E+03  0.00000000000E+00 0. -1.
          1    1    1    2  501    0 -0.24702999945E+02 -0.12542390927E+02 -0.15289617869E+02  0.31643675371E+02  0.00000000000E+00 0. -1.
<scales pt_clust_5="13000.00000" pt_clust_6="13000.00000" pt_clust_7="13000.00000" pt_clust_8="13000.00000" pt_clust_9="77.23751" pt_clust_10="13000.00000"></scales>
<clustering>
<clus scale="   77.238">  1  9  2 -1</clus>
<clus scale="   79.095">  5  6 -1 -1</clus>
<clus scale="   82.158">  2  5  1 -1</clus>
<clus scale="   91.625">  7  8 -1 -1</clus>
<clus scale="   44.119">  7 10 -1 -1</clus>
<clus scale="   77.238">  1  5  2 -1</clus>
</clustering>
</event>
<event>
10    4  0.2565852E-005  0.4936816E+03  0.7546771E-02  0.1063022E+00
         21   -1    0    0  503  502  0.00000000000E+00  0.00000000000E+00  0.11200238614E+03  0.11200238614E+03  0.00000000000E+00 0. -1.
          2   -1    0    0  502    0 -0.00000000000E+00 -0.00000000000E+00 -0.20305178007E+04  0.20305178007E+04  0.00000000000E+00 0. -1.
         24    2    1    2    0    0  0.92771840026E+02 -0.20959126933E+02 -0.17226285464E+03  0.21185066768E+03  0.78487674211E+02 0.  0.
         23    2    1    2    0    0 -0.22216706594E+03  0.59734591842E+02 -0.59106309343E+03  0.64030523746E+03  0.87799715503E+02 0.  0.
        -13    1    3    3    0    0  0.37157592629E+02 -0.31408307311E+02 -0.13649460570E+03  0.14490667977E+03  0.00000000000E+00 0.  1.
         14    1    3    3    0    0  0.55614247397E+02  0.10449180378E+02 -0.35768248940E+02  0.66943987903E+02  0.00000000000E+00 0. -1.
        -13    1    4    4    0    0 -0.16203676892E+03  0.40169753134E+02 -0.51504897937E+03  0.54142864230E+03  0.00000000000E+00 0. -1.
         13    1    4    4    0    0 -0.60130297019E+02  0.19564838708E+02 -0.76014114065E+02  0.98876595159E+02  0.00000000000E+00 0.  1.
         21    1    1    2  503  501  0.17033617236E+03  0.22940260880E+03 -0.43176300405E+03  0.51774439659E+03  0.00000000000E+00 0. -1.
          1    1    1    2  501    0 -0.40940946451E+02 -0.26817807371E+03 -0.72342646239E+03  0.77261988507E+03  0.00000000000E+00 0. -1.
<scales pt_clust_5="13000.00000" pt_clust_6="13000.00000" pt_clust_7="13000.00000" pt_clust_8="13000.00000" pt_clust_9="296.51546" pt_clust_10="13000.00000"></scales>
<clustering>
<clus scale="   78.488">  5  6 -1 -1</clus>
<clus scale="   87.800">  7  8 -1 -1</clus>
<clus scale="  123.314">  2  5  1 -1</clus>
<clus scale="  276.724">  7 10 -1 -1</clus>
<clus scale="  296.515">  1  9  2 -1</clus>
<clus scale="  296.515">  1  5  2 -1</clus>
</clustering>
</event>
<event>
10    4  0.2565852E-005  0.2584061E+03  0.7546771E-02  0.1152849E+00
          4   -1    0    0  502    0 -0.00000000000E+00  0.00000000000E+00  0.35141900843E+03  0.35141900843E+03  0.00000000000E+00 0. -1.
         21   -1    0    0  503  502  0.00000000000E+00 -0.00000000000E+00 -0.12014986603E+03  0.12014986603E+03  0.00000000000E+00 0. -1.
         24    2    1    2    0    0 -0.91330043944E+01 -0.13229171702E+02  0.81832405979E+02  0.11821950943E+03  0.83790733305E+02 0.  0.
         23    2    1    2    0    0  0.39145013014E+02  0.11457645976E+03  0.58846449360E+02  0.16266269301E+03  0.91302518702E+02 0.  0.
        -13    1    3    3    0    0  0.23894539423E+02 -0.69240723083E+01 -0.47593344096E+01  0.25328700235E+02  0.00000000000E+00 0.  1.
         14    1    3    3    0    0 -0.33027543817E+02 -0.63050993939E+01  0.86591740389E+02  0.92890809193E+02  0.00000000000E+00 0. -1.
        -11    1    4    4    0    0 -0.27754861826E+02  0.54988449924E+02  0.17790756709E+02  0.64113750508E+02  0.00000000000E+00 0.  1.
         11    1    4    4    0    0  0.66899874840E+02  0.59588009836E+02  0.41055692652E+02  0.98548942506E+02  0.00000000000E+00 0. -1.
         21    1    1    2  503  501 -0.21711476822E+02 -0.67361128137E+01 -0.29713416719E+02  0.37411904185E+02  0.00000000000E+00 0. -1.
          3    1    1    2  501    0 -0.83005317977E+01 -0.94611175244E+02  0.12030370378E+03  0.15327476783E+03  0.00000000000E+00 0. -1.
<scales pt_clust_5="13000.00000" pt_clust_6="13000.00000" pt_clust_7="13000.00000" pt_clust_8="13000.00000" pt_clust_9="22.73243" pt_clust_10="13000.00000"></scales>
<clustering>
<clus scale="   22.732">  2  9  1 -1</clus>
<clus scale="   83.791">  5  6 -1 -1</clus>
<clus scale="   86.156">  1  5  2 -1</clus>
<clus scale="   91.303">  7  8 -1 -1</clus>
<clus scale="  106.291">  7 10 -1 -1</clus>
<clus scale="   22.732">  2  5  1 -1</clus>
</clustering>
</event>
<event>
10    4  0.2565852E-005  0.1763057E+03  0.7546771E-02  0.1192587E+00
          2   -1    0    0  503    0 -0.00000000000E+00  0.00000000000E+00  0.94991517754E+03  0.94991517754E+03  0.00000000000E+00 0. -1.
         21   -1    0    0  501  502  0.00000000000E+00 -0.00000000000E+00 -0.14218331058E+03  0.14218331058E+03  0.00000000000E+00 0. -1.
         24    2    1    2    0    0 -0.12410203462E+03  0.14475730557E+03  0.37447624812E+03  0.42817285984E+03  0.82119090282E+02 0.  0.
         23    2    1    2    0    0  0.24265470193E+01  0.38960422909E+02  0.26621467424E+03  0.28561163908E+03  0.95812070806E+02 0.  0.
        -13    1    3    3    0    0 -0.47290780183E+02  0.11616990185E+03  0.23601312492E+03  0.26727150825E+03  0.00000000000E+00 0.  1.
         14    1    3    3    0    0 -0.76811254440E+02  0.28587403725E+02  0.13846312319E+03  0.16090135159E+03  0.00000000000E+00 0. -1.
        -11    1    4    4    0    0  0.20543419900E+02 -0.40610637990E+01  0.67806337157E+01  0.22011391004E+02  0.00000000000E+00 0.  1.
         11    1    4    4    0    0 -0.18116872880E+02  0.43021486708E+02  0.25943404053E+03  0.26360024808E+03  0.00000000000E+00 0. -1.
         21    1    1    2  503  502  0.94179441266E+02 -0.14904337634E+03 -0.27823653822E+02  0.17848767717E+03  0.00000000000E+00 0. -1.
          1    1    1    2  501    0  0.27496046338E+02 -0.34674352138E+02  0.19486459842E+03  0.19982631203E+03  0.00000000000E+00 0. -1.
<scales pt_clust_5="13000.00000" pt_clust_6="13000.00000" pt_clust_7="13000.00000" pt_clust_8="13000.00000" pt_clust_9="176.30569" pt_clust_10="13000.00000"></scales>
<clustering>
<clus scale="   82.119">  5  6 -1 -1</clus>
<clus scale="   95.812">  7  8 -1 -1</clus>
<clus scale="   44.253">  7 10 -1 -1</clus>
<clus scale="  176.306">  2  9  1 -1</clus>
<clus scale="  109.748">  1  5  2 -1</clus>
<clus scale="  176.306">  2  5  1 -1</clus>
</clustering>
</event>
<event>
10    4  0.2565852E-005  0.2236344E+03  0.7546771E-02  0.1168291E+00
          2   -1    0    0  502    0 -0.00000000000E+00  0.00000000000E+00  0.66577018196E+02  0.66577018196E+02  0.00000000000E+00 0. -1.
         21   -1    0    0  503  502  0.00000000000E+00 -0.00000000000E+00 -0.68694094792E+03  0.68694094792E+03  0.00000000000E+00 0.  1.
         24    2    1    2    0    0 -0.58390171564E+02 -0.12751068209E+00 -0.24028109980E+03  0.26012786473E+03  0.80759338120E+02 0.  0.
         23    2    1    2    0    0 -0.77410274336E+02  0.10034938944E+02 -0.86064961607E+02  0.14698753482E+03  0.90028368886E+02 0.  0.
        -11    1    3    3    0    0 -0.69642118265E+02 -0.63068547494E+01 -0.23668198126E+03  0.24679578867E+03  0.00000000000E+00 0.  1.
         12    1    3    3    0    0  0.11251946701E+02  0.61793440673E+01 -0.35991185350E+01  0.13332076053E+02  0.00000000000E+00 0. -1.
        -11    1    4    4    0    0 -0.63743627698E+02  0.33793182481E+02 -0.19103247939E+02  0.74633526891E+02  0.00000000000E+00 0.  1.
         11    1    4    4    0    0 -0.13666646637E+02 -0.23758243537E+02 -0.66961713668E+02  0.72354007931E+02  0.00000000000E+00 0. -1.
         21    1    1    2  503  501  0.38238391727E+02 -0.46873763933E+02 -0.18869188952E+03  0.19815133994E+03  0.00000000000E+00 0. -1.
          1    1    1    2  501    0  0.97562054173E+02  0.36966335672E+02 -0.10532597879E+03  0.14825122663E+03  0.00000000000E+00 0. -1.
<scales pt_clust_5="13000.00000" pt_clust_6="13000.00000" pt_clust_7="13000.00000" pt_clust_8="13000.00000" pt_clust_9="60.49235" pt_clust_10="13000.00000"></scales>
<clustering>
<clus scale="   60.492">  2  9  1 -1</clus>
<clus scale="   80.759">  5  6 -1 -1</clus>
<clus scale="   90.028">  7  8 -1 -1</clus>
<clus scale="   92.813">  1  5  2 -1</clus>
<clus scale="   90.479">  7 10 -1 -1</clus>
<clus scale="   60.492">  2  5  1 -1</clus>
</clustering>
</event>
<event>
10    4  0.2565852E-005  0.5480346E+03  0.7546771E-02  0.1063300E+00
          2   -1    0    0  502    0 -0.00000000000E+00  0.00000000000E+00  0.21265936704E+03  0.21265936704E+03  0.00000000000E+00 0. -1.
         21   -1    0    0  503  502  0.00000000000E+00 -0.00000000000E+00 -0.15038478141E+04  0.15038478141E+04  0.00000000000E+00 0. -1.
         24    2    1    2    0    0 -0.35177657059E+02  0.20219002653E+02 -0.20115516016E+03  0.22014615844E+03  0.79716102467E+02 0.  0.
         23    2    1    2    0    0  0.59578388024E+00 -0.10444338747E+03 -0.90667346308E+02  0.16562529837E+03  0.91117482565E+02 0.  0.
        -13    1    3    3    0    0 -0.12845977712E+01  0.42333405091E+02 -0.60973339592E+02  0.74239581889E+02  0.00000000000E+00 0.  1.
         14    1    3    3    0    0 -0.33893059287E+02 -0.22114402439E+02 -0.14018182057E+03  0.14590657655E+03  0.00000000000E+00 0. -1.
        -13    1    4    4    0    0 -0.29280026359E+02 -0.92691867711E+02 -0.91519581198E+02  0.13351005964E+03  0.00000000000E+00 0.  1.
         13    1    4    4    0    0  0.29875810239E+02 -0.11751519756E+02  0.85223489062E+00  0.32115238724E+02  0.00000000000E+00 0. -1.
         21    1    1    2  503  501  0.31980762227E+03 -0.17663708826E+03 -0.83363318629E+03  0.91017683199E+03  0.00000000000E+00 0. -1.
          1    1    1    2  501    0 -0.28522574910E+03  0.26086147307E+03 -0.16573275433E+03  0.42055889235E+03  0.00000000000E+00 0. -1.
<scales pt_clust_5="13000.00000" pt_clust_6="13000.00000" pt_clust_7="13000.00000" pt_clust_8="13000.00000" pt_clust_9="357.70361" pt_clust_10="13000.00000"></scales>
<clustering>
<clus scale="   79.716">  5  6 -1 -1</clus>
<clus scale="   89.448">  1  5  2 -1</clus>
<clus scale="   91.117">  7  8 -1 -1</clus>
<clus scale="  357.704">  2  9  1 -1</clus>
<clus scale="  190.584">  7 10 -1 -1</clus>
<clus scale="  357.704">  2  5  1 -1</clus>
</clustering>
</event>
<event>
10    4  0.2565852E-005  0.1693462E+03  0.7546771E-02  0.1211302E+00
         21   -1    0    0  501  502  0.00000000000E+00  0.00000000000E+00  0.20132491631E+02  0.20132491631E+02  0.00000000000E+00 0. -1.
          2   -1    0    0  503    0 -0.00000000000E+00 -0.00000000000E+00 -0.10662260398E+04  0.10662260398E+04  0.00000000000E+00 0. -1.
         24    2    1    2    0    0  0.21671915155E+02  0.10485365348E+02 -0.40541715487E+03  0.41348591682E+03  0.77639675096E+02 0.  0.
         23    2    1    2    0    0  0.39326859539E+01 -0.42319017012E+01 -0.12723408145E+03  0.15397310463E+03  0.86520693818E+02 0.  0.
        -13    1    3    3    0    0  0.30946273425E+02  0.37081927034E+02 -0.18197752098E+03  0.18827787786E+03  0.00000000000E+00 0.  1.
         14    1    3    3    0    0 -0.92743582704E+01 -0.26596561686E+02 -0.22343963389E+03  0.22520803895E+03  0.00000000000E+00 0. -1.
        -11    1    4    4    0    0 -0.30589867843E+02  0.23988768963E+02 -0.38747730306E+02  0.54887044508E+02  0.00000000000E+00 0.  1.
         11    1    4    4    0    0  0.34522553797E+02 -0.28220670664E+02 -0.88486351140E+02  0.99086060127E+02  0.00000000000E+00 0. -1.
         21    1    1    2  503  502  0.60726087268E+01  0.27063074083E+02 -0.14795491126E+03  0.15053219696E+03  0.00000000000E+00 0. -1.
          1    1    1    2  501    0 -0.31677209836E+02 -0.33316537730E+02 -0.36548740058E+03  0.36836731300E+03  0.00000000000E+00 0. -1.
<scales pt_clust_5="13000.00000" pt_clust_6="13000.00000" pt_clust_7="13000.00000" pt_clust_8="13000.00000" pt_clust_9="27.73603" pt_clust_10="13000.00000"></scales>
<clustering>
<clus scale="   27.736">  1  9  2 -1</clus>
<clus scale="   77.640">  5  6 -1 -1</clus>
<clus scale="   82.587">  2  5  1 -1</clus>
<clus scale="   86.521">  7  8 -1 -1</clus>
<clus scale="   28.563">  7 10 -1 -1</clus>
<clus scale="   27.736">  1  5  2 -1</clus>
</clustering>
</event>
<event>
10    4  0.2565852E-005  0.3216611E+03  0.7546771E-02  0.1098854E+00
         21   -1    0    0  503  502  0.00000000000E+00  0.00000000000E+00  0.72243097609E+02  0.72243097609E+02  0.00000000000E+00 0.  1.
          2   -1    0    0  502    0 -0.00000000000E+00 -0.00000000000E+00 -0.11890107823E+04  0.11890107823E+04  0.00000000000E+00 0. -1.
         24    2    1    2    0    0  0.75807452936E+02  0.12512868084E+03 -0.13135121457E+03  0.21247017002E+03  0.80538654639E+02 0.  0.
         23    2    1    2    0    0  0.88485035677E+02 -0.67389055044E+02 -0.31550833609E+03  0.34693121206E+03  0.91895970948E+02 0.  0.
        -13    1    3    3    0    0  0.89418362595E+02  0.12054163226E+03 -0.10744702496E+03  0.18458275068E+03  0.00000000000E+00 0.  1.
         14    1    3    3    0    0 -0.13610909660E+02  0.45870485781E+01 -0.23904189609E+02  0.27887419337E+02  0.00000000000E+00 0. -1.
        -13    1    4    4    0    0  0.71677057263E+01  0.20431027848E+02 -0.78298691756E+02  0.81237233058E+02  0.00000000000E+00 0.  1.
         13    1    4    4    0    0  0.81317329951E+02 -0.87820082892E+02 -0.23720964434E+03  0.26569397900E+03  0.00000000000E+00 0. -1.
         21    1    1    2  503  501 -0.14127328249E+02  0.14330544905E+02 -0.12540430245E+02  0.23710932320E+02  0.00000000000E+00 0.  1.
          1    1    1    2  501    0 -0.15016516036E+03 -0.72070170702E+02 -0.65736770379E+03  0.67814156551E+03  0.00000000000E+00 0. -1.
<scales pt_clust_5="13000.00000" pt_clust_6="13000.00000" pt_clust_7="13000.00000" pt_clust_8="13000.00000" pt_clust_9="20.12327" pt_clust_10="13000.00000"></scales>
<clustering>
<clus scale="   20.123">  1  9  2 -1</clus>
<clus scale="   80.539">  5  6 -1 -1</clus>
<clus scale="   91.896">  7  8 -1 -1</clus>
<clus scale="  167.609">  7 10 -1 -1</clus>
<clus scale="  170.057">  2  5  1 -1</clus>
<clus scale="   20.123">  1  5  2 -1</clus>
</clustering>
</event>
<event>
10    4  0.2565852E-005  0.1933806E+03  0.7546771E-02  0.1165459E+00
          2   -1    0    0  503    0 -0.00000000000E+00  0.00000000000E+00  0.48341315025E+03  0.48341315025E+03  0.00000000000E+00 0. -1.
         21   -1    0    0  501  502  0.00000000000E+00 -0.00000000000E+00 -0.10338919923E+03  0.10338919923E+03  0.00000000000E+00 0. -1.
         24    2    1    2    0    0 -0.35956415036E+02 -0.12245177936E+03  0.32137817711E+03  0.35507228461E+03  0.80654153795E+02 0.  0.
         23    2    1    2    0    0  0.13837200025E+02  0.47414328823E+02  0.51842877545E+02  0.11648331148E+03  0.91875411394E+02 0.  0.
        -11    1    3    3    0    0  0.88399756276E+01 -0.71085671357E+02  0.23115355700E+03  0.24199852221E+03  0.00000000000E+00 0.  1.
         12    1    3    3    0    0 -0.44796390663E+02 -0.51366108001E+02  0.90224620116E+02  0.11307376240E+03  0.00000000000E+00 0. -1.
        -13    1    4    4    0    0 -0.35342098036E+02  0.32044554023E+02  0.70786736098E+01  0.48228880934E+02  0.00000000000E+00 0.  1.
         13    1    4    4    0    0  0.49179298060E+02  0.15369774800E+02  0.44764203935E+02  0.68254430545E+02  0.00000000000E+00 0. -1.
         21    1    1    2  503  502 -0.18936673040E+02 -0.93053751806E+01 -0.96169184936E+00  0.21121374110E+02  0.00000000000E+00 0. -1.
          1    1    1    2  501    0  0.41055888051E+02  0.84342825715E+02  0.77645882137E+01  0.94125379274E+02  0.00000000000E+00 0. -1.
<scales pt_clust_5="13000.00000" pt_clust_6="13000.00000" pt_clust_7="13000.00000" pt_clust_8="13000.00000" pt_clust_9="21.09947" pt_clust_10="13000.00000"></scales>
<clustering>
<clus scale="   21.099">  2  9  1 -1</clus>
<clus scale="   80.654">  5  6 -1 -1</clus>
<clus scale="   91.875">  7  8 -1 -1</clus>
<clus scale="   86.230">  7 10 -1 -1</clus>
<clus scale="  153.204">  1  5  2 -1</clus>
<clus scale="   21.099">  2  5  1 -1</clus>
</clustering>
</event>
<event>
10    4  0.2565852E-005  0.2233964E+03  0.7546771E-02  0.1150389E+00
          2   -1    0    0  503    0 -0.00000000000E+00  0.00000000000E+00  0.14336816198E+04  0.14336816198E+04  0.00000000000E+00 0. -1.
         21   -1    0    0  501  502  0.00000000000E+00 -0.00000000000E+00 -0.33081235414E+02  0.33081235414E+02  0.00000000000E+00 0. -1.
         24    2    1    2    0    0  0.12278100215E+03 -0.17197706662E+02  0.61377437445E+03  0.63176429230E+03  0.83882076090E+02 0.  0.
         23    2    1    2    0    0 -0.46222209996E+01  0.54847595717E+02  0.24739592108E+03  0.26914597682E+03  0.90582511476E+02 0.  0.
        -11    1    3    3    0    0  0.77439681705E+02  0.30862775367E+02  0.36054377506E+03  0.37005571059E+03  0.00000000000E+00 0.  1.
         12    1    3    3    0    0  0.45341320445E+02 -0.48060482029E+02  0.25323059939E+03  0.26170858171E+03  0.00000000000E+00 0. -1.
        -13    1    4    4    0    0  0.24063613262E+02 -0.76009948900E+01  0.13551482797E+03  0.13784448196E+03  0.00000000000E+00 0.  1.
         13    1    4    4    0    0 -0.28685834261E+02  0.62448590607E+02  0.11188109311E+03  0.13130149486E+03  0.00000000000E+00 0. -1.
         21    1    1    2  503  502 -0.29837082339E+02 -0.13351133399E+02  0.19814908956E+02  0.38224793819E+02  0.00000000000E+00 0.  1.
          1    1    1    2  501    0 -0.88321698812E+02 -0.24298755656E+02  0.51961517992E+03  0.52762779230E+03  0.00000000000E+00 0. -1.
<scales pt_clust_5="13000.00000" pt_clust_6="13000.00000" pt_clust_7="13000.00000" pt_clust_8="13000.00000" pt_clust_9="32.68798" pt_clust_10="13000.00000"></scales>
<clustering>
<clus scale="   32.688">  2  9  1 -1</clus>
<clus scale="   83.882">  5  6 -1 -1</clus>
<clus scale="   90.583">  7  8 -1 -1</clus>
<clus scale="   97.028">  7 10 -1 -1</clus>
<clus scale="  141.321">  1  5  2 -1</clus>
<clus scale="   32.688">  2  5  1 -1</clus>
</clustering>
</event>
<event>
10    4  0.2565852E-005  0.2789645E+03  0.7546771E-02  0.1113916E+00
          2   -1    0    0  502    0 -0.00000000000E+00  0.00000000000E+00  0.12974039050E+04  0.12974039050E+04  0.00000000000E+00 0. -1.
         21   -1    0    0  503  502  0.00000000000E+00 -0.00000000000E+00 -0.50103930234E+02  0.50103930234E+02  0.00000000000E+00 0. -1.
         24    2    1    2    0    0  0.75882139407E+02  0.14374255713E+03  0.38618769552E+03  0.42633641245E+03  0.78751372032E+02 0.  0.
         23    2    1    2    0    0 -0.13714938975E+03 -0.10296060650E+03  0.44940892154E+03  0.48976389444E+03  0.92138221914E+02 0.  0.
        -13    1    3    3    0    0  0.84475051106E+02  0.82592216993E+02  0.27122942180E+03  0.29584270790E+03  0.00000000000E+00 0.  1.
         14    1    3    3    0    0 -0.85929116991E+01  0.61150340133E+02  0.11495827372E+03  0.13049370455E+03  0.00000000000E+00 0. -1.
        -13    1    4    4    0    0 -0.87031808839E+02 -0.11241422477E+03  0.35602286520E+03  0.38335854527E+03  0.00000000000E+00 0. -1.
         13    1    4    4    0    0 -0.50117580906E+02  0.94536182728E+01  0.93386056335E+02  0.10640534917E+03  0.00000000000E+00 0.  1.
         21    1    1    2  503  501  0.13976768949E+02 -0.17149627809E+02  0.69117371225E+01  0.23178263833E+02  0.00000000000E+00 0. -1.
          1    1    1    2  501    0  0.47290481389E+02 -0.23632322819E+02  0.40479162059E+03  0.40822926452E+03  0.00000000000E+00 0. -1.
<scales pt_clust_5="13000.00000" pt_clust_6="13000.00000" pt_clust_7="13000.00000" pt_clust_8="13000.00000" pt_clust_9="22.12374" pt_clust_10="13000.00000"></scales>
<clustering>
<clus scale="   22.124">  2  9  1 -1</clus>
<clus scale="   78.751">  5  6 -1 -1</clus>
<clus scale="   92.138">  7  8 -1 -1</clus>
<clus scale="   53.694">  7 10 -1 -1</clus>
<clus scale="  177.173">  1  5  2 -1</clus>
<clus scale="   22.124">  2  5  1 -1</clus>
</clustering>
</event>
<event>
10    4  0.2565852E-005  0.2237196E+03  0.7546771E-02  0.1167663E+00
          2   -1    0    0  503    0 -0.00000000000E+00  0.00000000000E+00  0.11225038135E+04  0.11225038135E+04  0.00000000000E+00 0. -1.
         21   -1    0    0  501  502  0.00000000000E+00 -0.00000000000E+00 -0.39325229979E+02  0.39325229979E+02  0.00000000000E+00 0. -1.
         24    2    1    2    0    0 -0.41747402131E+02 -0.35806854825E+02  0.37885890155E+03  0.39134794209E+03  0.81204482997E+02 0.  0.
         23    2    1    2    0    0 -0.61754504823E+02 -0.18430678995E+02  0.22591326111E+03  0.25121832202E+03  0.88997387493E+02 0.  0.
        -11    1    3    3    0    0  0.18014912738E+02  0.89109232869E+01  0.45601778808E+02  0.49834364300E+02  0.00000000000E+00 0.  1.
         12    1    3    3    0    0 -0.59762314869E+02 -0.44717778112E+02  0.33325712274E+03  0.34151357779E+03  0.00000000000E+00 0. -1.
        -13    1    4    4    0    0  0.19759048980E+01 -0.34132357465E+02  0.13388568663E+03  0.13818212297E+03  0.00000000000E+00 0.  1.
         13    1    4    4    0    0 -0.63730409721E+02  0.15701678471E+02  0.92027574483E+02  0.11303619905E+03  0.00000000000E+00 0. -1.
         21    1    1    2  503  502 -0.92446775120E+01  0.79497502790E+02  0.13500608104E+03  0.15694571969E+03  0.00000000000E+00 0. -1.
          1    1    1    2  501    0  0.11274658447E+03 -0.25259968970E+02  0.34340033985E+03  0.36231705970E+03  0.00000000000E+00 0. -1.
<scales pt_clust_5="13000.00000" pt_clust_6="13000.00000" pt_clust_7="13000.00000" pt_clust_8="13000.00000" pt_clust_9="80.03322" pt_clust_10="13000.00000"></scales>
<clustering>
<clus scale="   80.033">  2  9  1 -1</clus>
<clus scale="   81.204">  5  6 -1 -1</clus>
<clus scale="   88.997">  7  8 -1 -1</clus>
<clus scale="   94.053">  1  5  2 -1</clus>
<clus scale="   87.821">  7 10 -1 -1</clus>
<clus scale="   80.033">  2  5  1 -1</clus>
</clustering>
</event>
<event>
10    4  0.2565852E-005  0.3550876E+03  0.7546771E-02  0.1106602E+00
          2   -1    0    0  502    0 -0.00000000000E+00  0.00000000000E+00  0.11530165328E+03  0.11530165328E+03  0.00000000000E+00 0. -1.
         21   -1    0    0  503  502  0.00000000000E+00 -0.00000000000E+00 -0.11134335420E+04  0.11134335420E+04  0.00000000000E+00 0. -1.
         24    2    1    2    0    0 -0.37690248458E+02 -0.53083348475E+02 -0.23354041484E+03  0.25544403775E+03  0.80449576408E+02 0.  0.
         23    2    1    2    0    0  0.46328402731E+02 -0.12807001446E+03 -0.28324382630E+03  0.32725897211E+03  0.91231136050E+02 0.  0.
        -11    1    3    3    0    0 -0.38313388684E+02 -0.55226492667E+01 -0.17872530855E+03  0.18286921918E+03  0.00000000000E+00 0.  1.
         12    1    3    3    0    0  0.62314022561E+00 -0.47560699208E+02 -0.54815106293E+02  0.72574818572E+02  0.00000000000E+00 0. -1.
        -13    1    4    4    0    0  0.70842162797E+02 -0.10455802577E+03 -0.24802350335E+03  0.27832831512E+03  0.00000000000E+00 0. -1.
         13    1    4    4    0    0 -0.24513760066E+02 -0.23511988691E+02 -0.35220322949E+02  0.48930656989E+02  0.00000000000E+00 0.  1.
         21    1    1    2  503  501 -0.16840771950E+03  0.15954792957E+03 -0.40704414742E+03  0.46851002098E+03  0.00000000000E+00 0. -1.
          1    1    1    2  501    0  0.15976956522E+03  0.21605433373E+02 -0.74303500131E+02  0.17752216441E+03  0.00000000000E+00 0. -1.
<scales pt_clust_5="13000.00000" pt_clust_6="13000.00000" pt_clust_7="13000.00000" pt_clust_8="13000.00000" pt_clust_9="230.07478" pt_clust_10="13000.00000"></scales>
<clustering>
<clus scale="   80.450">  5  6 -1 -1</clus>
<clus scale="   91.231">  7  8 -1 -1</clus>
<clus scale="  103.492">  1  5  2 -1</clus>
<clus scale="  141.205">  7 10 -1 -1</clus>
<clus scale="  230.075">  2  9  1 -1</clus>
<clus scale="  230.075">  2  5  1 -1</clus>
</clustering>
</event>
<event>
10    4  0.2565852E-005  0.4316864E+03  0.7546771E-02  0.1071267E+00
          2   -1    0    0  502    0 -0.00000000000E+00  0.00000000000E+00  0.81422842008E+03  0.81422842008E+03  0.00000000000E+00 0. -1.
         21   -1    0    0  503  502  0.00000000000E+00 -0.00000000000E+00 -0.24109041009E+03  0.24109041009E+03  0.00000000000E+00 0.  1.
         24    2    1    2    0    0 -0.63875529055E+02  0.97705840629E+02  0.18293025360E+03  0.23113828745E+03  0.79592183920E+02 0.  0.
         23    2    1    2    0    0  0.12690308975E+03  0.25603422459E+02 -0.15566016581E+02  0.15865782562E+03  0.90388469003E+02 0.  0.
        -13    1    3    3    0    0 -0.70227392901E+02  0.10805307315E+03  0.16283233438E+03  0.20765770501E+03  0.00000000000E+00 0.  1.
         14    1    3    3    0    0  0.63518638460E+01 -0.10347232518E+02  0.20097919221E+02  0.23480582448E+02  0.00000000000E+00 0. -1.
        -13    1    4    4    0    0  0.20714668157E+02  0.35964966487E+02  0.20161890113E+02  0.46141934335E+02  0.00000000000E+00 0. -1.
         13    1    4    4    0    0  0.10618842159E+03 -0.10361544028E+02 -0.35727906694E+02  0.11251589129E+03  0.00000000000E+00 0.  1.
         21    1    1    2  503  501 -0.12246433204E+03 -0.60653450999E+02 -0.89118400553E+02  0.16315159532E+03  0.00000000000E+00 0.  1.
          1    1    1    2  501    0  0.59436771343E+02 -0.62655812090E+02  0.49489217352E+03  0.50237112177E+03  0.00000000000E+00 0. -1.
<scales pt_clust_5="13000.00000" pt_clust_6="13000.00000" pt_clust_7="13000.00000" pt_clust_8="13000.00000" pt_clust_9="136.66146" pt_clust_10="13000.00000"></scales>
<clustering>
<clus scale="   79.592">  5  6 -1 -1</clus>
<clus scale="   90.388">  7  8 -1 -1</clus>
<clus scale="   86.363">  7 10 -1 -1</clus>
<clus scale="  136.661">  2  9  1 -1</clus>
<clus scale="  146.894">  1  5  2 -1</clus>
<clus scale="  136.661">  2  5  1 -1</clus>
</clustering>
</event>
<event>
10    4  0.2565852E-005  0.2227609E+03  0.7546771E-02  0.1150167E+00
          2   -1    0    0  502    0 -0.00000000000E+00  0.00000000000E+00  0.65851678177E+03  0.65851678177E+03  0.00000000000E+00 0. -1.
         21   -1    0    0  503  502  0.00000000000E+00 -0.00000000000E+00 -0.10508308433E+03  0.10508308433E+03  0.00000000000E+00 0. -1.
         24    2    1    2    0    0 -0.39525232519E+02 -0.70982738071E+02  0.50848630121E+02  0.12451738749E+03  0.79487127848E+02 0.  0.
         23    2    1    2    0    0 -0.28705935156E+02  0.13781967649E+03  0.35415970051E+03  0.38917439566E+03  0.78799256540E+02 0.  0.
        -11    1    3    3    0    0 -0.61775289800E+01 -0.36049364694E+02  0.64658928730E+02  0.74286577681E+02  0.00000000000E+00 0.  1.
         12    1    3    3    0    0 -0.33347703539E+02 -0.34933373377E+02 -0.13810298609E+02  0.50230809813E+02  0.00000000000E+00 0. -1.
        -11    1    4    4    0    0 -0.32398588233E+02  0.12345688889E+02  0.97061866839E+02  0.10306837802E+03  0.00000000000E+00 0.  1.
         11    1    4    4    0    0  0.36926530768E+01  0.12547398760E+03  0.25709783367E+03  0.28610601764E+03  0.00000000000E+00 0. -1.
         21    1    1    2  503  501 -0.90917417129E+01 -0.67586840756E+02 -0.14359219829E+02  0.69690946362E+02  0.00000000000E+00 0. -1.
          1    1    1    2  501    0  0.77322909387E+02  0.74990233826E+00  0.16278458664E+03  0.18021713658E+03  0.00000000000E+00 0. -1.
<scales pt_clust_5="13000.00000" pt_clust_6="13000.00000" pt_clust_7="13000.00000" pt_clust_8="13000.00000" pt_clust_9="68.19561" pt_clust_10="13000.00000"></scales>
<clustering>
<clus scale="   68.196">  2  9  1 -1</clus>
<clus scale="   78.799">  7  8 -1 -1</clus>
<clus scale="   76.550">  7 10 -1 -1</clus>
<clus scale="   79.487">  5  6 -1 -1</clus>
<clus scale="  143.285">  1  5  2 -1</clus>
<clus scale="   68.196">  2  5  1 -1</clus>
</clustering>
</event>
<event>
10    4  0.2565852E-005  0.1911722E+03  0.7546771E-02  0.1185775E+00
         21   -1    0    0  501  502  0.00000000000E+00  0.00000000000E+00  0.11342764378E+03  0.11342764378E+03  0.00000000000E+00 0.  1.
          2   -1    0    0  503    0 -0.00000000000E+00 -0.00000000000E+00 -0.33212733432E+03  0.33212733432E+03  0.00000000000E+00 0. -1.
         24    2    1    2    0    0 -0.97692677027E+01 -0.44300744095E+02 -0.40498639956E+02  0.10157410745E+03  0.81358250638E+02 0.  0.
         23    2    1    2    0    0  0.62729681365E+02  0.12793392434E+02 -0.85846221528E+02  0.14049596102E+03  0.90944254897E+02 0.  0.
        -11    1    3    3    0    0  0.34112629300E+02 -0.21110721828E+02 -0.31785357762E+02  0.51182448378E+02  0.00000000000E+00 0.  1.
         12    1    3    3    0    0 -0.43881897003E+02 -0.23190022267E+02 -0.87132821933E+01  0.50391659071E+02  0.00000000000E+00 0. -1.
        -11    1    4    4    0    0  0.60973292258E+02 -0.11511203315E+02 -0.95827620103E+02  0.11416296661E+03  0.00000000000E+00 0. -1.
         11    1    4    4    0    0  0.17563891077E+01  0.24304595749E+02  0.99813985751E+01  0.26332994412E+02  0.00000000000E+00 0.  1.
         21    1    1    2  503  502 -0.46503349223E+01 -0.28544306463E+02  0.40575652657E+02  0.49827569024E+02  0.00000000000E+00 0.  1.
          1    1    1    2  501    0 -0.48310078740E+02  0.60051658124E+02 -0.13293048171E+03  0.15365734060E+03  0.00000000000E+00 0. -1.
<scales pt_clust_5="13000.00000" pt_clust_6="13000.00000" pt_clust_7="13000.00000" pt_clust_8="13000.00000" pt_clust_9="28.92063" pt_clust_10="13000.00000"></scales>
<clustering>
<clus scale="   28.921">  1  9  2 -1</clus>
<clus scale="   81.358">  5  6 -1 -1</clus>
<clus scale="   90.944">  7  8 -1 -1</clus>
<clus scale="   74.208">  7 10 -1 -1</clus>
<clus scale="  100.087">  2  5  1 -1</clus>
<clus scale="   28.921">  1  5  2 -1</clus>
</clustering>
</event>
<event>
10    4  0.2565852E-005  0.7347513E+03  0.7546771E-02  0.9975083E-01
          2   -1    0    0  502    0 -0.00000000000E+00  0.00000000000E+00  0.23124984883E+04  0.23124984883E+04  0.00000000000E+00 0. -1.
         21   -1    0    0  503  502  0.00000000000E+00 -0.00000000000E+00 -0.29037183344E+03  0.29037183344E+03  0.00000000000E+00 0. -1.
         24    2    1    2    0    0 -0.25127468401E+03  0.16758182290E+02  0.16933418421E+04  0.17136415891E+04  0.75770033692E+02 0.  0.
         23    2    1    2    0    0 -0.15725537998E+03  0.60978403263E+02  0.35230750683E+03  0.40124494110E+03  0.91811236702E+02 0.  0.
        -11    1    3    3    0    0 -0.98436106974E+02  0.94498786143E+01  0.43891530177E+03  0.44991733629E+03  0.00000000000E+00 0.  1.
         12    1    3    3    0    0 -0.15283857703E+03  0.73083036756E+01  0.12544265403E+04  0.12637242528E+04  0.00000000000E+00 0. -1.
        -13    1    4    4    0    0  0.40722731459E+00  0.31460941700E+02  0.64201593823E+02  0.71496862422E+02  0.00000000000E+00 0.  1.
         13    1    4    4    0    0 -0.15766260730E+03  0.29517461563E+02  0.28810591301E+03  0.32974807867E+03  0.00000000000E+00 0. -1.
         21    1    1    2  503  501  0.40548993410E+02  0.77939095017E+02 -0.50251277553E+01  0.87999859702E+02  0.00000000000E+00 0.  1.
          1    1    1    2  501    0  0.36798107058E+03 -0.15567568057E+03 -0.18497566316E+02  0.39998393191E+03  0.00000000000E+00 0. -1.
<scales pt_clust_5="13000.00000" pt_clust_6="13000.00000" pt_clust_7="13000.00000" pt_clust_8="13000.00000" pt_clust_9="87.85627" pt_clust_10="13000.00000"></scales>
<clustering>
<clus scale="   75.770">  5  6 -1 -1</clus>
<clus scale="   87.856">  2  9  1 -1</clus>
<clus scale="   91.811">  7  8 -1 -1</clus>
<clus scale="  261.601">  1  5  2 -1</clus>
<clus scale="  320.313">  7 10 -1 -1</clus>
<clus scale="   87.856">  2  5  1 -1</clus>
</clustering>
</event>
<event>
10    4  0.2565852E-005  0.4631305E+03  0.7546771E-02  0.1075084E+00
         21   -1    0    0  501  502  0.00000000000E+00  0.00000000000E+00  0.87023499773E+02  0.87023499773E+02  0.00000000000E+00 0. -1.
          2   -1    0    0  503    0 -0.00000000000E+00 -0.00000000000E+00 -0.12974973926E+04  0.12974973926E+04  0.00000000000E+00 0. -1.
         24    2    1    2    0    0  0.54831939962E+02 -0.43462201605E+02 -0.14941898027E+03  0.18435991986E+03  0.82262043348E+02 0.  0.
         23    2    1    2    0    0 -0.28320504588E+02 -0.14353126522E+03 -0.16604078185E+03  0.23960594047E+03  0.91859623322E+02 0.  0.
        -11    1    3    3    0    0 -0.17637941627E+02 -0.24858429537E+02 -0.63455582034E+02  0.70396373451E+02  0.00000000000E+00 0.  1.
         12    1    3    3    0    0  0.72469881589E+02 -0.18603772068E+02 -0.85963398237E+02  0.11396354640E+03  0.00000000000E+00 0. -1.
        -13    1    4    4    0    0  0.28278693322E+02 -0.43143220269E+02 -0.24574130663E+02  0.57139389645E+02  0.00000000000E+00 0.  1.
         13    1    4    4    0    0 -0.56599197909E+02 -0.10038804495E+03 -0.14146665119E+03  0.18246655083E+03  0.00000000000E+00 0. -1.
         21    1    1    2  503  502 -0.17040856847E+02 -0.12719079059E+02  0.16786124153E+02  0.27091322195E+02  0.00000000000E+00 0. -1.
          1    1    1    2  501    0 -0.94705785278E+01  0.19971254589E+03 -0.91180025488E+03  0.93346370987E+03  0.00000000000E+00 0. -1.
<scales pt_clust_5="13000.00000" pt_clust_6="13000.00000" pt_clust_7="13000.00000" pt_clust_8="13000.00000" pt_clust_9="21.26419" pt_clust_10="13000.00000"></scales>
<clustering>
<clus scale="   21.264">  1  9  2 -1</clus>
<clus scale="   82.262">  5  6 -1 -1</clus>
<clus scale="   91.860">  7  8 -1 -1</clus>
<clus scale="  107.193">  2  5  1 -1</clus>
<clus scale="  162.490">  7 10 -1 -1</clus>
<clus scale="   21.264">  1  5  2 -1</clus>
</clustering>
</event>
<event>
10    4  0.2565852E-005  0.6369707E+03  0.7546771E-02  0.1004842E+00
          2   -1    0    0  503    0 -0.00000000000E+00  0.00000000000E+00  0.93355090249E+03  0.93355090249E+03  0.00000000000E+00 0. -1.
         21   -1    0    0  501  502  0.00000000000E+00 -0.00000000000E+00 -0.59970691968E+03  0.59970691968E+03  0.00000000000E+00 0. -1.
         24    2    1    2    0    0 -0.33063250196E+03  0.18644904060E+02  0.33443030351E+03  0.47734607401E+03  0.79687907893E+02 0.  0.
         23    2    1    2    0    0 -0.13273196156E+03 -0.39847449468E+02  0.26302298264E+03  0.31237303781E+03  0.95865700373E+02 0.  0.
        -11    1    3    3    0    0 -0.19535128337E+03 -0.28180303340E+02  0.18867379052E+03  0.27304588011E+03  0.00000000000E+00 0.  1.
         12    1    3    3    0    0 -0.13528121859E+03  0.46825207400E+02  0.14575651298E+03  0.20430019390E+03  0.00000000000E+00 0. -1.
        -13    1    4    4    0    0 -0.10197601207E+01 -0.28776872265E+02  0.17959065037E+02  0.33936356685E+02  0.00000000000E+00 0.  1.
         13    1    4    4    0    0 -0.13171220144E+03 -0.11070577203E+02  0.24506391760E+03  0.27843668113E+03  0.00000000000E+00 0. -1.
         21    1    1    2  503  502  0.82806352389E+02  0.44347698421E+02 -0.34168799817E+03  0.35436464051E+03  0.00000000000E+00 0. -1.
          1    1    1    2  501    0  0.38055811113E+03 -0.23145153013E+02  0.78078694830E+02  0.38917406985E+03  0.00000000000E+00 0. -1.
<scales pt_clust_5="13000.00000" pt_clust_6="13000.00000" pt_clust_7="13000.00000" pt_clust_8="13000.00000" pt_clust_9="93.93407" pt_clust_10="13000.00000"></scales>
<clustering>
<clus scale="   79.688">  5  6 -1 -1</clus>
<clus scale="   93.934">  2  9  1 -1</clus>
<clus scale="   95.866">  7  8 -1 -1</clus>
<clus scale="  318.826">  1  5  2 -1</clus>
<clus scale="  269.439">  7 10 -1 -1</clus>
<clus scale="   93.934">  2  5  1 -1</clus>
</clustering>
</event>
<event>
10    4  0.2565852E-005  0.1762331E+03  0.7546771E-02  0.1198516E+00
          2   -1    0    0  502    0 -0.00000000000E+00  0.00000000000E+00  0.30654024727E+03  0.30654024727E+03  0.00000000000E+00 0. -1.
         21   -1    0    0  503  502  0.00000000000E+00 -0.00000000000E+00 -0.14456572832E+03  0.14456572832E+03  0.00000000000E+00 0. -1.
         24    2    1    2    0    0 -0.53251318506E+02 -0.41927583400E+02  0.49437589247E+02  0.11515207985E+03  0.78881563699E+02 0.  0.
         23    2    1    2    0    0 -0.25143647828E+02  0.14937095625E+02  0.17595306488E+03  0.20042345925E+03  0.91404387890E+02 0.  0.
        -13    1    3    3    0    0 -0.45098270821E+02 -0.51277205469E+02  0.65657744889E+02  0.94731965543E+02  0.00000000000E+00 0.  1.
         14    1    3    3    0    0 -0.81530476849E+01  0.93496220690E+01 -0.16220155642E+02  0.20420114310E+02  0.00000000000E+00 0. -1.
        -13    1    4    4    0    0 -0.13756741167E+02 -0.38610711660E+02  0.68448098700E+02  0.79782060628E+02  0.00000000000E+00 0. -1.
         13    1    4    4    0    0 -0.11386906662E+02  0.53547807285E+02  0.10750496618E+03  0.12064139863E+03  0.00000000000E+00 0.  1.
         21    1    1    2  503  501  0.30514332250E+02  0.31458879531E+01 -0.74797459220E+02  0.80843558738E+02  0.00000000000E+00 0. -1.
          1    1    1    2  501    0  0.47880634084E+02  0.23844599822E+02  0.11381324033E+02  0.54686877747E+02  0.00000000000E+00 0. -1.
<scales pt_clust_5="13000.00000" pt_clust_6="13000.00000" pt_clust_7="13000.00000" pt_clust_8="13000.00000" pt_clust_9="30.67607" pt_clust_10="13000.00000"></scales>
<clustering>
<clus scale="   30.676">  2  9  1 -1</clus>
<clus scale="   78.882">  5  6 -1 -1</clus>
<clus scale="   91.404">  7  8 -1 -1</clus>
<clus scale="   62.903">  7 10 -1 -1</clus>
<clus scale="   96.511">  1  5  2 -1</clus>
<clus scale="   30.676">  2  5  1 -1</clus>
</clustering>
</event>
<event>
10    4  0.2565852E-005  0.2785458E+03  0.7546771E-02  0.1143561E+00
          2   -1    0    0  502    0 -0.00000000000E+00  0.00000000000E+00  0.85435305862E+03  0.85435305862E+03  0.00000000000E+00 0. -1.
         21   -1    0    0  503  502  0.00000000000E+00 -0.00000000000E+00 -0.74787608001E+02  0.74787608001E+02  0.00000000000E+00 0. -1.
         24    2    1    2    0    0 -0.35397486260E+02  0.69194955870E+01  0.42894989956E+03  0.43768248938E+03  0.79164914738E+02 0.  0.
         23    2    1    2    0    0 -0.86743651108E+02  0.10053005830E+03  0.17020329724E+03  0.23306463343E+03  0.87859019656E+02 0.  0.
        -11    1    3    3    0    0 -0.32977520989E+02 -0.11063352230E+02  0.68963656061E+02  0.77239242037E+02  0.00000000000E+00 0.  1.
         12    1    3    3    0    0 -0.24199652713E+01  0.17982847817E+02  0.35998624350E+03  0.36044324735E+03  0.00000000000E+00 0. -1.
        -13    1    4    4    0    0 -0.73645532341E+02  0.32391078910E+02  0.12997318070E+03  0.15285900081E+03  0.00000000000E+00 0.  1.
         13    1    4    4    0    0 -0.13098118767E+02  0.68138979390E+02  0.40230116545E+02  0.80205632625E+02  0.00000000000E+00 0. -1.
         21    1    1    2  503  501  0.31936463932E+02 -0.34267934172E+02  0.37862173757E+01  0.46995366611E+02  0.00000000000E+00 0. -1.
          1    1    1    2  501    0  0.90204673436E+02 -0.73181619716E+02  0.17662603644E+03  0.21139817720E+03  0.00000000000E+00 0. -1.
<scales pt_clust_5="13000.00000" pt_clust_6="13000.00000" pt_clust_7="13000.00000" pt_clust_8="13000.00000" pt_clust_9="46.84260" pt_clust_10="13000.00000"></scales>
<clustering>
<clus scale="   46.843">  2  9  1 -1</clus>
<clus scale="   79.165">  5  6 -1 -1</clus>
<clus scale="   85.780">  1  5  2 -1</clus>
<clus scale="   87.859">  7  8 -1 -1</clus>
<clus scale="  115.231">  7 10 -1 -1</clus>
<clus scale="   46.843">  2  5  1 -1</clus>
</clustering>
</event>
<event>
10    4  0.2565852E-005  0.1696314E+03  0.7546771E-02  0.1210286E+00
          4   -1    0    0  503    0 -0.00000000000E+00  0.00000000000E+00  0.10653828345E+03  0.10653828345E+03  0.00000000000E+00 0. -1.
         21   -1    0    0  501  502  0.00000000000E+00 -0.00000000000E+00 -0.24991008672E+03  0.24991008672E+03  0.00000000000E+00 0. -1.
         24    2    1    2    0    0 -0.10859630224E+02 -0.19309998092E+02  0.34596482929E+02  0.90028369423E+02  0.80108570546E+02 0.  0.
         23    2    1    2    0    0 -0.92211680270E+01 -0.23556890359E+02 -0.11738232142E+03  0.15116726933E+03  0.91831241474E+02 0.  0.
        -11    1    3    3    0    0  0.24597189719E+02  0.86637158162E+00 -0.12595098850E+02  0.27647944893E+02  0.00000000000E+00 0.  1.
         12    1    3    3    0    0 -0.35456819943E+02 -0.20176369674E+02  0.47191581779E+02  0.62380424529E+02  0.00000000000E+00 0. -1.
        -13    1    4    4    0    0 -0.27577791324E+02 -0.34967791747E+02 -0.12128577563E+03  0.12920340709E+03  0.00000000000E+00 0. -1.
         13    1    4    4    0    0  0.18356623297E+02  0.11410901388E+02  0.39034542135E+01  0.21963862232E+02  0.00000000000E+00 0.  1.
         21    1    1    2  503  502 -0.10367819133E+02 -0.21174963571E+02 -0.29663948410E+02  0.37892223359E+02  0.00000000000E+00 0. -1.
          3    1    1    2  501    0  0.30448617384E+02  0.64041852022E+02 -0.30922016365E+02  0.77360508059E+02  0.00000000000E+00 0. -1.
<scales pt_clust_5="13000.00000" pt_clust_6="13000.00000" pt_clust_7="13000.00000" pt_clust_8="13000.00000" pt_clust_9="23.57691" pt_clust_10="13000.00000"></scales>
<clustering>
<clus scale="   23.577">  2  9  1 -1</clus>
<clus scale="   80.109">  5  6 -1 -1</clus>
<clus scale="   83.971">  1  5  2 -1</clus>
<clus scale="   91.831">  7  8 -1 -1</clus>
<clus scale="   52.928">  7 10 -1 -1</clus>
<clus scale="   23.577">  2  5  1 -1</clus>
</clustering>
</event>
<event>
10    4  0.2565852E-005  0.4492633E+03  0.7546771E-02  0.1040112E+00
          2   -1    0    0  502    0 -0.00000000000E+00  0.00000000000E+00  0.91359738110E+03  0.91359738110E+03  0.00000000000E+00 0. -1.
         21   -1    0    0  503  502  0.00000000000E+00 -0.00000000000E+00 -0.38305403811E+03  0.38305403811E+03  0.00000000000E+00 0.  1.
         24    2    1    2    0    0  0.40356630621E+03  0.60492972499E+01  0.49563254448E+03  0.64439376648E+03  0.81788444335E+02 0.  0.
         23    2    1    2    0    0 -0.12887674307E+02  0.10211828781E+03 -0.68483439730E+02  0.15402780021E+03  0.91871349548E+02 0.  0.
        -11    1    3    3    0    0  0.13842320480E+03  0.27294861138E+02  0.21993381084E+03  0.26129843899E+03  0.00000000000E+00 0.  1.
         12    1    3    3    0    0  0.26514310140E+03 -0.21245563889E+02  0.27569873365E+03  0.38309532749E+03  0.00000000000E+00 0. -1.
        -11    1    4    4    0    0  0.13314908401E+02  0.63248307863E+02 -0.82775017897E+02  0.10502065902E+03  0.00000000000E+00 0.  1.
         11    1    4    4    0    0 -0.26202582708E+02  0.38869979943E+02  0.14291578167E+02  0.49007141192E+02  0.00000000000E+00 0. -1.
         21    1    1    2  503  501 -0.29168832965E+03 -0.21729245030E+01 -0.39824678346E+02  0.29440245967E+03  0.00000000000E+00 0.  1.
          1    1    1    2  501    0 -0.98990302249E+02 -0.10599466055E+03  0.14321891658E+03  0.20382739284E+03  0.00000000000E+00 0. -1.
<scales pt_clust_5="13000.00000" pt_clust_6="13000.00000" pt_clust_7="13000.00000" pt_clust_8="13000.00000" pt_clust_9="291.69642" pt_clust_10="13000.00000"></scales>
<clustering>
<clus scale="   81.788">  5  6 -1 -1</clus>
<clus scale="   91.871">  7  8 -1 -1</clus>
<clus scale="  145.031">  7 10 -1 -1</clus>
<clus scale="  291.696">  2  9  1 -1</clus>
<clus scale="  313.980">  1  5  2 -1</clus>
<clus scale="  291.696">  2  5  1 -1</clus>
</clustering>
</event>
<event>
10    4  0.2565852E-005  0.6016717E+03  0.7546771E-02  0.1051335E+00
         21   -1    0    0  501  502  0.00000000000E+00  0.00000000000E+00  0.36730949534E+03  0.36730949534E+03  0.00000000000E+00 0. -1.
          2   -1    0    0  503    0 -0.00000000000E+00 -0.00000000000E+00 -0.45557317941E+03  0.45557317941E+03  0.00000000000E+00 0. -1.
         24    2    1    2    0    0  0.34673236495E+02  0.36309368085E+02  0.80930818451E+02  0.12515946931E+03  0.81206476613E+02 0.  0.
         23    2    1    2    0    0 -0.26394480712E+02 -0.98046004084E+02  0.18649309622E+03  0.23156638373E+03  0.92377635859E+02 0.  0.
        -11    1    3    3    0    0  0.60087290938E+02  0.15113349589E+02  0.47048930623E+02  0.77797800360E+02  0.00000000000E+00 0.  1.
         12    1    3    3    0    0 -0.25414054442E+02  0.21196018496E+02  0.33881887829E+02  0.47361668954E+02  0.00000000000E+00 0. -1.
        -11    1    4    4    0    0  0.99131207610E+01 -0.76758209040E+02  0.59040002914E+02  0.97343795706E+02  0.00000000000E+00 0. -1.
         11    1    4    4    0    0 -0.36307601473E+02 -0.21287795044E+02  0.12745309331E+03  0.13422258802E+03  0.00000000000E+00 0.  1.
         21    1    1    2  503  502 -0.24336298131E+02  0.13166844646E+02  0.50059500717E+02  0.57197681917E+02  0.00000000000E+00 0.  1.
          1    1    1    2  501    0  0.16057542347E+02  0.48569791353E+02 -0.40574709946E+03  0.40895913979E+03  0.00000000000E+00 0. -1.
<scales pt_clust_5="13000.00000" pt_clust_6="13000.00000" pt_clust_7="13000.00000" pt_clust_8="13000.00000" pt_clust_9="27.66986" pt_clust_10="13000.00000"></scales>
<clustering>
<clus scale="   27.670">  1  9  2 -1</clus>
<clus scale="   81.206">  5  6 -1 -1</clus>
<clus scale="   92.378">  7  8 -1 -1</clus>
<clus scale="   51.180">  7 10 -1 -1</clus>
<clus scale="   94.644">  2  5  1 -1</clus>
<clus scale="   27.670">  1  5  2 -1</clus>
</clustering>
</event>
<event>
10    4  0.2565852E-005  0.4100060E+03  0.7546771E-02  0.1075213E+00
          2   -1    0    0  502    0 -0.00000000000E+00  0.00000000000E+00  0.59435495830E+03  0.59435495830E+03  0.00000000000E+00 0. -1.
         21   -1    0    0  503  502  0.00000000000E+00 -0.00000000000E+00 -0.51950132988E+03  0.51950132988E+03  0.00000000000E+00 0. -1.
         24    2    1    2    0    0 -0.73493694862E+02 -0.10918569586E+03  0.32203125217E+03  0.35707358725E+03  0.80464774706E+02 0.  0.
         23    2    1    2    0    0 -0.52257049685E+02  0.26335530383E+02  0.20806874436E+03  0.23848307080E+03  0.10078300093E+03 0.  0.
        -11    1    3    3    0    0  0.10576100817E+02 -0.25820728410E+02  0.25576517520E+02  0.37851316656E+02  0.00000000000E+00 0.  1.
         12    1    3    3    0    0 -0.84069795678E+02 -0.83364967448E+02  0.29645473465E+03  0.31922227059E+03  0.00000000000E+00 0. -1.
        -11    1    4    4    0    0 -0.19188748315E+02 -0.27191975503E+02  0.17100744944E+02  0.37417202879E+02  0.00000000000E+00 0.  1.
         11    1    4    4    0    0 -0.33068301369E+02  0.53527505886E+02  0.19096799942E+03  0.20106586792E+03  0.00000000000E+00 0. -1.
         21    1    1    2  503  501  0.43551077558E+02 -0.23551470114E+02 -0.33274278497E+03  0.33640619651E+03  0.00000000000E+00 0. -1.
          1    1    1    2  501    0  0.82199666988E+02  0.10640163559E+03 -0.12250358315E+03  0.18189343362E+03  0.00000000000E+00 0. -1.
<scales pt_clust_5="13000.00000" pt_clust_6="13000.00000" pt_clust_7="13000.00000" pt_clust_8="13000.00000" pt_clust_9="49.51129" pt_clust_10="13000.00000"></scales>
<clustering>
<clus scale="   49.511">  2  9  1 -1</clus>
<clus scale="   80.465">  5  6 -1 -1</clus>
<clus scale="  100.783">  7  8 -1 -1</clus>
<clus scale="  146.651">  7 10 -1 -1</clus>
<clus scale="  153.949">  1  5  2 -1</clus>
<clus scale="   49.511">  2  5  1 -1</clus>
</clustering>
</event>
<event>
10    4  0.2565852E-005  0.2443029E+03  0.7546771E-02  0.1142315E+00
         -3   -1    0    0    0  501 -0.00000000000E+00  0.00000000000E+00  0.29792604592E+03  0.29792604592E+03  0.00000000000E+00 0.  1.
         21   -1    0    0  503  502  0.00000000000E+00 -0.00000000000E+00 -0.20646371258E+03  0.20646371258E+03  0.00000000000E+00 0. -1.
         24    2    1    2    0    0  0.12710250868E+03  0.36515640245E+02 -0.17516417267E+02  0.15563095050E+03  0.80160639861E+02 0.  0.
         23    2    1    2    0    0 -0.11480165114E+03 -0.49920622399E+01  0.61947347510E+02  0.15973727111E+03  0.92055321021E+02 0.  0.
        -13    1    3    3    0    0  0.85528436057E+02 -0.59634945471E+01  0.16262872910E+02  0.87264870806E+02  0.00000000000E+00 0.  1.
         14    1    3    3    0    0  0.41574072624E+02  0.42479134792E+02 -0.33779290177E+02  0.68366079690E+02  0.00000000000E+00 0. -1.
        -13    1    4    4    0    0 -0.54265804621E+02 -0.12087699392E+02  0.78857015123E+02  0.96484811561E+02  0.00000000000E+00 0.  1.
         13    1    4    4    0    0 -0.60535846517E+02  0.70956371522E+01 -0.16909667613E+02  0.63252459548E+02  0.00000000000E+00 0. -1.
         21    1    1    2  503  501 -0.73419224549E+02  0.35209155491E+02 -0.10031384174E+02  0.82040818086E+02  0.00000000000E+00 0.  1.
         -4    1    1    2    0  502  0.61118367007E+02 -0.66732733497E+02  0.57062787275E+02  0.10698071881E+03  0.00000000000E+00 0.  1.
<scales pt_clust_5="13000.00000" pt_clust_6="13000.00000" pt_clust_7="13000.00000" pt_clust_8="13000.00000" pt_clust_9="81.42522" pt_clust_10="13000.00000"></scales>
<clustering>
<clus scale="   80.161">  5  6 -1 -1</clus>
<clus scale="   81.425">  2  9  1 -1</clus>
<clus scale="   92.055">  7  8 -1 -1</clus>
<clus scale="   78.879">  7 10 -1 -1</clus>
<clus scale="  131.000">  1  5  2 -1</clus>
<clus scale="   81.425">  2  5  1 -1</clus>
</clustering>
</event>
<event>
10    4  0.2565852E-005  0.3348191E+03  0.7546771E-02  0.1102484E+00
          4   -1    0    0  503    0 -0.00000000000E+00  0.00000000000E+00  0.31422196481E+03  0.31422196481E+03  0.00000000000E+00 0. -1.
         21   -1    0    0  501  502  0.00000000000E+00 -0.00000000000E+00 -0.80193454652E+03  0.80193454652E+03  0.00000000000E+00 0.  1.
         24    2    1    2    0    0 -0.96115199128E+02 -0.10925301458E+03 -0.20933456982E+03  0.26711438589E+03  0.79716876050E+02 0.  0.
         23    2    1    2    0    0 -0.86417664343E+02  0.19806907827E+03  0.11705112829E+03  0.26331846460E+03  0.94531871290E+02 0.  0.
        -13    1    3    3    0    0 -0.91901725265E+02 -0.10309003651E+03 -0.13746881091E+03  0.19486189137E+03  0.00000000000E+00 0.  1.
         14    1    3    3    0    0 -0.42134738638E+01 -0.61629780754E+01 -0.71865758911E+02  0.72252494522E+02  0.00000000000E+00 0. -1.
        -11    1    4    4    0    0 -0.99061944670E+01  0.13863382234E+03  0.68688415947E+02  0.15503408616E+03  0.00000000000E+00 0.  1.
         11    1    4    4    0    0 -0.76511469876E+02  0.59435255927E+02  0.48362712345E+02  0.10828437844E+03  0.00000000000E+00 0. -1.
         21    1    1    2  503  502  0.12924091671E+03 -0.33193206522E+01 -0.45203842052E+03  0.47016270170E+03  0.00000000000E+00 0.  1.
          3    1    1    2  501    0  0.53291946762E+02 -0.85496743029E+02  0.56609280338E+02  0.11556095915E+03  0.00000000000E+00 0. -1.
<scales pt_clust_5="13000.00000" pt_clust_6="13000.00000" pt_clust_7="13000.00000" pt_clust_8="13000.00000" pt_clust_9="129.28354" pt_clust_10="13000.00000"></scales>
<clustering>
<clus scale="   79.717">  5  6 -1 -1</clus>
<clus scale="   94.532">  7  8 -1 -1</clus>
<clus scale="  100.746">  7 10 -1 -1</clus>
<clus scale="  129.284">  2  9  1 -1</clus>
<clus scale="  137.247">  1  5  2 -1</clus>
<clus scale="  129.284">  2  5  1 -1</clus>
</clustering>
</event>
<event>
10    4  0.2565852E-005  0.3152582E+03  0.7546771E-02  0.1096766E+00
          2   -1    0    0  503    0 -0.00000000000E+00  0.00000000000E+00  0.16774278444E+04  0.16774278444E+04  0.00000000000E+00 0. -1.
         21   -1    0    0  501  502  0.00000000000E+00 -0.00000000000E+00 -0.22821368471E+03  0.22821368471E+03  0.00000000000E+00 0.  1.
         24    2    1    2    0    0  0.14530955200E+03 -0.83072128446E+02  0.85775557297E+03  0.87791731403E+03  0.83536476416E+02 0.  0.
         23    2    1    2    0    0 -0.16021557074E+03  0.11173010788E+03  0.35063270160E+03  0.41150746048E+03  0.90787953410E+02 0.  0.
        -11    1    3    3    0    0  0.55318511338E+02 -0.55011237006E+02  0.22416213635E+03  0.23735003111E+03  0.00000000000E+00 0.  1.
         12    1    3    3    0    0  0.89991040660E+02 -0.28060891440E+02  0.63359343661E+03  0.64056728292E+03  0.00000000000E+00 0. -1.
        -11    1    4    4    0    0 -0.11131640433E+03  0.94903093748E+02  0.17327625895E+03  0.22676551985E+03  0.00000000000E+00 0.  1.
         11    1    4    4    0    0 -0.48899166418E+02  0.16827014137E+02  0.17735644265E+03  0.18474194063E+03  0.00000000000E+00 0. -1.
         21    1    1    2  503  502  0.35525617382E+02  0.29900371329E+02 -0.18252463215E+03  0.18833837378E+03  0.00000000000E+00 0.  1.
          1    1    1    2  501    0 -0.20619598636E+02 -0.58558350768E+02  0.42335051730E+03  0.42787838084E+03  0.00000000000E+00 0. -1.
<scales pt_clust_5="13000.00000" pt_clust_6="13000.00000" pt_clust_7="13000.00000" pt_clust_8="13000.00000" pt_clust_9="46.43384" pt_clust_10="13000.00000"></scales>
<clustering>
<clus scale="   46.434">  2  9  1 -1</clus>
<clus scale="   83.536">  5  6 -1 -1</clus>
<clus scale="   90.788">  7  8 -1 -1</clus>
<clus scale="   59.979">  7 10 -1 -1</clus>
<clus scale="  190.725">  1  5  2 -1</clus>
<clus scale="   46.434">  2  5  1 -1</clus>
</clustering>
</event>
<event>
10    4  0.2565852E-005  0.1301751E+03  0.7546771E-02  0.1244077E+00
          2   -1    0    0  503    0 -0.00000000000E+00  0.00000000000E+00  0.21276207226E+03  0.21276207226E+03  0.00000000000E+00 0. -1.
         21   -1    0    0  501  502  0.00000000000E+00 -0.00000000000E+00 -0.36339711944E+03  0.36339711944E+03  0.00000000000E+00 0.  1.
         24    2    1    2    0    0 -0.48210353991E+02  0.47415899751E+02  0.36850910528E+02  0.11123259387E+03  0.80263282714E+02 0.  0.
         23    2    1    2    0    0  0.30628028767E+02 -0.15335767209E+02  0.10105782047E+03  0.14068357945E+03  0.91683829255E+02 0.  0.
        -11    1    3    3    0    0 -0.41222594656E+02 -0.13609165451E+02  0.17843560017E+02  0.46935107633E+02  0.00000000000E+00 0.  1.
         12    1    3    3    0    0 -0.69877593345E+01  0.61025065202E+02  0.19007350511E+02  0.64297486241E+02  0.00000000000E+00 0. -1.
        -13    1    4    4    0    0  0.80927164899E+01  0.29115007537E+02  0.25990965490E+01  0.30330364767E+02  0.00000000000E+00 0.  1.
         13    1    4    4    0    0  0.22535312277E+02 -0.44450774746E+02  0.98458723920E+02  0.11035321468E+03  0.00000000000E+00 0. -1.
         21    1    1    2  503  502  0.10854661641E+02 -0.56064626657E+02 -0.29336431879E+03  0.29887069040E+03  0.00000000000E+00 0.  1.
          1    1    1    2  501    0  0.67276635826E+01  0.23984494114E+02  0.48205406107E+01  0.25372327977E+02  0.00000000000E+00 0. -1.
<scales pt_clust_5="13000.00000" pt_clust_6="13000.00000" pt_clust_7="13000.00000" pt_clust_8="13000.00000" pt_clust_9="57.10574" pt_clust_10="13000.00000"></scales>
<clustering>
<clus scale="   57.106">  2  9  1 -1</clus>
<clus scale="   80.263">  5  6 -1 -1</clus>
<clus scale="   91.684">  7  8 -1 -1</clus>
<clus scale="   17.554">  7 10 -1 -1</clus>
<clus scale="   92.161">  1  5  2 -1</clus>
<clus scale="   57.106">  2  5  1 -1</clus>
</clustering>
</event>
<event>
10    4  0.2565852E-005  0.1973173E+03  0.7546771E-02  0.1181336E+00
          4   -1    0    0  503    0 -0.00000000000E+00  0.00000000000E+00  0.56123198650E+03  0.56123198650E+03  0.00000000000E+00 0. -1.
         21   -1    0    0  501  502  0.00000000000E+00 -0.00000000000E+00 -0.68507102320E+02  0.68507102320E+02  0.00000000000E+00 0. -1.
         24    2    1    2    0    0 -0.64160950315E+02  0.83967051424E+01  0.27194299632E+03  0.29071749616E+03  0.79853222388E+02 0.  0.
         23    2    1    2    0    0 -0.26626145574E+02  0.15650833206E+02  0.54762917884E+02  0.10679830407E+03  0.86330761433E+02 0.  0.
        -11    1    3    3    0    0  0.95532620213E+01 -0.20893628030E+02  0.49980574923E+02  0.55007875592E+02  0.00000000000E+00 0.  1.
         12    1    3    3    0    0 -0.73714212337E+02  0.29290333173E+02  0.22196242140E+03  0.23570962057E+03  0.00000000000E+00 0. -1.
        -11    1    4    4    0    0 -0.20601670388E+02 -0.21453435608E+02  0.61772336548E+02  0.68560194608E+02  0.00000000000E+00 0.  1.
         11    1    4    4    0    0 -0.60244751861E+01  0.37104268814E+02 -0.70094186638E+01  0.38238109465E+02  0.00000000000E+00 0. -1.
         21    1    1    2  503  502  0.21994607088E+02  0.24006972361E+02 -0.12570591411E+02  0.34901536231E+02  0.00000000000E+00 0. -1.
          3    1    1    2  501    0  0.68792488801E+02 -0.48054510708E+02  0.17858956138E+03  0.19732175235E+03  0.00000000000E+00 0. -1.
<scales pt_clust_5="13000.00000" pt_clust_6="13000.00000" pt_clust_7="13000.00000" pt_clust_8="13000.00000" pt_clust_9="32.55914" pt_clust_10="13000.00000"></scales>
<clustering>
<clus scale="   32.559">  2  9  1 -1</clus>
<clus scale="   79.853">  5  6 -1 -1</clus>
<clus scale="   86.331">  7  8 -1 -1</clus>
<clus scale="   85.079">  7 10 -1 -1</clus>
<clus scale="  100.514">  1  5  2 -1</clus>
<clus scale="   32.559">  2  5  1 -1</clus>
</clustering>
</event>
<event>
10    4  0.2565852E-005  0.1445130E+03  0.7546771E-02  0.1229696E+00
         21   -1    0    0  501  502  0.00000000000E+00  0.00000000000E+00  0.75558758797E+02  0.75558758797E+02  0.00000000000E+00 0. -1.
          2   -1    0    0  503    0 -0.00000000000E+00 -0.00000000000E+00 -0.32646981686E+03  0.32646981686E+03  0.00000000000E+00 0. -1.
         24    2    1    2    0    0  0.32104332539E+02 -0.32280872504E+02 -0.10836528168E+03  0.14247960751E+03  0.80527395243E+02 0.  0.
         23    2    1    2    0    0  0.12191100287E+01 -0.41777846256E+01 -0.72941114327E+02  0.11673820048E+03  0.91040986258E+02 0.  0.
        -11    1    3    3    0    0  0.12671747657E+01 -0.43743767666E+02 -0.19860167292E+02  0.48057769261E+02  0.00000000000E+00 0.  1.
         12    1    3    3    0    0  0.30837157774E+02  0.11462895161E+02 -0.88505114390E+02  0.94421838248E+02  0.00000000000E+00 0. -1.
        -13    1    4    4    0    0 -0.16069498593E+02  0.34594181727E+02 -0.77191891673E+01  0.38917503463E+02  0.00000000000E+00 0.  1.
         13    1    4    4    0    0  0.17288608622E+02 -0.38771966353E+02 -0.65221925159E+02  0.77820697018E+02  0.00000000000E+00 0. -1.
         21    1    1    2  503  502 -0.22083077238E+02 -0.34297677636E+01  0.28555653839E+02  0.36260873864E+02  0.00000000000E+00 0. -1.
          1    1    1    2  501    0 -0.11240365330E+02  0.39888424894E+02 -0.98160315889E+02  0.10654989380E+03  0.00000000000E+00 0. -1.
<scales pt_clust_5="13000.00000" pt_clust_6="13000.00000" pt_clust_7="13000.00000" pt_clust_8="13000.00000" pt_clust_9="22.34783" pt_clust_10="13000.00000"></scales>
<clustering>
<clus scale="   22.348">  1  9  2 -1</clus>
<clus scale="   80.527">  5  6 -1 -1</clus>
<clus scale="   90.346">  2  5  1 -1</clus>
<clus scale="   91.041">  7  8 -1 -1</clus>
<clus scale="   22.422">  7 10 -1 -1</clus>
<clus scale="   22.348">  1  5  2 -1</clus>
</clustering>
</event>
<event>
10    4  0.2565852E-005  0.2451975E+03  0.7546771E-02  0.1157559E+00
         21   -1    0    0  501  502  0.00000000000E+00  0.00000000000E+00  0.11454805680E+03  0.11454805680E+03  0.00000000000E+00 0. -1.
          4   -1    0    0  503    0 -0.00000000000E+00 -0.00000000000E+00 -0.58912346673E+03  0.58912346673E+03  0.00000000000E+00 0. -1.
         24    2    1    2    0    0 -0.27219661610E+02  0.18424898306E+02 -0.15831801175E+03  0.18163428297E+03  0.82740758085E+02 0.  0.
         23    2    1    2    0    0  0.28863138665E+02  0.76733432843E+02 -0.23957735679E+03  0.26991301422E+03  0.93459215008E+02 0.  0.
        -13    1    3    3    0    0 -0.17738241942E+02  0.43963207744E+02 -0.14239795670E+03  0.15008193408E+03  0.00000000000E+00 0.  1.
         14    1    3    3    0    0 -0.94814196675E+01 -0.25538309439E+02 -0.15920055048E+02  0.31552348892E+02  0.00000000000E+00 0. -1.
        -11    1    4    4    0    0  0.43995785380E+02 -0.18470308796E+01 -0.93569964631E+02  0.10341363032E+03  0.00000000000E+00 0.  1.
         11    1    4    4    0    0 -0.15132646714E+02  0.78580463723E+02 -0.14600739216E+03  0.16649938390E+03  0.00000000000E+00 0. -1.
         21    1    1    2  503  502  0.84161141997E+00  0.23078493586E+02  0.64175740628E+02  0.68204478306E+02  0.00000000000E+00 0. -1.
          3    1    1    2  501    0 -0.24850884757E+01 -0.11823682473E+03 -0.14085578203E+03  0.18391974804E+03  0.00000000000E+00 0. -1.
<scales pt_clust_5="13000.00000" pt_clust_6="13000.00000" pt_clust_7="13000.00000" pt_clust_8="13000.00000" pt_clust_9="23.09383" pt_clust_10="13000.00000"></scales>
<clustering>
<clus scale="   23.094">  1  9  2 -1</clus>
<clus scale="   82.741">  5  6 -1 -1</clus>
<clus scale="   90.285">  2  5  1 -1</clus>
<clus scale="   93.459">  7  8 -1 -1</clus>
<clus scale="  100.605">  7 10 -1 -1</clus>
<clus scale="   23.094">  1  5  2 -1</clus>
</clustering>
</event>
<event>
10    4  0.2565852E-005  0.4936988E+03  0.7546771E-02  0.1072190E+00
         21   -1    0    0  501  502  0.00000000000E+00  0.00000000000E+00  0.70757959123E+03  0.70757959123E+03  0.00000000000E+00 0. -1.
          2   -1    0    0  503    0 -0.00000000000E+00 -0.00000000000E+00 -0.14479539213E+03  0.14479539213E+03  0.00000000000E+00 0. -1.
         24    2    1    2    0    0 -0.45660740943E+02 -0.16012152508E+02  0.21645439909E+02  0.97109204384E+02  0.81365718923E+02 0.  0.
         23    2    1    2    0    0 -0.54931177018E+02  0.15445901966E+03  0.52469555433E+03  0.55722466305E+03  0.91207880250E+02 0.  0.
        -13    1    3    3    0    0 -0.44412724045E+02 -0.31677325115E+02 -0.15554287375E+02  0.56726350485E+02  0.00000000000E+00 0.  1.
         14    1    3    3    0    0 -0.12480168973E+01  0.15665172607E+02  0.37199727284E+02  0.40382853899E+02  0.00000000000E+00 0. -1.
        -13    1    4    4    0    0 -0.75425832442E+02  0.11071445687E+03  0.43738520621E+03  0.45744132494E+03  0.00000000000E+00 0. -1.
         13    1    4    4    0    0  0.20494655424E+02  0.43744562793E+02  0.87310348125E+02  0.99783338111E+02  0.00000000000E+00 0.  1.
         21    1    1    2  503  502 -0.18756777447E+02 -0.19351262116E+02  0.11669811659E+02  0.29367882965E+02  0.00000000000E+00 0. -1.
          1    1    1    2  501    0  0.11934869541E+03 -0.11909560503E+03  0.47733932031E+01  0.16867323296E+03  0.00000000000E+00 0. -1.
<scales pt_clust_5="13000.00000" pt_clust_6="13000.00000" pt_clust_7="13000.00000" pt_clust_8="13000.00000" pt_clust_9="26.94975" pt_clust_10="13000.00000"></scales>
<clustering>
<clus scale="   26.950">  1  9  2 -1</clus>
<clus scale="   81.366">  5  6 -1 -1</clus>
<clus scale="   91.208">  7  8 -1 -1</clus>
<clus scale="   95.753">  2  5  1 -1</clus>
<clus scale="  157.188">  7 10 -1 -1</clus>
<clus scale="   26.950">  1  5  2 -1</clus>
</clustering>
</event>
<event>
10    4  0.2565852E-005  0.3150687E+03  0.7546771E-02  0.1123125E+00
          2   -1    0    0  503    0 -0.00000000000E+00  0.00000000000E+00  0.11533416389E+04  0.11533416389E+04  0.00000000000E+00 0. -1.
         21   -1    0    0  501  502  0.00000000000E+00 -0.00000000000E+00 -0.20707339735E+03  0.20707339735E+03  0.00000000000E+00 0. -1.
         24    2    1    2    0    0 -0.31629181200E+02  0.40543469499E+02  0.13516386695E+03  0.16672884636E+03  0.82976257193E+02 0.  0.
         23    2    1    2    0    0  0.73648946886E+02  0.15411693242E+03  0.38929980350E+03  0.43528512927E+03  0.93501927910E+02 0.  0.
        -13    1    3    3    0    0 -0.30339655951E+02  0.63570543416E+02  0.11993857819E+03  0.13909339040E+03  0.00000000000E+00 0.  1.
         14    1    3    3    0    0 -0.12895252486E+01 -0.23027073917E+02  0.15225288757E+02  0.27635455964E+02  0.00000000000E+00 0. -1.
        -11    1    4    4    0    0  0.32077988589E+02  0.31046963394E+01  0.11484816562E+03  0.11928427238E+03  0.00000000000E+00 0.  1.
         11    1    4    4    0    0  0.41570958296E+02  0.15101223608E+03  0.27445163789E+03  0.31600085689E+03  0.00000000000E+00 0. -1.
         21    1    1    2  503  502 -0.11065687425E+03 -0.18003573753E+03 -0.98664550020E+02  0.23322200590E+03  0.00000000000E+00 0. -1.
          1    1    1    2  501    0  0.68637108560E+02 -0.14624664386E+02  0.52046912115E+03  0.52517905475E+03  0.00000000000E+00 0. -1.
<scales pt_clust_5="13000.00000" pt_clust_6="13000.00000" pt_clust_7="13000.00000" pt_clust_8="13000.00000" pt_clust_9="210.14215" pt_clust_10="13000.00000"></scales>
<clustering>
<clus scale="   82.976">  5  6 -1 -1</clus>
<clus scale="   93.502">  7  8 -1 -1</clus>
<clus scale="   70.178">  7 10 -1 -1</clus>
<clus scale="   97.618">  1  5  2 -1</clus>
<clus scale="  210.142">  2  9  1 -1</clus>
<clus scale="  210.142">  2  5  1 -1</clus>
</clustering>
</event>
<event>
10    4  0.2565852E-005  0.7906829E+03  0.7546771E-02  0.9603171E-01
         21   -1    0    0  501  502  0.00000000000E+00  0.00000000000E+00  0.84480979629E+03  0.84480979629E+03  0.00000000000E+00 0. -1.
          2   -1    0    0  503    0 -0.00000000000E+00 -0.00000000000E+00 -0.16406436113E+04  0.16406436113E+04  0.00000000000E+00 0. -1.
         24    2    1    2    0    0  0.55215008806E+03  0.37424750262E+03 -0.94699509226E+03  0.11611732745E+04  0.81195785830E+02 0.  0.
         23    2    1    2    0    0 -0.31477395302E+03 -0.14554105631E+02 -0.10521384384E+02  0.32805957554E+03  0.90652755531E+02 0.  0.
        -13    1    3    3    0    0  0.31756355395E+03  0.21030881920E+03 -0.47064621134E+03  0.60546202728E+03  0.00000000000E+00 0.  1.
         14    1    3    3    0    0  0.23458653411E+03  0.16393868341E+03 -0.47634888092E+03  0.55571124720E+03  0.00000000000E+00 0. -1.
        -11    1    4    4    0    0 -0.33647969340E+02 -0.22142638980E+02 -0.23313653698E+02  0.46540399122E+02  0.00000000000E+00 0.  1.
         11    1    4    4    0    0 -0.28112598368E+03  0.75885333491E+01  0.12792269313E+02  0.28151917642E+03  0.00000000000E+00 0. -1.
         21    1    1    2  503  502  0.29443981941E+03  0.57880916939E+02 -0.38117785593E+01  0.30009921269E+03  0.00000000000E+00 0.  1.
          1    1    1    2  501    0 -0.53181595445E+03 -0.41757431393E+03  0.16549444019E+03  0.69612134488E+03  0.00000000000E+00 0. -1.
<scales pt_clust_5="13000.00000" pt_clust_6="13000.00000" pt_clust_7="13000.00000" pt_clust_8="13000.00000" pt_clust_9="300.07500" pt_clust_10="13000.00000"></scales>
<clustering>
<clus scale="   81.196">  5  6 -1 -1</clus>
<clus scale="   90.653">  7  8 -1 -1</clus>
<clus scale="  300.075">  1  9  2 -1</clus>
<clus scale="  517.759">  7 10 -1 -1</clus>
<clus scale="  714.347">  2  5  1 -1</clus>
<clus scale="  300.075">  1  5  2 -1</clus>
</clustering>
</event>
<event>
10    4  0.2565852E-005  0.2763004E+03  0.7546771E-02  0.1145189E+00
         21   -1    0    0  503  502  0.00000000000E+00  0.00000000000E+00  0.16247445237E+03  0.16247445237E+03  0.00000000000E+00 0.  1.
          2   -1    0    0  502    0 -0.00000000000E+00 -0.00000000000E+00 -0.97505326366E+03  0.97505326366E+03  0.00000000000E+00 0. -1.
         24    2    1    2    0    0  0.19450420817E+02 -0.16196545651E+02 -0.82092331365E+03  0.82527579956E+03  0.80773829217E+02 0.  0.
         23    2    1    2    0    0 -0.10684502530E+03  0.23500353504E+02  0.38950115770E+02  0.14780534696E+03  0.91439504727E+02 0.  0.
        -11    1    3    3    0    0  0.62295504230E+00 -0.32959577055E+02 -0.13782745026E+03  0.14171495277E+03  0.00000000000E+00 0.  1.
         12    1    3    3    0    0  0.18827465774E+02  0.16763031404E+02 -0.68309586339E+03  0.68356084679E+03  0.00000000000E+00 0. -1.
        -11    1    4    4    0    0 -0.94106185421E+02  0.41205830577E+02 -0.49256029909E+00  0.10273333064E+03  0.00000000000E+00 0.  1.
         11    1    4    4    0    0 -0.12738839881E+02 -0.17705477073E+02  0.39442676069E+02  0.45072016323E+02  0.00000000000E+00 0. -1.
         21    1    1    2  503  501 -0.29636295631E+02  0.24620667781E+01  0.20759120909E+02  0.36267242692E+02  0.00000000000E+00 0.  1.
          1    1    1    2  501    0  0.11703090012E+03 -0.97658746310E+01 -0.51364734320E+02  0.12817932681E+03  0.00000000000E+00 0. -1.
<scales pt_clust_5="13000.00000" pt_clust_6="13000.00000" pt_clust_7="13000.00000" pt_clust_8="13000.00000" pt_clust_9="29.73839" pt_clust_10="13000.00000"></scales>
<clustering>
<clus scale="   29.738">  1  9  2 -1</clus>
<clus scale="   80.774">  5  6 -1 -1</clus>
<clus scale="   84.530">  2  5  1 -1</clus>
<clus scale="   91.440">  7  8 -1 -1</clus>
<clus scale="  119.729">  7 10 -1 -1</clus>
<clus scale="   29.738">  1  5  2 -1</clus>
</clustering>
</event>
<event>
10    4  0.2565852E-005  0.4471204E+03  0.7546771E-02  0.1088480E+00
          2   -1    0    0  502    0 -0.00000000000E+00  0.00000000000E+00  0.42703760963E+03  0.42703760963E+03  0.00000000000E+00 0. -1.
         21   -1    0    0  503  502  0.00000000000E+00 -0.00000000000E+00 -0.18334317704E+03  0.18334317704E+03  0.00000000000E+00 0. -1.
         24    2    1    2    0    0 -0.15152506276E+02  0.14816371594E+02  0.49691344490E+02  0.97419105994E+02  0.81068669545E+02 0.  0.
         23    2    1    2    0    0 -0.14483606841E+03  0.98563744175E+02 -0.31512346350E+02  0.19893537310E+03  0.88825426089E+02 0.  0.
        -11    1    3    3    0    0 -0.23873437274E+02 -0.26078075895E+02  0.41577775351E+01  0.35599075321E+02  0.00000000000E+00 0.  1.
         12    1    3    3    0    0  0.87209309978E+01  0.40894447488E+02  0.45533566955E+02  0.61820030674E+02  0.00000000000E+00 0. -1.
        -13    1    4    4    0    0 -0.42873490083E+02  0.50511397491E+02 -0.52184571804E+02  0.84337221692E+02  0.00000000000E+00 0.  1.
         13    1    4    4    0    0 -0.10196257833E+03  0.48052346684E+02  0.20672225454E+02  0.11459815141E+03  0.00000000000E+00 0. -1.
         21    1    1    2  503  501  0.20827093792E+02 -0.70723359387E+01 -0.68715630490E+01  0.23043527295E+02  0.00000000000E+00 0. -1.
          1    1    1    2  501    0  0.13916148090E+03 -0.10630777983E+03  0.23238699750E+03  0.29098278029E+03  0.00000000000E+00 0. -1.
<scales pt_clust_5="13000.00000" pt_clust_6="13000.00000" pt_clust_7="13000.00000" pt_clust_8="13000.00000" pt_clust_9="21.99513" pt_clust_10="13000.00000"></scales>
<clustering>
<clus scale="   21.995">  2  9  1 -1</clus>
<clus scale="   81.069">  5  6 -1 -1</clus>
<clus scale="   83.137">  1  5  2 -1</clus>
<clus scale="   88.825">  7  8 -1 -1</clus>
<clus scale="  164.778">  7 10 -1 -1</clus>
<clus scale="   21.995">  2  5  1 -1</clus>
</clustering>
</event>
<event>
10    4  0.2565852E-005  0.4362346E+03  0.7546771E-02  0.1081677E+00
          2   -1    0    0  502    0 -0.00000000000E+00  0.00000000000E+00  0.78888034159E+03  0.78888034159E+03  0.00000000000E+00 0. -1.
         21   -1    0    0  503  502  0.00000000000E+00 -0.00000000000E+00 -0.13285990971E+03  0.13285990971E+03  0.00000000000E+00 0. -1.
         24    2    1    2    0    0  0.33330244347E+01 -0.78267746607E+02  0.22797799082E+03  0.25388078071E+03  0.79652603871E+02 0.  0.
         23    2    1    2    0    0  0.19565217757E+03 -0.85903267704E+02  0.19224923871E+03  0.30150733922E+03  0.91037134312E+02 0.  0.
        -11    1    3    3    0    0 -0.34787965657E+02 -0.15492317261E+02  0.70855700540E+02  0.80440939500E+02  0.00000000000E+00 0.  1.
         12    1    3    3    0    0  0.38120990092E+02 -0.62775429346E+02  0.15712229028E+03  0.17343984121E+03  0.00000000000E+00 0. -1.
        -11    1    4    4    0    0  0.89940822483E+02 -0.39800861538E+02  0.14859152296E+03  0.17819343654E+03  0.00000000000E+00 0.  1.
         11    1    4    4    0    0  0.10571135509E+03 -0.46102406166E+02  0.43657715748E+02  0.12331390268E+03  0.00000000000E+00 0. -1.
         21    1    1    2  503  501 -0.37614162710E+02  0.50888918833E+02  0.59957888121E+01  0.63564587467E+02  0.00000000000E+00 0. -1.
          1    1    1    2  501    0 -0.16137103930E+03  0.11328209548E+03  0.22979741354E+03  0.30278754391E+03  0.00000000000E+00 0. -1.
<scales pt_clust_5="13000.00000" pt_clust_6="13000.00000" pt_clust_7="13000.00000" pt_clust_8="13000.00000" pt_clust_9="63.28118" pt_clust_10="13000.00000"></scales>
<clustering>
<clus scale="   63.281">  2  9  1 -1</clus>
<clus scale="   79.653">  5  6 -1 -1</clus>
<clus scale="   91.037">  7  8 -1 -1</clus>
<clus scale="  107.336">  1  5  2 -1</clus>
<clus scale="  196.018">  7 10 -1 -1</clus>
<clus scale="   63.281">  2  5  1 -1</clus>
</clustering>
</event>
<event>
10    4  0.2565852E-005  0.3447301E+03  0.7546771E-02  0.1103536E+00
          2   -1    0    0  503    0 -0.00000000000E+00  0.00000000000E+00  0.45902112863E+03  0.45902112863E+03  0.00000000000E+00 0. -1.
         21   -1    0    0  501  502  0.00000000000E+00 -0.00000000000E+00 -0.14097639634E+03  0.14097639634E+03  0.00000000000E+00 0. -1.
         24    2    1    2    0    0  0.71216676852E+02 -0.50150335097E+02  0.17246006137E+02  0.11835925176E+03  0.78259929576E+02 0.  0.
         23    2    1    2    0    0  0.94660062665E+02 -0.24670649126E+02  0.17215898776E+03  0.21808419417E+03  0.91393819759E+02 0.  0.
        -13    1    3    3    0    0  0.77704397899E+02 -0.17048192043E+02  0.25669486142E+02  0.83591487746E+02  0.00000000000E+00 0.  1.
         14    1    3    3    0    0 -0.64877210466E+01 -0.33102143054E+02 -0.84234800048E+01  0.34767764014E+02  0.00000000000E+00 0. -1.
        -11    1    4    4    0    0  0.45860538595E+02  0.32549980253E+02  0.53626354243E+02  0.77707632084E+02  0.00000000000E+00 0.  1.
         11    1    4    4    0    0  0.48799524070E+02 -0.57220629379E+02  0.11853263351E+03  0.14037656209E+03  0.00000000000E+00 0. -1.
         21    1    1    2  503  502  0.25605061390E+02  0.60241249992E+01  0.10862043863E+02  0.28458623432E+02  0.00000000000E+00 0.  1.
          1    1    1    2  501    0 -0.19148180091E+03  0.68796859224E+02  0.11777769454E+03  0.23509545561E+03  0.00000000000E+00 0. -1.
<scales pt_clust_5="13000.00000" pt_clust_6="13000.00000" pt_clust_7="13000.00000" pt_clust_8="13000.00000" pt_clust_9="26.30417" pt_clust_10="13000.00000"></scales>
<clustering>
<clus scale="   26.304">  2  9  1 -1</clus>
<clus scale="   78.260">  5  6 -1 -1</clus>
<clus scale="   91.394">  7  8 -1 -1</clus>
<clus scale="  122.379">  1  5  2 -1</clus>
<clus scale="  152.893">  7 10 -1 -1</clus>
<clus scale="   26.304">  2  5  1 -1</clus>
</clustering>
</event>
<event>
10    4  0.2565852E-005  0.5294912E+03  0.7546771E-02  0.1043795E+00
          2   -1    0    0  503    0 -0.00000000000E+00  0.00000000000E+00  0.23740957947E+04  0.23740957947E+04  0.00000000000E+00 0. -1.
         21   -1    0    0  501  502  0.00000000000E+00 -0.00000000000E+00 -0.22753763717E+03  0.22753763717E+03  0.00000000000E+00 0. -1.
         24    2    1    2    0    0  0.13517802150E+03 -0.69975416106E+02  0.55971398846E+03  0.58565581586E+03  0.80890848793E+02 0.  0.
         23    2    1    2    0    0  0.14534515790E+03  0.28980093081E+03  0.91758896528E+03  0.97670792951E+03  0.82940194915E+02 0.  0.
        -13    1    3    3    0    0  0.10102068189E+03 -0.87686772529E+02  0.42500072391E+03  0.44555556732E+03  0.00000000000E+00 0.  1.
         14    1    3    3    0    0  0.34157339612E+02  0.17711356422E+02  0.13471326455E+03  0.14010024854E+03  0.00000000000E+00 0. -1.
        -13    1    4    4    0    0  0.38804596379E+02  0.13008130796E+03  0.48058750149E+03  0.49939091899E+03  0.00000000000E+00 0.  1.
         13    1    4    4    0    0  0.10654056153E+03  0.15971962286E+03  0.43700146378E+03  0.47731701051E+03  0.00000000000E+00 0. -1.
         21    1    1    2  503  502 -0.42362310298E+03 -0.29056244659E+03  0.21337170738E+03  0.55624684651E+03  0.00000000000E+00 0. -1.
          1    1    1    2  501    0  0.14309992357E+03  0.70736931878E+02  0.45588349642E+03  0.48302284001E+03  0.00000000000E+00 0. -1.
<scales pt_clust_5="13000.00000" pt_clust_6="13000.00000" pt_clust_7="13000.00000" pt_clust_8="13000.00000" pt_clust_9="499.16101" pt_clust_10="13000.00000"></scales>
<clustering>
<clus scale="   80.891">  5  6 -1 -1</clus>
<clus scale="   82.940">  7  8 -1 -1</clus>
<clus scale="  159.629">  7 10 -1 -1</clus>
<clus scale="  172.375">  1  5  2 -1</clus>
<clus scale="  499.161">  2  9  1 -1</clus>
<clus scale="  499.161">  2  5  1 -1</clus>
</clustering>
</event>
<event>
10    4  0.2565852E-005  0.2164381E+03  0.7546771E-02  0.1170533E+00
         21   -1    0    0  501  502  0.00000000000E+00  0.00000000000E+00  0.21458614506E+03  0.21458614506E+03  0.00000000000E+00 0.  1.
          2   -1    0    0  503    0 -0.00000000000E+00 -0.00000000000E+00 -0.27717403513E+03  0.27717403513E+03  0.00000000000E+00 0. -1.
         24    2    1    2    0    0 -0.44467912758E+02 -0.26963466740E+02 -0.18181735554E+03  0.20593710844E+03  0.81535992392E+02 0.  0.
         23    2    1    2    0    0  0.12457555266E+02  0.75791405065E+01  0.12983482721E+03  0.15831172883E+03  0.89402947789E+02 0.  0.
        -13    1    3    3    0    0  0.19335694426E+02 -0.26161553123E+02 -0.53122355078E+02  0.62291897946E+02  0.00000000000E+00 0.  1.
         14    1    3    3    0    0 -0.63803607184E+02 -0.80191361738E+00 -0.12869500046E+03  0.14364521050E+03  0.00000000000E+00 0. -1.
        -11    1    4    4    0    0 -0.37406545225E+01  0.23444328821E+02 -0.26613230008E+01  0.23889572835E+02  0.00000000000E+00 0. -1.
         11    1    4    4    0    0  0.16198209788E+02 -0.15865188314E+02  0.13249615021E+03  0.13442215599E+03  0.00000000000E+00 0.  1.
         21    1    1    2  503  502 -0.26038028579E+02  0.16416876142E+02  0.39980430051E+02  0.50457185233E+02  0.00000000000E+00 0. -1.
          1    1    1    2  501    0  0.58048386071E+02  0.29674500914E+01 -0.50585791799E+02  0.77054157690E+02  0.00000000000E+00 0. -1.
<scales pt_clust_5="13000.00000" pt_clust_6="13000.00000" pt_clust_7="13000.00000" pt_clust_8="13000.00000" pt_clust_9="30.78137" pt_clust_10="13000.00000"></scales>
<clustering>
<clus scale="   30.781">  1  9  2 -1</clus>
<clus scale="   81.536">  5  6 -1 -1</clus>
<clus scale="   89.403">  7  8 -1 -1</clus>
<clus scale="   56.175">  7 10 -1 -1</clus>
<clus scale="   97.258">  2  5  1 -1</clus>
<clus scale="   30.781">  1  5  2 -1</clus>
</clustering>
</event>
<event>
10    4  0.2565852E-005  0.2861692E+03  0.7546771E-02  0.1128625E+00
         21   -1    0    0  501  502  0.00000000000E+00  0.00000000000E+00  0.57698897290E+03  0.57698897290E+03  0.00000000000E+00 0. -1.
          2   -1    0    0  503    0 -0.00000000000E+00 -0.00000000000E+00 -0.12835108785E+03  0.12835108785E+03  0.00000000000E+00 0. -1.
         24    2    1    2    0    0  0.65562328616E+01 -0.75961097876E+02  0.16472854188E+03  0.20016076165E+03  0.84354996386E+02 0.  0.
         23    2    1    2    0    0 -0.25446111396E+02 -0.64903552804E+02  0.17341028365E+03  0.20788786661E+03  0.91028912212E+02 0.  0.
        -11    1    3    3    0    0 -0.35618066282E+02 -0.13187856284E+02  0.51183019364E+02  0.63735921349E+02  0.00000000000E+00 0.  1.
         12    1    3    3    0    0  0.42174299143E+02 -0.62773241592E+02  0.11354552252E+03  0.13642484030E+03  0.00000000000E+00 0. -1.
        -13    1    4    4    0    0  0.21322449442E+02 -0.11407730375E+02  0.44424763693E+01  0.24586963188E+02  0.00000000000E+00 0.  1.
         13    1    4    4    0    0 -0.46768560838E+02 -0.53495822429E+02  0.16896780728E+03  0.18330090342E+03  0.00000000000E+00 0. -1.
         21    1    1    2  503  502 -0.80817537413E+02  0.11776342744E+03  0.12996546325E+03  0.19310805481E+03  0.00000000000E+00 0. -1.
          1    1    1    2  501    0  0.99707415948E+02  0.23101223239E+02 -0.19466403713E+02  0.10418337767E+03  0.00000000000E+00 0. -1.
<scales pt_clust_5="13000.00000" pt_clust_6="13000.00000" pt_clust_7="13000.00000" pt_clust_8="13000.00000" pt_clust_9="124.35935" pt_clust_10="13000.00000"></scales>
<clustering>
<clus scale="   84.355">  5  6 -1 -1</clus>
<clus scale="   91.029">  7  8 -1 -1</clus>
<clus scale="  102.349">  7 10 -1 -1</clus>
<clus scale="  113.705">  2  5  1 -1</clus>
<clus scale="  124.359">  1  9  2 -1</clus>
<clus scale="  124.359">  1  5  2 -1</clus>
</clustering>
</event>
<event>
10    4  0.2565852E-005  0.2555730E+03  0.7546771E-02  0.1141611E+00
          2   -1    0    0  502    0 -0.00000000000E+00  0.00000000000E+00  0.12491964024E+03  0.12491964024E+03  0.00000000000E+00 0. -1.
         21   -1    0    0  503  502  0.00000000000E+00 -0.00000000000E+00 -0.52672292618E+03  0.52672292618E+03  0.00000000000E+00 0. -1.
         24    2    1    2    0    0  0.69900267071E+02 -0.43643894969E+02 -0.18045492923E+03  0.21472650439E+03  0.82174529507E+02 0.  0.
         23    2    1    2    0    0  0.11702390772E+03  0.20342898554E+02 -0.10239935108E+03  0.18219306299E+03  0.92737568443E+02 0.  0.
        -13    1    3    3    0    0 -0.18286306091E+02 -0.12117438519E+02 -0.25183467170E+02  0.33398028765E+02  0.00000000000E+00 0.  1.
         14    1    3    3    0    0  0.88186573162E+02 -0.31526456450E+02 -0.15527146206E+03  0.18132847562E+03  0.00000000000E+00 0. -1.
        -13    1    4    4    0    0  0.53922775180E+02  0.53633610121E+02 -0.33827094130E+02  0.83237624396E+02  0.00000000000E+00 0. -1.
         13    1    4    4    0    0  0.63101132537E+02 -0.33290711567E+02 -0.68572256946E+02  0.98955438591E+02  0.00000000000E+00 0.  1.
         21    1    1    2  503  501 -0.10901888517E+03  0.70571139986E+02 -0.45246253855E+02  0.13752318572E+03  0.00000000000E+00 0. -1.
          1    1    1    2  501    0 -0.77905289623E+02 -0.47270143571E+02 -0.73702751781E+02  0.11719981333E+03  0.00000000000E+00 0. -1.
<scales pt_clust_5="13000.00000" pt_clust_6="13000.00000" pt_clust_7="13000.00000" pt_clust_8="13000.00000" pt_clust_9="94.59805" pt_clust_10="13000.00000"></scales>
<clustering>
<clus scale="   82.175">  5  6 -1 -1</clus>
<clus scale="   92.738">  7  8 -1 -1</clus>
<clus scale="   91.125">  7 10 -1 -1</clus>
<clus scale="  116.377">  1  5  2 -1</clus>
<clus scale="   94.598">  2  9  1 -1</clus>
<clus scale="   94.598">  2  5  1 -1</clus>
</clustering>
</event>
<event>
10    4  0.2565852E-005  0.3557004E+03  0.7546771E-02  0.1109649E+00
         21   -1    0    0  503  502  0.00000000000E+00  0.00000000000E+00  0.78889055583E+02  0.78889055583E+02  0.00000000000E+00 0. -1.
          2   -1    0    0  502    0 -0.00000000000E+00 -0.00000000000E+00 -0.96787711187E+03  0.96787711187E+03  0.00000000000E+00 0. -1.
         24    2    1    2    0    0 -0.41524606000E+02  0.13495633947E+02 -0.10110661192E+03  0.13683393729E+03  0.81206861671E+02 0.  0.
         23    2    1    2    0    0 -0.79030297630E+02 -0.15200499850E+03 -0.17662224379E+03  0.26212746755E+03  0.90355324854E+02 0.  0.
        -13    1    3    3    0    0 -0.23776431019E+02 -0.28916656108E+02 -0.75343336800E+02  0.84131504638E+02  0.00000000000E+00 0.  1.
         14    1    3    3    0    0 -0.17748174981E+02  0.42412290055E+02 -0.25763275115E+02  0.52702432653E+02  0.00000000000E+00 0. -1.
        -11    1    4    4    0    0 -0.20191555402E+02  0.85680637601E+01 -0.27911104537E+02  0.35498456060E+02  0.00000000000E+00 0.  1.
         11    1    4    4    0    0 -0.58838742228E+02 -0.16057306226E+03 -0.14871113925E+03  0.22662901149E+03  0.00000000000E+00 0. -1.
         21    1    1    2  503  501  0.27542735335E+02  0.84898807711E+02 -0.15293340378E+03  0.17707353222E+03  0.00000000000E+00 0. -1.
          1    1    1    2  501    0  0.93012168295E+02  0.53610556841E+02 -0.45832579680E+03  0.47073123039E+03  0.00000000000E+00 0. -1.
<scales pt_clust_5="13000.00000" pt_clust_6="13000.00000" pt_clust_7="13000.00000" pt_clust_8="13000.00000" pt_clust_9="89.25479" pt_clust_10="13000.00000"></scales>
<clustering>
<clus scale="   81.207">  5  6 -1 -1</clus>
<clus scale="   89.255">  1  9  2 -1</clus>
<clus scale="   90.355">  7  8 -1 -1</clus>
<clus scale="   95.244">  2  5  1 -1</clus>
<clus scale="  112.482">  7 10 -1 -1</clus>
<clus scale="   89.255">  1  5  2 -1</clus>
</clustering>
</event>
<event>
10    4  0.2565852E-005  0.3923192E+03  0.7546771E-02  0.1068951E+00
         21   -1    0    0  503  502  0.00000000000E+00  0.00000000000E+00  0.89520814616E+02  0.89520814616E+02  0.00000000000E+00 0. -1.
          2   -1    0    0  502    0 -0.00000000000E+00 -0.00000000000E+00 -0.12118673338E+04  0.12118673338E+04  0.00000000000E+00 0. -1.
         24    2    1    2    0    0 -0.65942595893E+02  0.16699687430E+03 -0.46164374838E+03  0.50372633053E+03  0.91590849273E+02 0.  0.
         23    2    1    2    0    0 -0.75490658070E+02 -0.12545575857E+03 -0.11782228107E+03  0.21073272223E+03  0.95332069558E+02 0.  0.
        -13    1    3    3    0    0  0.23317670086E+02  0.35576886302E+02 -0.89688688879E+02  0.99264744446E+02  0.00000000000E+00 0.  1.
         14    1    3    3    0    0 -0.89260265979E+02  0.13141998800E+03 -0.37195505950E+03  0.40446158609E+03  0.00000000000E+00 0. -1.
        -11    1    4    4    0    0 -0.30450275957E+02 -0.28073497713E+02 -0.91232453556E+02  0.10019331895E+03  0.00000000000E+00 0.  1.
         11    1    4    4    0    0 -0.45040382112E+02 -0.97382260855E+02 -0.26589827516E+02  0.11053940328E+03  0.00000000000E+00 0. -1.
         21    1    1    2  503  501  0.40705998181E+01  0.32851371638E+02 -0.14859124359E+02  0.36284652101E+02  0.00000000000E+00 0. -1.
          1    1    1    2  501    0  0.13736265414E+03 -0.74392487374E+02 -0.52802136537E+03  0.55064444356E+03  0.00000000000E+00 0. -1.
<scales pt_clust_5="13000.00000" pt_clust_6="13000.00000" pt_clust_7="13000.00000" pt_clust_8="13000.00000" pt_clust_9="33.10260" pt_clust_10="13000.00000"></scales>
<clustering>
<clus scale="   33.103">  1  9  2 -1</clus>
<clus scale="   91.591">  5  6 -1 -1</clus>
<clus scale="   95.332">  7  8 -1 -1</clus>
<clus scale="  154.545">  7 10 -1 -1</clus>
<clus scale="  208.541">  2  5  1 -1</clus>
<clus scale="   33.103">  1  5  2 -1</clus>
</clustering>
</event>
<event>
10    4  0.2565852E-005  0.1894190E+03  0.7546771E-02  0.1174304E+00
         21   -1    0    0  501  502  0.00000000000E+00  0.00000000000E+00  0.31279047490E+03  0.31279047490E+03  0.00000000000E+00 0.  1.
          2   -1    0    0  503    0 -0.00000000000E+00 -0.00000000000E+00 -0.20256446321E+03  0.20256446321E+03  0.00000000000E+00 0. -1.
         24    2    1    2    0    0  0.22608021121E+02 -0.14752095304E+03  0.47599832910E+01  0.16987577322E+03  0.81003497951E+02 0.  0.
         23    2    1    2    0    0  0.79938236559E+01  0.21827751821E+02  0.95958848139E+01  0.94586823031E+02  0.91182422207E+02 0.  0.
        -11    1    3    3    0    0  0.48839532441E+02 -0.11424441432E+03 -0.10851272668E+02  0.12471902923E+03  0.00000000000E+00 0.  1.
         12    1    3    3    0    0 -0.26231511320E+02 -0.33276538721E+02  0.15611255959E+02  0.45156743992E+02  0.00000000000E+00 0. -1.
        -11    1    4    4    0    0  0.30476855667E+02  0.12346294531E+02 -0.32306629604E+02  0.46097592522E+02  0.00000000000E+00 0. -1.
         11    1    4    4    0    0 -0.22483032011E+02  0.94814572906E+01  0.41902514418E+02  0.48489230508E+02  0.00000000000E+00 0.  1.
         21    1    1    2  503  502  0.40408469058E+02  0.96854405602E+02  0.12993243324E+03  0.16702112879E+03  0.00000000000E+00 0.  1.
          1    1    1    2  501    0 -0.71010313835E+02  0.28838795620E+02 -0.34062289652E+02  0.83871213060E+02  0.00000000000E+00 0. -1.
<scales pt_clust_5="13000.00000" pt_clust_6="13000.00000" pt_clust_7="13000.00000" pt_clust_8="13000.00000" pt_clust_9="104.94580" pt_clust_10="13000.00000"></scales>
<clustering>
<clus scale="   81.003">  5  6 -1 -1</clus>
<clus scale="   91.182">  7  8 -1 -1</clus>
<clus scale="   76.643">  7 10 -1 -1</clus>
<clus scale="  104.946">  1  9  2 -1</clus>
<clus scale="  133.157">  2  5  1 -1</clus>
<clus scale="  104.946">  1  5  2 -1</clus>
</clustering>
</event>
<event>
10    4  0.2565852E-005  0.2636455E+03  0.7546771E-02  0.1149678E+00
          2   -1    0    0  503    0 -0.00000000000E+00  0.00000000000E+00  0.77124369131E+03  0.77124369131E+03  0.00000000000E+00 0. -1.
         21   -1    0    0  501  502  0.00000000000E+00 -0.00000000000E+00 -0.52673783797E+02  0.52673783797E+02  0.00000000000E+00 0.  1.
         24    2    1    2    0    0  0.28304399509E+02  0.93545423156E+01  0.23919198027E+03  0.25436579358E+03  0.81243504517E+02 0.  0.
         23    2    1    2    0    0 -0.92931766009E+02 -0.43179378752E+02  0.11427250859E+03  0.17803382206E+03  0.90205674398E+02 0.  0.
        -11    1    3    3    0    0 -0.28234255777E+01 -0.33180261517E+02  0.79223103595E+02  0.85937195844E+02  0.00000000000E+00 0.  1.
         12    1    3    3    0    0  0.31127825087E+02  0.42534803833E+02  0.15996887667E+03  0.16842859774E+03  0.00000000000E+00 0. -1.
        -13    1    4    4    0    0 -0.51478286309E+02  0.24273041035E+02  0.40849447739E+02  0.70056205028E+02  0.00000000000E+00 0. -1.
         13    1    4    4    0    0 -0.41453479700E+02 -0.67452419787E+02  0.73423060852E+02  0.10797761703E+03  0.00000000000E+00 0.  1.
         21    1    1    2  503  502  0.20414290374E+02 -0.23512085747E+02  0.16047446618E+02  0.35029729811E+02  0.00000000000E+00 0.  1.
          1    1    1    2  501    0  0.44213076126E+02  0.57336922183E+02  0.34905797203E+03  0.35648812965E+03  0.00000000000E+00 0. -1.
<scales pt_clust_5="13000.00000" pt_clust_6="13000.00000" pt_clust_7="13000.00000" pt_clust_8="13000.00000" pt_clust_9="31.13778" pt_clust_10="13000.00000"></scales>
<clustering>
<clus scale="   31.138">  2  9  1 -1</clus>
<clus scale="   81.244">  5  6 -1 -1</clus>
<clus scale="   87.435">  1  5  2 -1</clus>
<clus scale="   90.206">  7  8 -1 -1</clus>
<clus scale="   89.845">  7 10 -1 -1</clus>
<clus scale="   31.138">  2  5  1 -1</clus>
</clustering>
</event>
<event>
10    4  0.2565852E-005  0.1916672E+03  0.7546771E-02  0.1192766E+00
         21   -1    0    0  503  502  0.00000000000E+00  0.00000000000E+00  0.29511985536E+03  0.29511985536E+03  0.00000000000E+00 0. -1.
          2   -1    0    0  502    0 -0.00000000000E+00 -0.00000000000E+00 -0.89567350477E+02  0.89567350477E+02  0.00000000000E+00 0. -1.
         24    2    1    2    0    0 -0.26101731894E+01 -0.40795408490E+02  0.15269889288E+02  0.88823154736E+02  0.77364752571E+02 0.  0.
         23    2    1    2    0    0  0.63629519852E+02 -0.15802339069E+02  0.14896670284E+03  0.19859724379E+03  0.11380402879E+03 0.  0.
        -11    1    3    3    0    0  0.14571227818E+02  0.17424900912E+02  0.16554569759E+02  0.28106967674E+02  0.00000000000E+00 0.  1.
         12    1    3    3    0    0 -0.17181401007E+02 -0.58220309402E+02 -0.12846804706E+01  0.60716187062E+02  0.00000000000E+00 0. -1.
        -11    1    4    4    0    0  0.49739419436E+02 -0.58782092782E+02  0.12663798462E+03  0.14821107728E+03  0.00000000000E+00 0.  1.
         11    1    4    4    0    0  0.13890100416E+02  0.42979753713E+02  0.22328718221E+02  0.50386166516E+02  0.00000000000E+00 0. -1.
         21    1    1    2  503  501 -0.20945825029E+02  0.29764311992E+02  0.31314443458E+02  0.48012875602E+02  0.00000000000E+00 0. -1.
          1    1    1    2  501    0 -0.40073521634E+02  0.26833435567E+02  0.10001469292E+02  0.49253931705E+02  0.00000000000E+00 0. -1.
<scales pt_clust_5="13000.00000" pt_clust_6="13000.00000" pt_clust_7="13000.00000" pt_clust_8="13000.00000" pt_clust_9="36.39563" pt_clust_10="13000.00000"></scales>
<clustering>
<clus scale="   36.396">  1  9  2 -1</clus>
<clus scale="   77.365">  5  6 -1 -1</clus>
<clus scale="   85.082">  2  5  1 -1</clus>
<clus scale="  113.804">  7  8 -1 -1</clus>
<clus scale="   47.876">  7 10 -1 -1</clus>
<clus scale="   36.396">  1  5  2 -1</clus>
</clustering>
</event>
<event>
10    4  0.2565852E-005  0.2924655E+03  0.7546771E-02  0.1116450E+00
         21   -1    0    0  503  502  0.00000000000E+00  0.00000000000E+00  0.12786221314E+03  0.12786221314E+03  0.00000000000E+00 0. -1.
          2   -1    0    0  502    0 -0.00000000000E+00 -0.00000000000E+00 -0.49642762575E+03  0.49642762575E+03  0.00000000000E+00 0. -1.
         24    2    1    2    0    0 -0.11586990249E+03 -0.10161910357E+02 -0.21472485110E+03  0.25746295089E+03  0.81555568018E+02 0.  0.
         23    2    1    2    0    0  0.13372311047E+03 -0.35255658633E+02  0.64323185341E+01  0.16599325724E+03  0.91583595626E+02 0.  0.
        -11    1    3    3    0    0 -0.21481465796E+02  0.31185483911E+02 -0.72973964452E+02  0.82214276542E+02  0.00000000000E+00 0.  1.
         12    1    3    3    0    0 -0.94388436693E+02 -0.41347394269E+02 -0.14175088665E+03  0.17524867435E+03  0.00000000000E+00 0. -1.
        -11    1    4    4    0    0  0.18729290666E+02  0.28707296399E+02  0.75869921246E+00  0.34285139928E+02  0.00000000000E+00 0.  1.
         11    1    4    4    0    0  0.11499381980E+03 -0.63962955032E+02  0.56736193216E+01  0.13170811731E+03  0.00000000000E+00 0. -1.
         21    1    1    2  503  501 -0.14749992029E+02  0.17779024182E+02  0.12205556722E+02  0.26127219152E+02  0.00000000000E+00 0.  1.
          1    1    1    2  501    0 -0.31032159500E+01  0.27638544808E+02 -0.17247843677E+03  0.17470641161E+03  0.00000000000E+00 0. -1.
<scales pt_clust_5="13000.00000" pt_clust_6="13000.00000" pt_clust_7="13000.00000" pt_clust_8="13000.00000" pt_clust_9="23.10099" pt_clust_10="13000.00000"></scales>
<clustering>
<clus scale="   23.101">  1  9  2 -1</clus>
<clus scale="   81.556">  5  6 -1 -1</clus>
<clus scale="   91.584">  7  8 -1 -1</clus>
<clus scale="   28.010">  7 10 -1 -1</clus>
<clus scale="  144.229">  2  5  1 -1</clus>
<clus scale="   23.101">  1  5  2 -1</clus>
</clustering>
</event>
<event>
10    4  0.2565852E-005  0.2356327E+03  0.7546771E-02  0.1147419E+00
         21   -1    0    0  501  502  0.00000000000E+00  0.00000000000E+00  0.57269542198E+02  0.57269542198E+02  0.00000000000E+00 0. -1.
          2   -1    0    0  503    0 -0.00000000000E+00 -0.00000000000E+00 -0.10227046174E+04  0.10227046174E+04  0.00000000000E+00 0. -1.
         24    2    1    2    0    0  0.90866629744E+02 -0.37215580705E+02 -0.57964315346E+03  0.59339796552E+03  0.80580495648E+02 0.  0.
         23    2    1    2    0    0 -0.45815985233E+02 -0.43364074781E+02 -0.57693522304E+02  0.12550396731E+03  0.91886646526E+02 0.  0.
        -11    1    3    3    0    0  0.21511032396E+02  0.20776212591E+02 -0.75398000643E+02  0.81112477618E+02  0.00000000000E+00 0.  1.
         12    1    3    3    0    0  0.69355597348E+02 -0.57991793296E+02 -0.50424515282E+03  0.51228548790E+03  0.00000000000E+00 0. -1.
        -11    1    4    4    0    0 -0.40112424944E+02 -0.10583283708E+02 -0.76688702976E+02  0.87190422026E+02  0.00000000000E+00 0.  1.
         11    1    4    4    0    0 -0.57035602888E+01 -0.32780791073E+02  0.18995180672E+02  0.38313545282E+02  0.00000000000E+00 0. -1.
         21    1    1    2  503  502  0.19109632910E+02 -0.14311646902E+02 -0.13056285584E+03  0.13272776888E+03  0.00000000000E+00 0.  1.
          1    1    1    2  501    0 -0.64160277421E+02  0.94891302388E+02 -0.19753554364E+03  0.22834445793E+03  0.00000000000E+00 0. -1.
<scales pt_clust_5="13000.00000" pt_clust_6="13000.00000" pt_clust_7="13000.00000" pt_clust_8="13000.00000" pt_clust_9="23.87471" pt_clust_10="13000.00000"></scales>
<clustering>
<clus scale="   23.875">  1  9  2 -1</clus>
<clus scale="   80.580">  5  6 -1 -1</clus>
<clus scale="   91.887">  7  8 -1 -1</clus>
<clus scale="  108.383">  7 10 -1 -1</clus>
<clus scale="  129.224">  2  5  1 -1</clus>
<clus scale="   23.875">  1  5  2 -1</clus>
</clustering>
</event>
<event>
10    4  0.2565852E-005  0.2841725E+03  0.7546771E-02  0.1122242E+00
         21   -1    0    0  503  502  0.00000000000E+00  0.00000000000E+00  0.52050178218E+03  0.52050178218E+03  0.00000000000E+00 0.  1.
         -1   -1    0    0    0  501 -0.00000000000E+00 -0.00000000000E+00 -0.32320032989E+03  0.32320032989E+03  0.00000000000E+00 0.  1.
         24    2    1    2    0    0 -0.66353339295E+02  0.70203928748E+02 -0.11306387161E+03  0.16883819320E+03  0.79947102344E+02 0.  0.
         23    2    1    2    0    0  0.47889392715E+02  0.64488960972E+02  0.95187734311E+01  0.12174895797E+03  0.90994404758E+02 0.  0.
        -13    1    3    3    0    0 -0.48718392491E+02  0.58876025416E+02 -0.12364838752E+03  0.14535746238E+03  0.00000000000E+00 0.  1.
         14    1    3    3    0    0 -0.17634946805E+02  0.11327903332E+02  0.10584515907E+02  0.23480730817E+02  0.00000000000E+00 0. -1.
        -11    1    4    4    0    0  0.26159761073E+02 -0.20576493873E+02 -0.11742636613E+01  0.33303214479E+02  0.00000000000E+00 0. -1.
         11    1    4    4    0    0  0.21729631642E+02  0.85065454845E+02  0.10693037092E+02  0.88445743490E+02  0.00000000000E+00 0.  1.
         21    1    1    2  503  501 -0.88344462151E+02  0.29461532901E+02  0.34075063030E+03  0.35324738918E+03  0.00000000000E+00 0.  1.
         -2    1    1    2    0  502  0.10680840873E+03 -0.16415442262E+03 -0.39904079826E+02  0.19986757173E+03  0.00000000000E+00 0.  1.
<scales pt_clust_5="13000.00000" pt_clust_6="13000.00000" pt_clust_7="13000.00000" pt_clust_8="13000.00000" pt_clust_9="93.12747" pt_clust_10="13000.00000"></scales>
<clustering>
<clus scale="   79.947">  5  6 -1 -1</clus>
<clus scale="   90.994">  7  8 -1 -1</clus>
<clus scale="   93.127">  1  9  2 -1</clus>
<clus scale="  136.001">  2  5  1 -1</clus>
<clus scale="  108.716">  7 10 -1 -1</clus>
<clus scale="   93.127">  1  5  2 -1</clus>
</clustering>
</event>
<event>
10    4  0.2565852E-005  0.2931075E+03  0.7546771E-02  0.1131950E+00
         21   -1    0    0  501  502  0.00000000000E+00  0.00000000000E+00  0.10165732020E+03  0.10165732020E+03  0.00000000000E+00 0. -1.
          2   -1    0    0  503    0 -0.00000000000E+00 -0.00000000000E+00 -0.74441658543E+03  0.74441658543E+03  0.00000000000E+00 0. -1.
         24    2    1    2    0    0  0.56214885498E+02  0.17810600731E+02 -0.31641931964E+03  0.33145819805E+03  0.79158198345E+02 0.  0.
         23    2    1    2    0    0  0.41291455084E+02  0.10531031321E+03 -0.26371287384E+03  0.30052197511E+03  0.89295752226E+02 0.  0.
        -11    1    3    3    0    0  0.74771730606E+02  0.65529451362E+01 -0.26958575126E+03  0.27983965064E+03  0.00000000000E+00 0.  1.
         12    1    3    3    0    0 -0.18556845109E+02  0.11257655594E+02 -0.46833568383E+02  0.51618547416E+02  0.00000000000E+00 0. -1.
        -11    1    4    4    0    0 -0.23139348352E+02  0.32441702533E+02 -0.12429477510E+03  0.13052618367E+03  0.00000000000E+00 0.  1.
         11    1    4    4    0    0  0.64430803436E+02  0.72868610678E+02 -0.13941809874E+03  0.16999579145E+03  0.00000000000E+00 0. -1.
         21    1    1    2  503  502 -0.90140430466E+01 -0.24732994084E+02  0.39132224313E+02  0.47162537549E+02  0.00000000000E+00 0. -1.
          1    1    1    2  501    0 -0.88492297535E+02 -0.98387919857E+02 -0.10175929606E+03  0.16693119490E+03  0.00000000000E+00 0. -1.
<scales pt_clust_5="13000.00000" pt_clust_6="13000.00000" pt_clust_7="13000.00000" pt_clust_8="13000.00000" pt_clust_9="26.32440" pt_clust_10="13000.00000"></scales>
<clustering>
<clus scale="   26.324">  1  9  2 -1</clus>
<clus scale="   79.158">  5  6 -1 -1</clus>
<clus scale="   89.296">  7  8 -1 -1</clus>
<clus scale="   97.526">  2  5  1 -1</clus>
<clus scale="  128.533">  7 10 -1 -1</clus>
<clus scale="   26.324">  1  5  2 -1</clus>
</clustering>
</event>
<event>
10    4  0.2565852E-005  0.3033285E+03  0.7546771E-02  0.1115944E+00
          2   -1    0    0  502    0 -0.00000000000E+00  0.00000000000E+00  0.12524802709E+04  0.12524802709E+04  0.00000000000E+00 0. -1.
         21   -1    0    0  503  502  0.00000000000E+00 -0.00000000000E+00 -0.48080270641E+02  0.48080270641E+02  0.00000000000E+00 0. -1.
         24    2    1    2    0    0 -0.41302793683E+02  0.79460708461E+02  0.17709325722E+03  0.21452248291E+03  0.81473609009E+02 0.  0.
         23    2    1    2    0    0  0.49314350664E+01  0.75751358285E+02  0.26747646679E+03  0.29261892056E+03  0.91211759386E+02 0.  0.
        -11    1    3    3    0    0  0.10334714637E+02  0.64936875832E+02  0.11497128075E+03  0.13244621386E+03  0.00000000000E+00 0.  1.
         12    1    3    3    0    0 -0.51637508320E+02  0.14523832629E+02  0.62121976468E+02  0.82076269043E+02  0.00000000000E+00 0. -1.
        -13    1    4    4    0    0  0.30953674593E+02  0.67253276379E+01  0.15434321505E+03  0.15756010928E+03  0.00000000000E+00 0.  1.
         13    1    4    4    0    0 -0.26022239527E+02  0.69026030647E+02  0.11313325173E+03  0.13505881128E+03  0.00000000000E+00 0. -1.
         21    1    1    2  503  501 -0.37243290978E+02  0.12741562744E+02  0.78134466557E+02  0.87489456555E+02  0.00000000000E+00 0. -1.
          1    1    1    2  501    0  0.73614649595E+02 -0.16795362949E+03  0.68169580970E+03  0.70592968152E+03  0.00000000000E+00 0. -1.
<scales pt_clust_5="13000.00000" pt_clust_6="13000.00000" pt_clust_7="13000.00000" pt_clust_8="13000.00000" pt_clust_9="39.36255" pt_clust_10="13000.00000"></scales>
<clustering>
<clus scale="   39.363">  2  9  1 -1</clus>
<clus scale="   81.474">  5  6 -1 -1</clus>
<clus scale="   91.212">  7  8 -1 -1</clus>
<clus scale="  130.941">  1  5  2 -1</clus>
<clus scale="  110.782">  7 10 -1 -1</clus>
<clus scale="   39.363">  2  5  1 -1</clus>
</clustering>
</event>
<event>
10    4  0.2565852E-005  0.4406168E+03  0.7546771E-02  0.1071993E+00
         21   -1    0    0  503  502  0.00000000000E+00  0.00000000000E+00  0.11443873626E+03  0.11443873626E+03  0.00000000000E+00 0. -1.
          2   -1    0    0  502    0 -0.00000000000E+00 -0.00000000000E+00 -0.11908874553E+04  0.11908874553E+04  0.00000000000E+00 0. -1.
         24    2    1    2    0    0  0.11005661607E+03  0.44395869502E+02 -0.31681212727E+03  0.34922361385E+03  0.86624225928E+02 0.  0.
         23    2    1    2    0    0  0.15523662655E+03  0.68036395211E+02 -0.47364574064E+03  0.51079307822E+03  0.88554614988E+02 0.  0.
        -13    1    3    3    0    0 -0.36549624688E+00  0.35966801074E+02 -0.86012601949E+02  0.93230424546E+02  0.00000000000E+00 0.  1.
         14    1    3    3    0    0  0.11042211232E+03  0.84290684277E+01 -0.23079952532E+03  0.25599318930E+03  0.00000000000E+00 0. -1.
        -13    1    4    4    0    0  0.99679172901E+02  0.36122969249E+02 -0.39690646532E+03  0.41082301376E+03  0.00000000000E+00 0. -1.
         13    1    4    4    0    0  0.55557453647E+02  0.31913425963E+02 -0.76739275317E+02  0.99970064462E+02  0.00000000000E+00 0.  1.
         21    1    1    2  503  501 -0.43462346027E+02 -0.83814675237E+02 -0.17776996714E+02  0.96072352523E+02  0.00000000000E+00 0. -1.
          1    1    1    2  501    0 -0.22183089659E+03 -0.28617589476E+02 -0.26821385440E+03  0.34923714694E+03  0.00000000000E+00 0. -1.
<scales pt_clust_5="13000.00000" pt_clust_6="13000.00000" pt_clust_7="13000.00000" pt_clust_8="13000.00000" pt_clust_9="94.41332" pt_clust_10="13000.00000"></scales>
<clustering>
<clus scale="   86.624">  5  6 -1 -1</clus>
<clus scale="   88.555">  7  8 -1 -1</clus>
<clus scale="   94.413">  1  9  2 -1</clus>
<clus scale="  135.422">  2  5  1 -1</clus>
<clus scale="  204.910">  7 10 -1 -1</clus>
<clus scale="   94.413">  1  5  2 -1</clus>
</clustering>
</event>
<event>
10    4  0.2565852E-005  0.2530554E+03  0.7546771E-02  0.1138164E+00
         -1   -1    0    0    0  501 -0.00000000000E+00  0.00000000000E+00  0.53347875228E+03  0.53347875228E+03  0.00000000000E+00 0.  1.
         21   -1    0    0  503  502  0.00000000000E+00 -0.00000000000E+00 -0.17944254083E+03  0.17944254083E+03  0.00000000000E+00 0. -1.
         24    2    1    2    0    0 -0.71674076160E+02  0.51858774823E+02 -0.94484832971E+02  0.15189778469E+03  0.79492437457E+02 0.  0.
         23    2    1    2    0    0 -0.39232089315E+02 -0.68975859346E+02  0.24874161245E+03  0.27672021123E+03  0.91678021002E+02 0.  0.
        -13    1    3    3    0    0 -0.35512311008E+02 -0.97599233681E+01 -0.64790971311E+02  0.74526842820E+02  0.00000000000E+00 0.  1.
         14    1    3    3    0    0 -0.36161765152E+02  0.61618698191E+02 -0.29693861660E+02  0.77370941871E+02  0.00000000000E+00 0. -1.
        -11    1    4    4    0    0  0.82633868014E+00  0.20110047312E+02  0.72259797752E+02  0.75010500663E+02  0.00000000000E+00 0.  1.
         11    1    4    4    0    0 -0.40058427995E+02 -0.89085906658E+02  0.17648181470E+03  0.20170971057E+03  0.00000000000E+00 0. -1.
         21    1    1    2  503  501 -0.20623203652E+02  0.26307444920E+01 -0.19296687282E+02  0.28365462899E+02  0.00000000000E+00 0.  1.
         -2    1    1    2    0  502  0.13152936913E+03  0.14486340031E+02  0.21907611925E+03  0.25593783428E+03  0.00000000000E+00 0.  1.
<scales pt_clust_5="13000.00000" pt_clust_6="13000.00000" pt_clust_7="13000.00000" pt_clust_8="13000.00000" pt_clust_9="20.79032" pt_clust_10="13000.00000"></scales>
<clustering>
<clus scale="   20.790">  2  9  1 -1</clus>
<clus scale="   79.492">  5  6 -1 -1</clus>
<clus scale="   91.678">  7  8 -1 -1</clus>
<clus scale="  129.932">  7 10 -1 -1</clus>
<clus scale="  130.280">  1  5  2 -1</clus>
<clus scale="   20.790">  2  5  1 -1</clus>
</clustering>
</event>
<event>
10    4  0.2565852E-005  0.4366841E+03  0.7546771E-02  0.1064153E+00
         -1   -1    0    0    0  501 -0.00000000000E+00  0.00000000000E+00  0.11889840318E+03  0.11889840318E+03  0.00000000000E+00 0.  1.
         21   -1    0    0  501  502  0.00000000000E+00 -0.00000000000E+00 -0.11439760705E+04  0.11439760705E+04  0.00000000000E+00 0. -1.
         24    2    1    2    0    0 -0.10555094554E+03  0.98291684142E+02 -0.36929885341E+03  0.40442370360E+03  0.79841290247E+02 0.  0.
         23    2    1    2    0    0 -0.18401116585E+02  0.11396308198E+03 -0.23021084049E+03  0.28523388199E+03  0.12261790736E+03 0.  0.
        -11    1    3    3    0    0 -0.15883829393E+02  0.36447374876E+02 -0.35495858424E+02  0.53297871785E+02  0.00000000000E+00 0.  1.
         12    1    3    3    0    0 -0.89667116150E+02  0.61844309265E+02 -0.33380299498E+03  0.35112583181E+03  0.00000000000E+00 0. -1.
        -11    1    4    4    0    0  0.14008942099E+02  0.13012801342E+03 -0.16461498983E+03  0.21030369757E+03  0.00000000000E+00 0. -1.
         11    1    4    4    0    0 -0.32410058685E+02 -0.16164931436E+02 -0.65595850668E+02  0.74930184420E+02  0.00000000000E+00 0.  1.
         21    1    1    2  503  502 -0.33765276311E+02 -0.87574139218E+01 -0.27034060076E+03  0.27258177966E+03  0.00000000000E+00 0. -1.
         -2    1    1    2    0  503  0.15771733844E+03 -0.20349735220E+03 -0.15522737264E+03  0.30063510842E+03  0.00000000000E+00 0.  1.
<scales pt_clust_5="13000.00000" pt_clust_6="13000.00000" pt_clust_7="13000.00000" pt_clust_8="13000.00000" pt_clust_9="34.88246" pt_clust_10="13000.00000"></scales>
<clustering>
<clus scale="   34.882">  2  9  1 -1</clus>
<clus scale="   79.841">  5  6 -1 -1</clus>
<clus scale="  122.618">  7  8 -1 -1</clus>
<clus scale="  172.665">  1  5  2 -1</clus>
<clus scale="  151.567">  7 10 -1 -1</clus>
<clus scale="   34.882">  2  5  1 -1</clus>
</clustering>
</event>
<event>
10    4  0.2565852E-005  0.4411494E+03  0.7546771E-02  0.1039044E+00
         21   -1    0    0  503  502  0.00000000000E+00  0.00000000000E+00  0.15684982889E+03  0.15684982889E+03  0.00000000000E+00 0.  1.
          2   -1    0    0  502    0 -0.00000000000E+00 -0.00000000000E+00 -0.11969684508E+04  0.11969684508E+04  0.00000000000E+00 0. -1.
         24    2    1    2    0    0  0.35376677389E+03  0.36808055172E+02 -0.33307583883E+03  0.49418630231E+03  0.82309317442E+02 0.  0.
         23    2    1    2    0    0 -0.11884383716E+03 -0.92335200866E+02 -0.15361961693E+03  0.23671579976E+03  0.98922880076E+02 0.  0.
        -11    1    3    3    0    0  0.23817913242E+03 -0.14142528839E+02 -0.22466429167E+03  0.32772450960E+03  0.00000000000E+00 0.  1.
         12    1    3    3    0    0  0.11558764147E+03  0.50950584011E+02 -0.10841154716E+03  0.16646179270E+03  0.00000000000E+00 0. -1.
        -13    1    4    4    0    0 -0.11121866182E+03 -0.33665119038E+02 -0.74929572006E+02  0.13826558407E+03  0.00000000000E+00 0.  1.
         13    1    4    4    0    0 -0.76251753412E+01 -0.58670081828E+02 -0.78690044924E+02  0.98450215697E+02  0.00000000000E+00 0. -1.
         21    1    1    2  503  501 -0.40196612022E+02 -0.15071759824E+02 -0.14099118967E+02  0.45185293159E+02  0.00000000000E+00 0.  1.
          1    1    1    2  501    0 -0.19472632471E+03  0.70598905518E+02 -0.53932404720E+03  0.57773088448E+03  0.00000000000E+00 0. -1.
<scales pt_clust_5="13000.00000" pt_clust_6="13000.00000" pt_clust_7="13000.00000" pt_clust_8="13000.00000" pt_clust_9="42.92931" pt_clust_10="13000.00000"></scales>
<clustering>
<clus scale="   42.929">  1  9  2 -1</clus>
<clus scale="   82.309">  5  6 -1 -1</clus>
<clus scale="   98.923">  7  8 -1 -1</clus>
<clus scale="  211.601">  7 10 -1 -1</clus>
<clus scale="  342.102">  2  5  1 -1</clus>
<clus scale="   42.929">  1  5  2 -1</clus>
</clustering>
</event>
<event>
10    4  0.2565852E-005  0.2063822E+03  0.7546771E-02  0.1176607E+00
         21   -1    0    0  503  502  0.00000000000E+00  0.00000000000E+00  0.12128260602E+03  0.12128260602E+03  0.00000000000E+00 0.  1.
          2   -1    0    0  502    0 -0.00000000000E+00 -0.00000000000E+00 -0.63980543616E+03  0.63980543616E+03  0.00000000000E+00 0. -1.
         24    2    1    2    0    0 -0.22821664907E+02 -0.36222461992E+02 -0.58216383409E+02  0.10762224134E+03  0.79752770436E+02 0.  0.
         23    2    1    2    0    0  0.10317559159E+03  0.62266014723E+02 -0.36129426969E+03  0.39305755952E+03  0.97151616028E+02 0.  0.
        -11    1    3    3    0    0  0.45959562387E+01  0.23302812869E+02 -0.23694972851E+02  0.33549897761E+02  0.00000000000E+00 0.  1.
         12    1    3    3    0    0 -0.27417621146E+02 -0.59525274861E+02 -0.34521410558E+02  0.74072343580E+02  0.00000000000E+00 0. -1.
        -11    1    4    4    0    0  0.49227841809E+02  0.60190174505E+02 -0.10230528003E+03  0.12850139236E+03  0.00000000000E+00 0. -1.
         11    1    4    4    0    0  0.53947749786E+02  0.20758402185E+01 -0.25898898966E+03  0.26455616716E+03  0.00000000000E+00 0.  1.
         21    1    1    2  503  501 -0.30397718394E+02 -0.71620196603E+01  0.73478154408E+02  0.79839557767E+02  0.00000000000E+00 0.  1.
          1    1    1    2  501    0 -0.49956208293E+02 -0.18881533071E+02 -0.17249033145E+03  0.18056868355E+03  0.00000000000E+00 0. -1.
<scales pt_clust_5="13000.00000" pt_clust_6="13000.00000" pt_clust_7="13000.00000" pt_clust_8="13000.00000" pt_clust_9="31.23005" pt_clust_10="13000.00000"></scales>
<clustering>
<clus scale="   31.230">  1  9  2 -1</clus>
<clus scale="   79.753">  5  6 -1 -1</clus>
<clus scale="   97.152">  7  8 -1 -1</clus>
<clus scale="   56.210">  7 10 -1 -1</clus>
<clus scale="   97.712">  2  5  1 -1</clus>
<clus scale="   31.230">  1  5  2 -1</clus>
</clustering>
</event>
<event>
10    4  0.2565852E-005  0.3357829E+03  0.7546771E-02  0.1092351E+00
          2   -1    0    0  502    0 -0.00000000000E+00  0.00000000000E+00  0.14331207797E+04  0.14331207797E+04  0.00000000000E+00 0. -1.
         21   -1    0    0  503  502  0.00000000000E+00 -0.00000000000E+00 -0.10677802401E+03  0.10677802401E+03  0.00000000000E+00 0. -1.
         24    2    1    2    0    0  0.11648369084E+03 -0.11077517198E+03  0.10700235508E+04  0.10850361217E+04  0.80705620059E+02 0.  0.
         23    2    1    2    0    0  0.66345837196E+02 -0.12579686756E+02  0.17459883476E+03  0.20794218554E+03  0.90527237878E+02 0.  0.
        -13    1    3    3    0    0  0.83377722704E+02 -0.75543778712E+02  0.47890135774E+03  0.49194025816E+03  0.00000000000E+00 0.  1.
         14    1    3    3    0    0  0.33105968141E+02 -0.35231393272E+02  0.59112219308E+03  0.59309586354E+03  0.00000000000E+00 0. -1.
        -13    1    4    4    0    0  0.52547950658E+02 -0.47488969181E+02  0.13997945827E+03  0.15687809933E+03  0.00000000000E+00 0. -1.
         13    1    4    4    0    0  0.13797886537E+02  0.34909282425E+02  0.34619376493E+02  0.51064086216E+02  0.00000000000E+00 0.  1.
         21    1    1    2  503  501 -0.18370134205E+02  0.28794947127E+02 -0.10844401786E+02  0.35835901842E+02  0.00000000000E+00 0. -1.
          1    1    1    2  501    0 -0.16445939384E+03  0.94559911613E+02  0.92564771937E+02  0.21108459467E+03  0.00000000000E+00 0. -1.
<scales pt_clust_5="13000.00000" pt_clust_6="13000.00000" pt_clust_7="13000.00000" pt_clust_8="13000.00000" pt_clust_9="34.15568" pt_clust_10="13000.00000"></scales>
<clustering>
<clus scale="   34.156">  2  9  1 -1</clus>
<clus scale="   80.706">  5  6 -1 -1</clus>
<clus scale="   90.527">  7  8 -1 -1</clus>
<clus scale="  177.210">  1  5  2 -1</clus>
<clus scale="  133.824">  7 10 -1 -1</clus>
<clus scale="   34.156">  2  5  1 -1</clus>
</clustering>
</event>
<event>
10    4  0.2565852E-005  0.2220708E+03  0.7546771E-02  0.1152427E+00
         21   -1    0    0  501  502  0.00000000000E+00  0.00000000000E+00  0.29031507045E+03  0.29031507045E+03  0.00000000000E+00 0. -1.
          2   -1    0    0  503    0 -0.00000000000E+00 -0.00000000000E+00 -0.38830387116E+03  0.38830387116E+03  0.00000000000E+00 0. -1.
         24    2    1    2    0    0  0.94178147895E+02  0.43681993683E+02 -0.12962274462E+03  0.18398548280E+03  0.79189404873E+02 0.  0.
         23    2    1    2    0    0 -0.36479573480E+02 -0.10013580393E+03 -0.10225361479E+03  0.17385295029E+03  0.91712093405E+02 0.  0.
        -13    1    3    3    0    0  0.55100443113E+02  0.27126732527E+02 -0.12746664979E+03  0.14149086634E+03  0.00000000000E+00 0.  1.
         14    1    3    3    0    0  0.39077704782E+02  0.16555261155E+02 -0.21560948310E+01  0.42494616457E+02  0.00000000000E+00 0. -1.
        -13    1    4    4    0    0 -0.30694912233E+02 -0.54671951303E+02 -0.99674951500E+00  0.62707203780E+02  0.00000000000E+00 0.  1.
         13    1    4    4    0    0 -0.57846612470E+01 -0.45463852624E+02 -0.10125686528E+03  0.11114574651E+03  0.00000000000E+00 0. -1.
         21    1    1    2  503  502  0.21886733698E+02  0.13109845064E+02  0.20438167341E+03  0.20596787510E+03  0.00000000000E+00 0. -1.
          1    1    1    2  501    0 -0.79585308113E+02  0.43343965181E+02 -0.70494114695E+02  0.11481263341E+03  0.00000000000E+00 0. -1.
<scales pt_clust_5="13000.00000" pt_clust_6="13000.00000" pt_clust_7="13000.00000" pt_clust_8="13000.00000" pt_clust_9="25.51269" pt_clust_10="13000.00000"></scales>
<clustering>
<clus scale="   25.513">  1  9  2 -1</clus>
<clus scale="   79.189">  5  6 -1 -1</clus>
<clus scale="   91.712">  7  8 -1 -1</clus>
<clus scale="   87.440">  7 10 -1 -1</clus>
<clus scale="  137.101">  2  5  1 -1</clus>
<clus scale="   25.513">  1  5  2 -1</clus>
</clustering>
</event>
<event>
10    4  0.2565852E-005  0.2854184E+03  0.7546771E-02  0.1099473E+00
         21   -1    0    0  503  502  0.00000000000E+00  0.00000000000E+00  0.11187110707E+03  0.11187110707E+03  0.00000000000E+00 0. -1.
          2   -1    0    0  502    0 -0.00000000000E+00 -0.00000000000E+00 -0.11228393685E+04  0.11228393685E+04  0.00000000000E+00 0. -1.
         24    2    1    2    0    0 -0.16563049196E+03  0.17064710283E+03 -0.59091586559E+03  0.64209168779E+03  0.80909095633E+02 0.  0.
         23    2    1    2    0    0  0.47418542214E+02 -0.20962284660E+02 -0.24255951216E+03  0.26444630046E+03  0.91699473065E+02 0.  0.
        -13    1    3    3    0    0 -0.11871339287E+03  0.65310249305E+02 -0.30129083862E+03  0.33035506314E+03  0.00000000000E+00 0.  1.
         14    1    3    3    0    0 -0.46917099084E+02  0.10533685352E+03 -0.28962502697E+03  0.31173662465E+03  0.00000000000E+00 0. -1.
        -11    1    4    4    0    0 -0.23980259271E+02 -0.20403048329E+02 -0.50134934113E+02  0.59201763778E+02  0.00000000000E+00 0. -1.
         11    1    4    4    0    0  0.71398801486E+02 -0.55923633064E+00 -0.19242457805E+03  0.20524453668E+03  0.00000000000E+00 0.  1.
         21    1    1    2  503  501  0.16510497675E+02 -0.26021957847E+02  0.44704588504E+02  0.54297689242E+02  0.00000000000E+00 0. -1.
          1    1    1    2  501    0  0.10170145207E+03 -0.12366286032E+03 -0.22219747218E+03  0.27387479807E+03  0.00000000000E+00 0. -1.
<scales pt_clust_5="13000.00000" pt_clust_6="13000.00000" pt_clust_7="13000.00000" pt_clust_8="13000.00000" pt_clust_9="30.81783" pt_clust_10="13000.00000"></scales>
<clustering>
<clus scale="   30.818">  1  9  2 -1</clus>
<clus scale="   80.909">  5  6 -1 -1</clus>
<clus scale="   91.699">  7  8 -1 -1</clus>
<clus scale="  172.790">  7 10 -1 -1</clus>
<clus scale="  239.526">  2  5  1 -1</clus>
<clus scale="   30.818">  1  5  2 -1</clus>
</clustering>
</event>
<event>
10    4  0.2565852E-005  0.3602047E+03  0.7546771E-02  0.1078407E+00
          2   -1    0    0  502    0 -0.00000000000E+00  0.00000000000E+00  0.11303114113E+04  0.11303114113E+04  0.00000000000E+00 0. -1.
         21   -1    0    0  503  502  0.00000000000E+00 -0.00000000000E+00 -0.15837294388E+03  0.15837294388E+03  0.00000000000E+00 0. -1.
         24    2    1    2    0    0 -0.21342380741E+03 -0.27278981322E+02  0.26288714947E+03  0.34931037249E+03  0.81327846294E+02 0.  0.
         23    2    1    2    0    0  0.28872781695E+02 -0.95101931863E+02  0.91717557423E+02  0.16543450236E+03  0.95280896648E+02 0.  0.
        -13    1    3    3    0    0 -0.40529782713E+02  0.14897565323E+00  0.10001078849E+02  0.41745743000E+02  0.00000000000E+00 0.  1.
         14    1    3    3    0    0 -0.17289402469E+03 -0.27427956975E+02  0.25288607063E+03  0.30756462949E+03  0.00000000000E+00 0. -1.
        -13    1    4    4    0    0 -0.32829930736E+02 -0.53369536764E+02  0.49180330839E+02  0.79654357997E+02  0.00000000000E+00 0.  1.
         13    1    4    4    0    0  0.61702712432E+02 -0.41732395100E+02  0.42537226585E+02  0.85780144368E+02  0.00000000000E+00 0. -1.
         21    1    1    2  503  501  0.53148592253E+02  0.13921204312E+03  0.67670135126E+01  0.14916621025E+03  0.00000000000E+00 0. -1.
          1    1    1    2  501    0  0.13140243346E+03 -0.16831129935E+02  0.61056674706E+03  0.62477327013E+03  0.00000000000E+00 0. -1.
<scales pt_clust_5="13000.00000" pt_clust_6="13000.00000" pt_clust_7="13000.00000" pt_clust_8="13000.00000" pt_clust_9="149.01264" pt_clust_10="13000.00000"></scales>
<clustering>
<clus scale="   81.328">  5  6 -1 -1</clus>
<clus scale="   95.281">  7  8 -1 -1</clus>
<clus scale="  132.476">  7 10 -1 -1</clus>
<clus scale="  149.013">  2  9  1 -1</clus>
<clus scale="  208.216">  1  5  2 -1</clus>
<clus scale="  149.013">  2  5  1 -1</clus>
</clustering>
</event>
<event>
10    4  0.2565852E-005  0.2086417E+03  0.7546771E-02  0.1173839E+00
         21   -1    0    0  503  502  0.00000000000E+00  0.00000000000E+00  0.50302641584E+02  0.50302641584E+02  0.00000000000E+00 0.  1.
          2   -1    0    0  502    0 -0.00000000000E+00 -0.00000000000E+00 -0.58673051710E+03  0.58673051710E+03  0.00000000000E+00 0. -1.
         24    2    1    2    0    0 -0.30058258761E+01  0.52414294885E+02 -0.16681134268E+03  0.19257195197E+03  0.80632743593E+02 0.  0.
         23    2    1    2    0    0 -0.10168448624E+02 -0.34469590062E+02 -0.54425152810E+02  0.11225462901E+03  0.91364404941E+02 0.  0.
        -11    1    3    3    0    0 -0.16398961530E+02  0.69853909233E+02 -0.10685790047E+03  0.12871326842E+03  0.00000000000E+00 0.  1.
         12    1    3    3    0    0  0.13393135654E+02 -0.17439614349E+02 -0.59953442208E+02  0.63858683543E+02  0.00000000000E+00 0. -1.
        -13    1    4    4    0    0  0.25810213475E+02 -0.45916081046E+02 -0.94182087637E+01  0.53508469185E+02  0.00000000000E+00 0.  1.
         13    1    4    4    0    0 -0.35978662099E+02  0.11446490983E+02 -0.45006944046E+02  0.58746159829E+02  0.00000000000E+00 0. -1.
         21    1    1    2  503  501  0.99838326146E+01  0.26682174636E+02 -0.23013209686E+02  0.36622713950E+02  0.00000000000E+00 0.  1.
          1    1    1    2  501    0  0.31904418858E+01 -0.44626879459E+02 -0.29217817034E+03  0.29558386375E+03  0.00000000000E+00 0. -1.
<scales pt_clust_5="13000.00000" pt_clust_6="13000.00000" pt_clust_7="13000.00000" pt_clust_8="13000.00000" pt_clust_9="28.48886" pt_clust_10="13000.00000"></scales>
<clustering>
<clus scale="   28.489">  1  9  2 -1</clus>
<clus scale="   80.633">  5  6 -1 -1</clus>
<clus scale="   91.364">  7  8 -1 -1</clus>
<clus scale="   43.729">  7 10 -1 -1</clus>
<clus scale="  100.695">  2  5  1 -1</clus>
<clus scale="   28.489">  1  5  2 -1</clus>
</clustering>
</event>
<event>
10    4  0.2565852E-005  0.1977120E+03  0.7546771E-02  0.1184537E+00
         21   -1    0    0  503  502  0.00000000000E+00  0.00000000000E+00  0.24178320828E+03  0.24178320828E+03  0.00000000000E+00 0. -1.
         -1   -1    0    0    0  501 -0.00000000000E+00 -0.00000000000E+00 -0.66594064535E+03  0.66594064535E+03  0.00000000000E+00 0.  1.
         24    2    1    2    0    0  0.35198054082E+02 -0.55646689198E+02  0.17391763459E+03  0.20262659292E+03  0.80465741215E+02 0.  0.
         23    2    1    2    0    0 -0.11970630946E+02 -0.44131573749E+02 -0.24542996477E+03  0.26589640389E+03  0.91510317365E+02 0.  0.
        -13    1    3    3    0    0  0.12835178795E+02 -0.42192770502E+02  0.23520420765E+02  0.49981815596E+02  0.00000000000E+00 0.  1.
         14    1    3    3    0    0  0.22362875287E+02 -0.13453918696E+02  0.15039721382E+03  0.15264477733E+03  0.00000000000E+00 0. -1.
        -11    1    4    4    0    0  0.39687144213E+02 -0.13118141419E+02 -0.10971909578E+03  0.11741139224E+03  0.00000000000E+00 0.  1.
         11    1    4    4    0    0 -0.51657775159E+02 -0.31013432329E+02 -0.13571086900E+03  0.14848501165E+03  0.00000000000E+00 0. -1.
         21    1    1    2  503  501 -0.19968018103E+02  0.13058590038E+02  0.34779179313E+02  0.42176294698E+02  0.00000000000E+00 0. -1.
         -2    1    1    2    0  502 -0.32594050325E+01  0.86719672909E+02 -0.38742428620E+03  0.39702456212E+03  0.00000000000E+00 0.  1.
<scales pt_clust_5="13000.00000" pt_clust_6="13000.00000" pt_clust_7="13000.00000" pt_clust_8="13000.00000" pt_clust_9="23.85893" pt_clust_10="13000.00000"></scales>
<clustering>
<clus scale="   23.859">  1  9  2 -1</clus>
<clus scale="   80.466">  5  6 -1 -1</clus>
<clus scale="   91.510">  7  8 -1 -1</clus>
<clus scale="   87.108">  7 10 -1 -1</clus>
<clus scale="   93.010">  2  5  1 -1</clus>
<clus scale="   23.859">  1  5  2 -1</clus>
</clustering>
</event>
<event>
10    4  0.2565852E-005  0.1934237E+03  0.7546771E-02  0.1176567E+00
          2   -1    0    0  503    0 -0.00000000000E+00  0.00000000000E+00  0.18205516146E+03  0.18205516146E+03  0.00000000000E+00 0. -1.
         21   -1    0    0  501  502  0.00000000000E+00 -0.00000000000E+00 -0.25858621609E+03  0.25858621609E+03  0.00000000000E+00 0. -1.
         24    2    1    2    0    0 -0.68339061729E+02  0.42097530807E+02  0.10111733630E+03  0.15732981209E+03  0.89919545237E+02 0.  0.
         23    2    1    2    0    0 -0.26917220196E+02 -0.84604194157E+01 -0.13011476879E+03  0.16157057016E+03  0.91537318309E+02 0.  0.
        -13    1    3    3    0    0  0.42696454962E+01  0.21603883051E+02 -0.90468868373E+01  0.23807641568E+02  0.00000000000E+00 0.  1.
         14    1    3    3    0    0 -0.72608707226E+02  0.20493647755E+02  0.11016422314E+03  0.13352217053E+03  0.00000000000E+00 0. -1.
        -13    1    4    4    0    0 -0.11675587084E+02 -0.46081026522E+02 -0.10096846493E+03  0.11159933355E+03  0.00000000000E+00 0. -1.
         13    1    4    4    0    0 -0.15241633112E+02  0.37620607107E+02 -0.29146303865E+02  0.49971236606E+02  0.00000000000E+00 0.  1.
         21    1    1    2  503  502  0.12641691989E+02 -0.23184582204E+02 -0.11748279608E+01  0.26433264064E+02  0.00000000000E+00 0. -1.
          1    1    1    2  501    0  0.82614589935E+02 -0.10452529187E+02 -0.46358794173E+02  0.95307731238E+02  0.00000000000E+00 0. -1.
<scales pt_clust_5="13000.00000" pt_clust_6="13000.00000" pt_clust_7="13000.00000" pt_clust_8="13000.00000" pt_clust_9="26.40716" pt_clust_10="13000.00000"></scales>
<clustering>
<clus scale="   26.407">  2  9  1 -1</clus>
<clus scale="   89.920">  5  6 -1 -1</clus>
<clus scale="   91.537">  7  8 -1 -1</clus>
<clus scale="   87.963">  7 10 -1 -1</clus>
<clus scale="  118.805">  1  5  2 -1</clus>
<clus scale="   26.407">  2  5  1 -1</clus>
</clustering>
</event>
<event>
10    4  0.2565852E-005  0.2658873E+03  0.7546771E-02  0.1126275E+00
          2   -1    0    0  503    0 -0.00000000000E+00  0.00000000000E+00  0.93294917082E+03  0.93294917082E+03  0.00000000000E+00 0. -1.
         21   -1    0    0  501  502  0.00000000000E+00 -0.00000000000E+00 -0.14919901560E+03  0.14919901560E+03  0.00000000000E+00 0. -1.
         24    2    1    2    0    0  0.11345366798E+03  0.80296678312E+02  0.21393881535E+02  0.16290372948E+03  0.82223084258E+02 0.  0.
         23    2    1    2    0    0  0.35805842404E+02 -0.69492602610E+02  0.50077086097E+03  0.51822657300E+03  0.10805575227E+03 0.  0.
        -11    1    3    3    0    0  0.57311650730E+02  0.26997034678E+02  0.49655626818E+02  0.80493145457E+02  0.00000000000E+00 0.  1.
         12    1    3    3    0    0  0.56142017252E+02  0.53299643634E+02 -0.28261745284E+02  0.82410584023E+02  0.00000000000E+00 0. -1.
        -11    1    4    4    0    0 -0.19550384665E+02 -0.74570877644E+02  0.31651242742E+03  0.32576548320E+03  0.00000000000E+00 0.  1.
         11    1    4    4    0    0  0.55356227070E+02  0.50782750344E+01  0.18425843355E+03  0.19246108980E+03  0.00000000000E+00 0. -1.
         21    1    1    2  503  502 -0.23903960626E+02  0.26815182933E+01 -0.55119702033E+02  0.60139599484E+02  0.00000000000E+00 0. -1.
          1    1    1    2  501    0 -0.12535554976E+03 -0.13485593995E+02  0.31670511474E+03  0.34087828445E+03  0.00000000000E+00 0. -1.
<scales pt_clust_5="13000.00000" pt_clust_6="13000.00000" pt_clust_7="13000.00000" pt_clust_8="13000.00000" pt_clust_9="24.05390" pt_clust_10="13000.00000"></scales>
<clustering>
<clus scale="   24.054">  2  9  1 -1</clus>
<clus scale="   82.223">  5  6 -1 -1</clus>
<clus scale="  108.056">  7  8 -1 -1</clus>
<clus scale="  129.180">  7 10 -1 -1</clus>
<clus scale="  150.223">  1  5  2 -1</clus>
<clus scale="   24.054">  2  5  1 -1</clus>
</clustering>
</event>
<event>
10    4  0.2565852E-005  0.1959266E+03  0.7546771E-02  0.1181064E+00
         21   -1    0    0  501  502  0.00000000000E+00  0.00000000000E+00  0.14789397893E+03  0.14789397893E+03  0.00000000000E+00 0. -1.
         -3   -1    0    0    0  501 -0.00000000000E+00 -0.00000000000E+00 -0.38129115935E+03  0.38129115935E+03  0.00000000000E+00 0.  1.
         24    2    1    2    0    0  0.66998656133E+02  0.20916950425E+01 -0.97559717103E+01  0.10375648285E+03  0.78594106893E+02 0.  0.
         23    2    1    2    0    0 -0.32582158695E+02 -0.96177296272E+01 -0.93152184856E+02  0.13417880746E+03  0.90402019007E+02 0.  0.
        -13    1    3    3    0    0  0.17662436026E+02 -0.35579742294E+02  0.47627044588E+01  0.40007037654E+02  0.00000000000E+00 0.  1.
         14    1    3    3    0    0  0.49336220107E+02  0.37671437337E+02 -0.14518676169E+02  0.63749445199E+02  0.00000000000E+00 0. -1.
        -13    1    4    4    0    0 -0.37610472971E+02  0.32703847685E+02 -0.69230416337E+02  0.85304981547E+02  0.00000000000E+00 0.  1.
         13    1    4    4    0    0  0.50283142755E+01 -0.42321577313E+02 -0.23921768519E+02  0.48873825917E+02  0.00000000000E+00 0. -1.
         21    1    1    2  503  502  0.79421481568E+02  0.72608590675E+02 -0.19490932383E+01  0.10762703256E+03  0.00000000000E+00 0.  1.
         -4    1    1    2    0  503 -0.11383797901E+03 -0.65082556090E+02 -0.12853993062E+03  0.18362281540E+03  0.00000000000E+00 0.  1.
<scales pt_clust_5="13000.00000" pt_clust_6="13000.00000" pt_clust_7="13000.00000" pt_clust_8="13000.00000" pt_clust_9="116.42914" pt_clust_10="13000.00000"></scales>
<clustering>
<clus scale="   78.594">  5  6 -1 -1</clus>
<clus scale="   90.402">  7  8 -1 -1</clus>
<clus scale="  103.297">  2  5  1 -1</clus>
<clus scale="  103.764">  7 10 -1 -1</clus>
<clus scale="  116.429">  1  9  2 -1</clus>
<clus scale="  116.429">  1  5  2 -1</clus>
</clustering>
</event>
<event>
10    4  0.2565852E-005  0.1403214E+03  0.7546771E-02  0.1225397E+00
          2   -1    0    0  503    0 -0.00000000000E+00  0.00000000000E+00  0.14807183108E+04  0.14807183108E+04  0.00000000000E+00 0. -1.
         21   -1    0    0  501  502  0.00000000000E+00 -0.00000000000E+00 -0.27502793383E+02  0.27502793383E+02  0.00000000000E+00 0. -1.
         24    2    1    2    0    0  0.65191914535E+02  0.86631011057E+02  0.75600365570E+03  0.76801978963E+03  0.80981183132E+02 0.  0.
         23    2    1    2    0    0 -0.45892697097E+02  0.29213929148E+02  0.46414158330E+03  0.47625320274E+03  0.91815633056E+02 0.  0.
        -13    1    3    3    0    0 -0.89816903952E+01  0.51030261648E+02  0.24324856824E+03  0.24870589924E+03  0.00000000000E+00 0.  1.
         14    1    3    3    0    0  0.74173604930E+02  0.35600749409E+02  0.51275508746E+03  0.51931389039E+03  0.00000000000E+00 0. -1.
        -11    1    4    4    0    0  0.11883365724E+02 -0.18725445608E+02  0.42080569335E+02  0.47567121099E+02  0.00000000000E+00 0. -1.
         11    1    4    4    0    0 -0.57776062821E+02  0.47939374757E+02  0.42206101396E+03  0.42868608164E+03  0.00000000000E+00 0.  1.
         21    1    1    2  503  502 -0.21746682691E+02 -0.94284358807E+02  0.15332760869E+03  0.18130585791E+03  0.00000000000E+00 0. -1.
          1    1    1    2  501    0  0.24474652527E+01 -0.21560581398E+02  0.79742669693E+02  0.82642253879E+02  0.00000000000E+00 0. -1.
<scales pt_clust_5="13000.00000" pt_clust_6="13000.00000" pt_clust_7="13000.00000" pt_clust_8="13000.00000" pt_clust_9="96.75980" pt_clust_10="13000.00000"></scales>
<clustering>
<clus scale="   80.981">  5  6 -1 -1</clus>
<clus scale="   91.816">  7  8 -1 -1</clus>
<clus scale="   21.699">  7 10 -1 -1</clus>
<clus scale="   96.760">  2  9  1 -1</clus>
<clus scale="  107.889">  1  5  2 -1</clus>
<clus scale="   96.760">  2  5  1 -1</clus>
</clustering>
</event>
<event>
10    4  0.2565852E-005  0.2903737E+03  0.7546771E-02  0.1123825E+00
          2   -1    0    0  503    0 -0.00000000000E+00  0.00000000000E+00  0.26306565054E+03  0.26306565054E+03  0.00000000000E+00 0. -1.
         21   -1    0    0  501  502  0.00000000000E+00 -0.00000000000E+00 -0.24760395541E+03  0.24760395541E+03  0.00000000000E+00 0.  1.
         24    2    1    2    0    0 -0.64002374093E+02 -0.75130877961E+02  0.75629459910E+02  0.14767002482E+03  0.79659703178E+02 0.  0.
         23    2    1    2    0    0 -0.14249658220E+02 -0.79639434202E+02 -0.61707646391E+01  0.12173871807E+03  0.90756514376E+02 0.  0.
        -13    1    3    3    0    0  0.10256706359E+02 -0.45891883680E+02  0.28305033809E+02  0.54885698975E+02  0.00000000000E+00 0.  1.
         14    1    3    3    0    0 -0.74259080453E+02 -0.29238994281E+02  0.47324426100E+02  0.92784325842E+02  0.00000000000E+00 0. -1.
        -11    1    4    4    0    0  0.50099972631E+01 -0.40385885420E+02 -0.46822934882E+02  0.62036336487E+02  0.00000000000E+00 0.  1.
         11    1    4    4    0    0 -0.19259655483E+02 -0.39253548782E+02  0.40652170243E+02  0.59702381584E+02  0.00000000000E+00 0. -1.
         21    1    1    2  503  502  0.63967022672E+02 -0.11129606486E+02 -0.34738638864E+02  0.73637090926E+02  0.00000000000E+00 0. -1.
          1    1    1    2  501    0  0.14285009641E+02  0.16589991865E+03 -0.19258361279E+02  0.16762377214E+03  0.00000000000E+00 0. -1.
<scales pt_clust_5="13000.00000" pt_clust_6="13000.00000" pt_clust_7="13000.00000" pt_clust_8="13000.00000" pt_clust_9="64.92802" pt_clust_10="13000.00000"></scales>
<clustering>
<clus scale="   64.928">  2  9  1 -1</clus>
<clus scale="   79.660">  5  6 -1 -1</clus>
<clus scale="   90.757">  7  8 -1 -1</clus>
<clus scale="  122.554">  1  5  2 -1</clus>
<clus scale="  120.653">  7 10 -1 -1</clus>
<clus scale="   64.928">  2  5  1 -1</clus>
</clustering>
</event>
<event>
10    4  0.2565852E-005  0.4474962E+03  0.7546771E-02  0.1054377E+00
         21   -1    0    0  501  502  0.00000000000E+00  0.00000000000E+00  0.83114002661E+03  0.83114002661E+03  0.00000000000E+00 0. -1.
          2   -1    0    0  503    0 -0.00000000000E+00 -0.00000000000E+00 -0.22579393594E+03  0.22579393594E+03  0.00000000000E+00 0. -1.
         24    2    1    2    0    0 -0.65559454522E+02  0.19145591651E+03  0.52186180501E+03  0.56546290108E+03  0.80343879226E+02 0.  0.
         23    2    1    2    0    0 -0.84288700564E+02 -0.24562352852E+03 -0.25260513944E+02  0.28823629346E+03  0.12250128364E+03 0.  0.
        -11    1    3    3    0    0 -0.30138127175E+02  0.91305899235E+02  0.35388387068E+03  0.36671360470E+03  0.00000000000E+00 0.  1.
         12    1    3    3    0    0 -0.35421327346E+02  0.10015001727E+03  0.16797793433E+03  0.19874929638E+03  0.00000000000E+00 0. -1.
        -13    1    4    4    0    0 -0.11424926793E+03 -0.21753659931E+03 -0.16655002850E+02  0.24627719420E+03  0.00000000000E+00 0. -1.
         13    1    4    4    0    0  0.29960567363E+02 -0.28086929213E+02 -0.86055110945E+01  0.41959099257E+02  0.00000000000E+00 0.  1.
         21    1    1    2  503  502  0.37296843830E+02 -0.89667177648E+00 -0.29926962491E-01  0.37307632940E+02  0.00000000000E+00 0. -1.
          1    1    1    2  501    0  0.11255131126E+03  0.55064283795E+02  0.10877472657E+03  0.16592713508E+03  0.00000000000E+00 0. -1.
<scales pt_clust_5="13000.00000" pt_clust_6="13000.00000" pt_clust_7="13000.00000" pt_clust_8="13000.00000" pt_clust_9="37.30764" pt_clust_10="13000.00000"></scales>
<clustering>
<clus scale="   37.308">  1  9  2 -1</clus>
<clus scale="   80.344">  5  6 -1 -1</clus>
<clus scale="  122.501">  7  8 -1 -1</clus>
<clus scale="  130.928">  7 10 -1 -1</clus>
<clus scale="  211.021">  2  5  1 -1</clus>
<clus scale="   37.308">  1  5  2 -1</clus>
</clustering>
</event>
<event>
10    4  0.2565852E-005  0.3572154E+03  0.7546771E-02  0.1102679E+00
         21   -1    0    0  501  502  0.00000000000E+00  0.00000000000E+00  0.14385196185E+03  0.14385196185E+03  0.00000000000E+00 0.  1.
         -1   -1    0    0    0  501 -0.00000000000E+00 -0.00000000000E+00 -0.10069914762E+04  0.10069914762E+04  0.00000000000E+00 0.  1.
         24    2    1    2    0    0 -0.86990203899E+02 -0.20055004302E+02 -0.15328256358E+03  0.19470844481E+03  0.80289074054E+02 0.  0.
         23    2    1    2    0    0  0.14197624329E+03 -0.17472266766E+02 -0.73349561698E+03  0.75281019575E+03  0.90801084375E+02 0.  0.
        -11    1    3    3    0    0 -0.44644964722E+02 -0.27802507076E+02 -0.22827969308E+02  0.57334705524E+02  0.00000000000E+00 0.  1.
         12    1    3    3    0    0 -0.42345239177E+02  0.77475027734E+01 -0.13045459427E+03  0.13737373929E+03  0.00000000000E+00 0. -1.
        -11    1    4    4    0    0  0.23126917632E+02  0.26494996057E+00 -0.24457277178E+02  0.33661297132E+02  0.00000000000E+00 0. -1.
         11    1    4    4    0    0  0.11884932565E+03 -0.17737216727E+02 -0.70903833980E+03  0.71914889861E+03  0.00000000000E+00 0.  1.
         21    1    1    2  503  502  0.32701859350E+02 -0.73964998005E+01  0.82154337843E+02  0.88732491460E+02  0.00000000000E+00 0.  1.
         -2    1    1    2    0  503 -0.87687898737E+02  0.44923770869E+02 -0.58515671632E+02  0.11459230603E+03  0.00000000000E+00 0.  1.
<scales pt_clust_5="13000.00000" pt_clust_6="13000.00000" pt_clust_7="13000.00000" pt_clust_8="13000.00000" pt_clust_9="33.52790" pt_clust_10="13000.00000"></scales>
<clustering>
<clus scale="   33.528">  1  9  2 -1</clus>
<clus scale="   80.289">  5  6 -1 -1</clus>
<clus scale="   90.801">  7  8 -1 -1</clus>
<clus scale="   83.032">  7 10 -1 -1</clus>
<clus scale="  112.449">  2  5  1 -1</clus>
<clus scale="   33.528">  1  5  2 -1</clus>
</clustering>
</event>
<event>
10    4  0.2565852E-005  0.3053488E+03  0.7546771E-02  0.1090097E+00
         21   -1    0    0  501  502  0.00000000000E+00  0.00000000000E+00  0.40414623326E+03  0.40414623326E+03  0.00000000000E+00 0. -1.
          4   -1    0    0  503    0 -0.00000000000E+00 -0.00000000000E+00 -0.48577567833E+03  0.48577567833E+03  0.00000000000E+00 0. -1.
         24    2    1    2    0    0  0.23939495459E+03  0.26117050833E+02 -0.37164808720E+03  0.44840723114E+03  0.70389627005E+02 0.  0.
         23    2    1    2    0    0 -0.33772297311E+02  0.71466693066E+01  0.68479393556E+02  0.12043688131E+03  0.92865343861E+02 0.  0.
        -13    1    3    3    0    0  0.40957764556E+02  0.28552237346E+02 -0.10242687619E+03  0.11394750415E+03  0.00000000000E+00 0.  1.
         14    1    3    3    0    0  0.19843719003E+03 -0.24351865128E+01 -0.26922121100E+03  0.33445972699E+03  0.00000000000E+00 0. -1.
        -13    1    4    4    0    0 -0.35476521000E+02 -0.37107555918E+02  0.52302514324E+02  0.73287838371E+02  0.00000000000E+00 0.  1.
         13    1    4    4    0    0  0.17042236888E+01  0.44254225224E+02  0.16176879232E+02  0.47149042941E+02  0.00000000000E+00 0. -1.
         21    1    1    2  503  502 -0.47792878462E+01 -0.31142085221E+02  0.32160816334E+02  0.45022096480E+02  0.00000000000E+00 0. -1.
          3    1    1    2  501    0 -0.20084336943E+03 -0.21216349189E+01  0.18937843223E+03  0.27605570267E+03  0.00000000000E+00 0. -1.
<scales pt_clust_5="13000.00000" pt_clust_6="13000.00000" pt_clust_7="13000.00000" pt_clust_8="13000.00000" pt_clust_9="31.50668" pt_clust_10="13000.00000"></scales>
<clustering>
<clus scale="   31.507">  1  9  2 -1</clus>
<clus scale="   70.390">  5  6 -1 -1</clus>
<clus scale="   92.865">  7  8 -1 -1</clus>
<clus scale="  205.064">  7 10 -1 -1</clus>
<clus scale="  250.093">  2  5  1 -1</clus>
<clus scale="   31.507">  1  5  2 -1</clus>
</clustering>
</event>
<event>
10    4  0.2565852E-005  0.1944090E+03  0.7546771E-02  0.1189696E+00
         21   -1    0    0  503  502  0.00000000000E+00  0.00000000000E+00  0.43986852100E+02  0.43986852100E+02  0.00000000000E+00 0. -1.
          2   -1    0    0  502    0 -0.00000000000E+00 -0.00000000000E+00 -0.67770188351E+03  0.67770188351E+03  0.00000000000E+00 0. -1.
         24    2    1    2    0    0  0.54496402181E+01 -0.38844352335E+02 -0.74076931233E+02  0.11608843866E+03  0.80315325824E+02 0.  0.
         23    2    1    2    0    0 -0.94051427042E+02  0.23965687125E+02 -0.35168220885E+03  0.37610683044E+03  0.91410868061E+02 0.  0.
        -13    1    3    3    0    0  0.56086403789E+01 -0.21850291940E+02 -0.90009395459E+02  0.92793229148E+02  0.00000000000E+00 0.  1.
         14    1    3    3    0    0 -0.15900016080E+00 -0.16994060395E+02  0.15932464226E+02  0.23295209510E+02  0.00000000000E+00 0. -1.
        -13    1    4    4    0    0 -0.44390227454E+02 -0.30380050165E+02 -0.96065205369E+02  0.11009978848E+03  0.00000000000E+00 0.  1.
         13    1    4    4    0    0 -0.49661199587E+02  0.54345737290E+02 -0.25561700348E+03  0.26600704196E+03  0.00000000000E+00 0. -1.
         21    1    1    2  503  501  0.28704014821E+02  0.22196703109E+02 -0.88854228973E+02  0.95977539571E+02  0.00000000000E+00 0. -1.
          1    1    1    2  501    0  0.59897772002E+02 -0.73180378995E+01 -0.11910166235E+03  0.13351592693E+03  0.00000000000E+00 0. -1.
<scales pt_clust_5="13000.00000" pt_clust_6="13000.00000" pt_clust_7="13000.00000" pt_clust_8="13000.00000" pt_clust_9="36.28520" pt_clust_10="13000.00000"></scales>
<clustering>
<clus scale="   36.285">  1  9  2 -1</clus>
<clus scale="   80.315">  5  6 -1 -1</clus>
<clus scale="   87.242">  2  5  1 -1</clus>
<clus scale="   91.411">  7  8 -1 -1</clus>
<clus scale="   72.454">  7 10 -1 -1</clus>
<clus scale="   36.285">  1  5  2 -1</clus>
</clustering>
</event>
<event>
10    4  0.2565852E-005  0.1595264E+03  0.7546771E-02  0.1211250E+00
         21   -1    0    0  501  502  0.00000000000E+00  0.00000000000E+00  0.36392499453E+02  0.36392499453E+02  0.00000000000E+00 0.  1.
          2   -1    0    0  503    0 -0.00000000000E+00 -0.00000000000E+00 -0.79167056112E+03  0.79167056112E+03  0.00000000000E+00 0. -1.
         24    2    1    2    0    0 -0.33714821697E+02  0.54935849994E+02 -0.30325378979E+03  0.32019383127E+03  0.80041187817E+02 0.  0.
         23    2    1    2    0    0  0.88173871526E+01  0.92461257441E+01 -0.21781393841E+03  0.23718129827E+03  0.92999028637E+02 0.  0.
        -13    1    3    3    0    0  0.26445361967E+02  0.19487924312E+02 -0.90844842146E+02  0.96601872177E+02  0.00000000000E+00 0.  1.
         14    1    3    3    0    0 -0.60160183663E+02  0.35447925682E+02 -0.21240894764E+03  0.22359195909E+03  0.00000000000E+00 0. -1.
        -11    1    4    4    0    0 -0.39695990350E+02  0.11291554066E+01 -0.13638759967E+03  0.14205148357E+03  0.00000000000E+00 0. -1.
         11    1    4    4    0    0  0.48513377502E+02  0.81169703375E+01 -0.81426338741E+02  0.95129814700E+02  0.00000000000E+00 0.  1.
         21    1    1    2  503  502  0.18994572599E+02 -0.77949194043E+01  0.79216121765E+01  0.22006964721E+02  0.00000000000E+00 0.  1.
          1    1    1    2  501    0  0.59028619450E+01 -0.56387056334E+02 -0.24213194565E+03  0.24868096631E+03  0.00000000000E+00 0. -1.
<scales pt_clust_5="13000.00000" pt_clust_6="13000.00000" pt_clust_7="13000.00000" pt_clust_8="13000.00000" pt_clust_9="20.53179" pt_clust_10="13000.00000"></scales>
<clustering>
<clus scale="   20.532">  1  9  2 -1</clus>
<clus scale="   80.041">  5  6 -1 -1</clus>
<clus scale="   92.999">  7  8 -1 -1</clus>
<clus scale="   58.248">  7 10 -1 -1</clus>
<clus scale="   98.906">  2  5  1 -1</clus>
<clus scale="   20.532">  1  5  2 -1</clus>
</clustering>
</event>
<event>
10    4  0.2862431E-005  0.1611541E+03  0.7546771E-02  0.1217364E+00
         21   -1    0    0  501  502  0.00000000000E+00  0.00000000000E+00  0.66799264094E+03  0.66799264094E+03  0.00000000000E+00 0. -1.
          4   -1    0    0  503    0 -0.00000000000E+00 -0.00000000000E+00 -0.13985011478E+03  0.13985011478E+03  0.00000000000E+00 0. -1.
         24    2    1    2    0    0  0.11200733084E+02 -0.27780525973E+02 -0.86015176146E+01  0.84714612316E+02  0.78774141630E+02 0.  0.
         23    2    1    2    0    0 -0.27496991135E+02  0.93907620631E+02 -0.15512679843E+02  0.13330560211E+03  0.89190888456E+02 0.  0.
        -11    1    3    3    0    0  0.28544349755E+02  0.16566544745E+02 -0.15739849027E+02  0.36564643511E+02  0.00000000000E+00 0.  1.
         12    1    3    3    0    0 -0.17343616672E+02 -0.44347070718E+02  0.71383314121E+01  0.48149968805E+02  0.00000000000E+00 0. -1.
        -13    1    4    4    0    0  0.19200974047E+02 -0.67277497074E+01  0.37932772333E+01  0.20696110085E+02  0.00000000000E+00 0.  1.
         13    1    4    4    0    0 -0.46697965181E+02  0.10063537034E+03 -0.19305957077E+02  0.11260949202E+03  0.00000000000E+00 0. -1.
         21    1    1    2  503  502 -0.18472335455E+02 -0.88257404322E+02  0.53905665720E+03  0.54654613371E+03  0.00000000000E+00 0. -1.
          3    1    1    2  501    0  0.34768593506E+02  0.22130309664E+02  0.13200066411E+02  0.43276407585E+02  0.00000000000E+00 0. -1.
<scales pt_clust_5="13000.00000" pt_clust_6="13000.00000" pt_clust_7="13000.00000" pt_clust_8="13000.00000" pt_clust_9="91.17270" pt_clust_10="13000.00000"></scales>
<clustering>
<clus scale="   78.774">  5  6 -1 -1</clus>
<clus scale="   84.277">  2  5  1 -1</clus>
<clus scale="   89.191">  7  8 -1 -1</clus>
<clus scale="   40.611">  7 10 -1 -1</clus>
<clus scale="   91.173">  1  9  2 -1</clus>
<clus scale="   91.173">  1  5  2 -1</clus>
</clustering>
</event>
<event>
10    4  0.2565852E-005  0.2257573E+03  0.7546771E-02  0.1143449E+00
         -1   -1    0    0    0  501 -0.00000000000E+00  0.00000000000E+00  0.29682608508E+03  0.29682608508E+03  0.00000000000E+00 0.  1.
         21   -1    0    0  503  502  0.00000000000E+00 -0.00000000000E+00 -0.26117975776E+03  0.26117975776E+03  0.00000000000E+00 0.  1.
         24    2    1    2    0    0  0.13702097534E+03  0.47934040949E+02 -0.68726461995E+02  0.18005058726E+03  0.81378544034E+02 0.  0.
         23    2    1    2    0    0 -0.10882863691E+03 -0.48456509765E+02  0.77095405100E+02  0.16984519114E+03  0.93337998232E+02 0.  0.
        -13    1    3    3    0    0  0.28684523434E+02  0.36959989136E+02 -0.51887791126E+02  0.69865481816E+02  0.00000000000E+00 0.  1.
         14    1    3    3    0    0  0.10833645190E+03  0.10974051813E+02 -0.16838670869E+02  0.11018510544E+03  0.00000000000E+00 0. -1.
        -13    1    4    4    0    0 -0.22320947137E+02 -0.40764482959E+02  0.68216276637E+02  0.82543492477E+02  0.00000000000E+00 0. -1.
         13    1    4    4    0    0 -0.86507689775E+02 -0.76920268056E+01  0.88791284621E+01  0.87301698659E+02  0.00000000000E+00 0.  1.
         21    1    1    2  503  501  0.29119456824E+01 -0.51732382291E+02 -0.73786037514E+02  0.90161511396E+02  0.00000000000E+00 0.  1.
         -2    1    1    2    0  502 -0.31104284107E+02  0.52254851108E+02  0.10106342173E+03  0.11794855305E+03  0.00000000000E+00 0.  1.
<scales pt_clust_5="13000.00000" pt_clust_6="13000.00000" pt_clust_7="13000.00000" pt_clust_8="13000.00000" pt_clust_9="51.81427" pt_clust_10="13000.00000"></scales>
<clustering>
<clus scale="   51.814">  2  9  1 -1</clus>
<clus scale="   81.379">  5  6 -1 -1</clus>
<clus scale="   93.338">  7  8 -1 -1</clus>
<clus scale="   58.658">  7 10 -1 -1</clus>
<clus scale="  161.554">  1  5  2 -1</clus>
<clus scale="   51.814">  2  5  1 -1</clus>
</clustering>
</event>
<event>
10    4  0.2565852E-005  0.3017384E+03  0.7546771E-02  0.1138614E+00
         21   -1    0    0  503  502  0.00000000000E+00  0.00000000000E+00  0.34694074892E+03  0.34694074892E+03  0.00000000000E+00 0.  1.
          2   -1    0    0  502    0 -0.00000000000E+00 -0.00000000000E+00 -0.21644776312E+03  0.21644776312E+03  0.00000000000E+00 0. -1.
         24    2    1    2    0    0  0.21844627560E+02  0.42402481081E+01  0.42180404031E+02  0.88358537135E+02  0.74383312263E+02 0.  0.
         23    2    1    2    0    0 -0.53198770497E+02 -0.61848075690E+02  0.77425782017E+02  0.14319688790E+03  0.88630149124E+02 0.  0.
        -11    1    3    3    0    0  0.27722117175E+02 -0.23371940303E+02 -0.15664984772E+01  0.36293488282E+02  0.00000000000E+00 0.  1.
         12    1    3    3    0    0 -0.58774896155E+01  0.27612188411E+02  0.43746902508E+02  0.52065048853E+02  0.00000000000E+00 0. -1.
        -13    1    4    4    0    0 -0.30291049319E+02 -0.19909683695E+02  0.87188047802E+02  0.94422978418E+02  0.00000000000E+00 0.  1.
         13    1    4    4    0    0 -0.22907721179E+02 -0.41938391995E+02 -0.97622657855E+01  0.48773909480E+02  0.00000000000E+00 0. -1.
         21    1    1    2  503  501 -0.24542140503E+02  0.12133759312E+02  0.16206451676E+03  0.16436073852E+03  0.00000000000E+00 0.  1.
          1    1    1    2  501    0  0.55896283441E+02  0.45474068270E+02 -0.15117771700E+03  0.16747234848E+03  0.00000000000E+00 0. -1.
<scales pt_clust_5="13000.00000" pt_clust_6="13000.00000" pt_clust_7="13000.00000" pt_clust_8="13000.00000" pt_clust_9="27.37782" pt_clust_10="13000.00000"></scales>
<clustering>
<clus scale="   27.378">  1  9  2 -1</clus>
<clus scale="   74.383">  5  6 -1 -1</clus>
<clus scale="   76.015">  2  5  1 -1</clus>
<clus scale="   88.630">  7  8 -1 -1</clus>
<clus scale="   84.212">  7 10 -1 -1</clus>
<clus scale="   27.378">  1  5  2 -1</clus>
</clustering>
</event>
<event>
10    4  0.2565852E-005  0.2555658E+03  0.7546771E-02  0.1158536E+00
          2   -1    0    0  503    0 -0.00000000000E+00  0.00000000000E+00  0.13036674561E+03  0.13036674561E+03  0.00000000000E+00 0. -1.
         21   -1    0    0  501  502  0.00000000000E+00 -0.00000000000E+00 -0.36636266061E+03  0.36636266061E+03  0.00000000000E+00 0. -1.
         24    2    1    2    0    0  0.48811582312E+01 -0.13682667931E+01  0.38878979473E+02  0.86880936675E+02  0.77530795514E+02 0.  0.
         23    2    1    2    0    0 -0.63686732121E+02 -0.72363866556E+02 -0.20714602833E+03  0.24678413823E+03  0.93275960446E+02 0.  0.
        -11    1    3    3    0    0  0.12333218505E+01  0.25328758765E+02  0.51288791898E+02  0.57215446146E+02  0.00000000000E+00 0.  1.
         12    1    3    3    0    0  0.36478363807E+01 -0.26697025558E+02 -0.12409812425E+02  0.29665490529E+02  0.00000000000E+00 0. -1.
        -13    1    4    4    0    0 -0.68916199761E+02 -0.43275818572E+02 -0.20065030309E+03  0.21652432472E+03  0.00000000000E+00 0. -1.
         13    1    4    4    0    0  0.52294676395E+01 -0.29088047984E+02 -0.64957252334E+01  0.30259813510E+02  0.00000000000E+00 0.  1.
         21    1    1    2  503  502  0.34925284537E+02 -0.15058312734E+01 -0.76040541200E+02  0.83691140115E+02  0.00000000000E+00 0. -1.
          1    1    1    2  501    0  0.23880289353E+02  0.75237964623E+02  0.83116750452E+01  0.79373191206E+02  0.00000000000E+00 0. -1.
<scales pt_clust_5="13000.00000" pt_clust_6="13000.00000" pt_clust_7="13000.00000" pt_clust_8="13000.00000" pt_clust_9="34.95773" pt_clust_10="13000.00000"></scales>
<clustering>
<clus scale="   34.958">  2  9  1 -1</clus>
<clus scale="   77.531">  5  6 -1 -1</clus>
<clus scale="   77.937">  1  5  2 -1</clus>
<clus scale="   93.276">  7  8 -1 -1</clus>
<clus scale="   81.284">  7 10 -1 -1</clus>
<clus scale="   34.958">  2  5  1 -1</clus>
</clustering>
</event>
<event>
10    4  0.3186853E-005  0.1166605E+03  0.7546771E-02  0.1265643E+00
          2   -1    0    0  502    0 -0.00000000000E+00  0.00000000000E+00  0.69806092937E+03  0.69806092937E+03  0.00000000000E+00 0. -1.
         21   -1    0    0  503  502  0.00000000000E+00 -0.00000000000E+00 -0.17096510016E+03  0.17096510016E+03  0.00000000000E+00 0.  1.
         24    2    1    2    0    0 -0.20016898592E+02 -0.58100788740E+01  0.63751769854E+03  0.64301101011E+03  0.81239829683E+02 0.  0.
         23    2    1    2    0    0  0.41446207198E+01 -0.40675616231E+01  0.47302737058E+01  0.91128762275E+02  0.90820443106E+02 0.  0.
        -11    1    3    3    0    0  0.93230875282E+01  0.27482184149E+02  0.11473351617E+03  0.11834682142E+03  0.00000000000E+00 0.  1.
         12    1    3    3    0    0 -0.29339986121E+02 -0.33292263023E+02  0.52278418236E+03  0.52466418869E+03  0.00000000000E+00 0. -1.
        -11    1    4    4    0    0 -0.25081262157E+02 -0.43034356783E+01 -0.34087242509E+02  0.42538563350E+02  0.00000000000E+00 0.  1.
         11    1    4    4    0    0  0.29225882877E+02  0.23587405514E+00  0.38817516215E+02  0.48590198925E+02  0.00000000000E+00 0. -1.
         21    1    1    2  503  501  0.36867260969E+02  0.21708745698E+01 -0.10302674354E+03  0.10944595704E+03  0.00000000000E+00 0. -1.
          1    1    1    2  501    0 -0.20994983096E+02  0.77067659273E+01 -0.12125399491E+02  0.25440300098E+02  0.00000000000E+00 0. -1.
<scales pt_clust_5="13000.00000" pt_clust_6="13000.00000" pt_clust_7="13000.00000" pt_clust_8="13000.00000" pt_clust_9="36.93112" pt_clust_10="13000.00000"></scales>
<clustering>
<clus scale="   36.931">  2  9  1 -1</clus>
<clus scale="   81.240">  5  6 -1 -1</clus>
<clus scale="   83.505">  1  5  2 -1</clus>
<clus scale="   90.820">  7  8 -1 -1</clus>
<clus scale="   14.154">  7 10 -1 -1</clus>
<clus scale="   36.931">  2  5  1 -1</clus>
</clustering>
</event>
<event>
10    4  0.2565852E-005  0.2131073E+03  0.7546771E-02  0.1185069E+00
         -1   -1    0    0    0  501 -0.00000000000E+00  0.00000000000E+00  0.37696672060E+03  0.37696672060E+03  0.00000000000E+00 0.  1.
         21   -1    0    0  503  502  0.00000000000E+00 -0.00000000000E+00 -0.14177702188E+03  0.14177702188E+03  0.00000000000E+00 0. -1.
         24    2    1    2    0    0  0.19563660902E+02  0.42891607127E+01  0.21027286065E+03  0.22243713067E+03  0.69731394978E+02 0.  0.
         23    2    1    2    0    0 -0.49085791889E+02 -0.90342256781E+02  0.14678021786E+02  0.13742575024E+03  0.89995856463E+02 0.  0.
        -13    1    3    3    0    0  0.25676779656E+02  0.33551440033E+02  0.11134149483E+03  0.11908788609E+03  0.00000000000E+00 0.  1.
         14    1    3    3    0    0 -0.61131187543E+01 -0.29262279321E+02  0.98931365826E+02  0.10334924458E+03  0.00000000000E+00 0. -1.
        -11    1    4    4    0    0 -0.22313496616E+02 -0.34494009339E+02 -0.38118486038E+02  0.56042374944E+02  0.00000000000E+00 0. -1.
         11    1    4    4    0    0 -0.26772295273E+02 -0.55848247442E+02  0.52796507824E+02  0.81383375299E+02  0.00000000000E+00 0.  1.
         21    1    1    2  503  501  0.38517815263E+02  0.12491770947E+02 -0.49314025200E+02  0.63808616310E+02  0.00000000000E+00 0. -1.
         -2    1    1    2    0  502 -0.89956842753E+01  0.73561325121E+02  0.59552841480E+02  0.95072245253E+02  0.00000000000E+00 0.  1.
<scales pt_clust_5="13000.00000" pt_clust_6="13000.00000" pt_clust_7="13000.00000" pt_clust_8="13000.00000" pt_clust_9="40.49279" pt_clust_10="13000.00000"></scales>
<clustering>
<clus scale="   40.493">  2  9  1 -1</clus>
<clus scale="   69.731">  5  6 -1 -1</clus>
<clus scale="   73.397">  1  5  2 -1</clus>
<clus scale="   89.996">  7  8 -1 -1</clus>
<clus scale="   79.788">  7 10 -1 -1</clus>
<clus scale="   40.493">  2  5  1 -1</clus>
</clustering>
</event>
<event>
10    4  0.2565852E-005  0.1828328E+03  0.7546771E-02  0.1201041E+00
         21   -1    0    0  501  502  0.00000000000E+00  0.00000000000E+00  0.27326147141E+03  0.27326147141E+03  0.00000000000E+00 0. -1.
          2   -1    0    0  503    0 -0.00000000000E+00 -0.00000000000E+00 -0.48632464983E+03  0.48632464983E+03  0.00000000000E+00 0. -1.
         24    2    1    2    0    0 -0.69226799942E+01 -0.16514998338E+02 -0.37954871018E+03  0.38833834680E+03  0.80179670286E+02 0.  0.
         23    2    1    2    0    0 -0.39909692492E+02 -0.64610046730E+02 -0.35217218034E+02  0.12111488656E+03  0.87528975817E+02 0.  0.
        -13    1    3    3    0    0 -0.16890246417E+02  0.29476123985E+02 -0.12836133080E+03  0.13278084784E+03  0.00000000000E+00 0.  1.
         14    1    3    3    0    0  0.99675664225E+01 -0.45991122323E+02 -0.25118737938E+03  0.25555749896E+03  0.00000000000E+00 0. -1.
        -11    1    4    4    0    0 -0.60189804895E+02 -0.14771755782E+02 -0.21348462014E+02  0.65549784229E+02  0.00000000000E+00 0.  1.
         11    1    4    4    0    0  0.20280112403E+02 -0.49838290948E+02 -0.13868756020E+02  0.55565102333E+02  0.00000000000E+00 0. -1.
         21    1    1    2  503  502  0.28714875384E+02  0.23481239830E+02  0.18323200039E+03  0.18694886643E+03  0.00000000000E+00 0. -1.
          1    1    1    2  501    0  0.18117497103E+02  0.57643805238E+02  0.18470749407E+02  0.63184021455E+02  0.00000000000E+00 0. -1.
<scales pt_clust_5="13000.00000" pt_clust_6="13000.00000" pt_clust_7="13000.00000" pt_clust_8="13000.00000" pt_clust_9="37.09330" pt_clust_10="13000.00000"></scales>
<clustering>
<clus scale="   37.093">  1  9  2 -1</clus>
<clus scale="   80.180">  5  6 -1 -1</clus>
<clus scale="   81.819">  2  5  1 -1</clus>
<clus scale="   87.529">  7  8 -1 -1</clus>
<clus scale="   69.651">  7 10 -1 -1</clus>
<clus scale="   37.093">  1  5  2 -1</clus>
</clustering>
</event>
<event>
10    4  0.2565852E-005  0.1560239E+03  0.7546771E-02  0.1215939E+00
         21   -1    0    0  503  502  0.00000000000E+00  0.00000000000E+00  0.21601073821E+03  0.21601073821E+03  0.00000000000E+00 0. -1.
          2   -1    0    0  502    0 -0.00000000000E+00 -0.00000000000E+00 -0.28385417785E+03  0.28385417785E+03  0.00000000000E+00 0. -1.
         24    2    1    2    0    0 -0.38280458241E+02 -0.40894126502E+02 -0.20628270446E+03  0.22828093863E+03  0.80136818752E+02 0.  0.
         23    2    1    2    0    0 -0.54993997180E+01  0.25878436776E+02  0.20833088324E+02  0.96962989551E+02  0.90927811402E+02 0.  0.
        -11    1    3    3    0    0  0.95115566743E+00 -0.55775835657E+02 -0.12052433412E+03  0.13280799545E+03  0.00000000000E+00 0.  1.
         12    1    3    3    0    0 -0.39231613908E+02  0.14881709156E+02 -0.85758370339E+02  0.95472943185E+02  0.00000000000E+00 0. -1.
        -11    1    4    4    0    0 -0.28446145522E+02 -0.10883245007E+02 -0.20789797048E+02  0.36876061046E+02  0.00000000000E+00 0.  1.
         11    1    4    4    0    0  0.22946745804E+02  0.36761681784E+02  0.41622885372E+02  0.60086928505E+02  0.00000000000E+00 0. -1.
         21    1    1    2  503  501 -0.73007209566E+00  0.51804976366E+02  0.10262782651E+03  0.11496416553E+03  0.00000000000E+00 0. -1.
          1    1    1    2  501    0  0.44509930054E+02 -0.36789286641E+02  0.14978349986E+02  0.59656822354E+02  0.00000000000E+00 0. -1.
<scales pt_clust_5="13000.00000" pt_clust_6="13000.00000" pt_clust_7="13000.00000" pt_clust_8="13000.00000" pt_clust_9="51.81012" pt_clust_10="13000.00000"></scales>
<clustering>
<clus scale="   51.810">  1  9  2 -1</clus>
<clus scale="   80.137">  5  6 -1 -1</clus>
<clus scale="   90.928">  7  8 -1 -1</clus>
<clus scale="   48.067">  7 10 -1 -1</clus>
<clus scale="   95.702">  2  5  1 -1</clus>
<clus scale="   51.810">  1  5  2 -1</clus>
</clustering>
</event>
<event>
10    4  0.2565852E-005  0.3466614E+03  0.7546771E-02  0.1119485E+00
         -1   -1    0    0    0  501 -0.00000000000E+00  0.00000000000E+00  0.20850776891E+03  0.20850776891E+03  0.00000000000E+00 0.  1.
         21   -1    0    0  503  502  0.00000000000E+00 -0.00000000000E+00 -0.55994820604E+03  0.55994820604E+03  0.00000000000E+00 0.  1.
         24    2    1    2    0    0  0.87952967455E+01  0.19110652934E+01 -0.12311585529E+03  0.14696355875E+03  0.79748130772E+02 0.  0.
         23    2    1    2    0    0  0.43273979441E+02 -0.14186226396E+03  0.13551893504E+03  0.22061080943E+03  0.91138401616E+02 0.  0.
        -13    1    3    3    0    0  0.30940611200E+02 -0.20472265927E+02 -0.10329951693E+03  0.10975985282E+03  0.00000000000E+00 0.  1.
         14    1    3    3    0    0 -0.22145314455E+02  0.22383331220E+02 -0.19816338359E+02  0.37203705928E+02  0.00000000000E+00 0. -1.
        -13    1    4    4    0    0 -0.26876170141E+01 -0.10234554997E+03  0.12058327770E+03  0.15818394907E+03  0.00000000000E+00 0.  1.
         13    1    4    4    0    0  0.45961596455E+02 -0.39516713998E+02  0.14935657341E+02  0.62426860358E+02  0.00000000000E+00 0. -1.
         21    1    1    2  503  501 -0.24466775199E+02  0.12911349074E+03 -0.24089160518E+03  0.27440423107E+03  0.00000000000E+00 0. -1.
         -2    1    1    2    0  502 -0.27602500988E+02  0.10837707927E+02 -0.12295191170E+03  0.12647737571E+03  0.00000000000E+00 0.  1.
<scales pt_clust_5="13000.00000" pt_clust_6="13000.00000" pt_clust_7="13000.00000" pt_clust_8="13000.00000" pt_clust_9="131.43395" pt_clust_10="13000.00000"></scales>
<clustering>
<clus scale="   79.748">  5  6 -1 -1</clus>
<clus scale="   80.254">  1  5  2 -1</clus>
<clus scale="   91.138">  7  8 -1 -1</clus>
<clus scale="   29.587">  7 10 -1 -1</clus>
<clus scale="  131.434">  2  9  1 -1</clus>
<clus scale="  131.434">  2  5  1 -1</clus>
</clustering>
</event>
<event>
10    4  0.2565852E-005  0.2412855E+03  0.7546771E-02  0.1141354E+00
          2   -1    0    0  502    0 -0.00000000000E+00  0.00000000000E+00  0.12761837327E+04  0.12761837327E+04  0.00000000000E+00 0. -1.
         21   -1    0    0  503  502  0.00000000000E+00 -0.00000000000E+00 -0.46043863017E+02  0.46043863017E+02  0.00000000000E+00 0. -1.
         24    2    1    2    0    0 -0.10660151530E+03 -0.53535994247E+02  0.73429216145E+03  0.74817833837E+03  0.79723659627E+02 0.  0.
         23    2    1    2    0    0 -0.10849435907E+02  0.60185826642E+02  0.15515837030E+03  0.19020642034E+03  0.91456648076E+02 0.  0.
        -13    1    3    3    0    0 -0.75656564330E+02 -0.26566334002E+02  0.25928345840E+03  0.27139933240E+03  0.00000000000E+00 0.  1.
         14    1    3    3    0    0 -0.30944950969E+02 -0.26969660245E+02  0.47500870305E+03  0.47677900597E+03  0.00000000000E+00 0. -1.
        -13    1    4    4    0    0  0.34186993322E+02  0.44802279803E+02  0.52358411661E+02  0.76924625833E+02  0.00000000000E+00 0.  1.
         13    1    4    4    0    0 -0.45036429229E+02  0.15383546839E+02  0.10279995864E+03  0.11328179451E+03  0.00000000000E+00 0. -1.
         21    1    1    2  503  501  0.13200941879E+02  0.30994584457E+02  0.10103973061E+02  0.35171286638E+02  0.00000000000E+00 0.  1.
          1    1    1    2  501    0  0.10425000933E+03 -0.37644416851E+02  0.33058536490E+03  0.34867155039E+03  0.00000000000E+00 0. -1.
<scales pt_clust_5="13000.00000" pt_clust_6="13000.00000" pt_clust_7="13000.00000" pt_clust_8="13000.00000" pt_clust_9="33.68871" pt_clust_10="13000.00000"></scales>
<clustering>
<clus scale="   33.689">  2  9  1 -1</clus>
<clus scale="   79.724">  5  6 -1 -1</clus>
<clus scale="   91.457">  7  8 -1 -1</clus>
<clus scale="  111.718">  7 10 -1 -1</clus>
<clus scale="  139.154">  1  5  2 -1</clus>
<clus scale="   33.689">  2  5  1 -1</clus>
</clustering>
</event>
<event>
10    4  0.2565852E-005  0.2003911E+03  0.7546771E-02  0.1182647E+00
         21   -1    0    0  501  502  0.00000000000E+00  0.00000000000E+00  0.54151710449E+02  0.54151710449E+02  0.00000000000E+00 0. -1.
          2   -1    0    0  503    0 -0.00000000000E+00 -0.00000000000E+00 -0.74304827201E+03  0.74304827201E+03  0.00000000000E+00 0. -1.
         24    2    1    2    0    0  0.38327055847E+02 -0.46477114332E+02 -0.36246656729E+03  0.37595141611E+03  0.79551049686E+02 0.  0.
         23    2    1    2    0    0  0.89562028738E+01  0.37840563875E+02 -0.65371777578E+02  0.12124957382E+03  0.94423874117E+02 0.  0.
        -13    1    3    3    0    0  0.17084850077E+02 -0.66621121891E+02 -0.21967673148E+03  0.23019151231E+03  0.00000000000E+00 0.  1.
         14    1    3    3    0    0  0.21242205770E+02  0.20144007558E+02 -0.14278983580E+03  0.14575990380E+03  0.00000000000E+00 0. -1.
        -13    1    4    4    0    0  0.75174543930E+01  0.69607795641E+02 -0.49223739538E+02  0.85584659073E+02  0.00000000000E+00 0.  1.
         13    1    4    4    0    0  0.14387484808E+01 -0.31767231766E+02 -0.16148038040E+02  0.35664914745E+02  0.00000000000E+00 0. -1.
         21    1    1    2  503  502 -0.39102853542E+02  0.50522047054E+02 -0.41159883221E+02  0.75997673520E+02  0.00000000000E+00 0. -1.
          1    1    1    2  501    0 -0.81804051796E+01 -0.41885496597E+02 -0.21989833347E+03  0.22400131901E+03  0.00000000000E+00 0. -1.
<scales pt_clust_5="13000.00000" pt_clust_6="13000.00000" pt_clust_7="13000.00000" pt_clust_8="13000.00000" pt_clust_9="63.88670" pt_clust_10="13000.00000"></scales>
<clustering>
<clus scale="   63.887">  1  9  2 -1</clus>
<clus scale="   79.551">  5  6 -1 -1</clus>
<clus scale="   93.181">  2  5  1 -1</clus>
<clus scale="   94.424">  7  8 -1 -1</clus>
<clus scale="   58.704">  7 10 -1 -1</clus>
<clus scale="   63.887">  1  5  2 -1</clus>
</clustering>
</event>
<event>
10    4  0.2565852E-005  0.2988855E+03  0.7546771E-02  0.1093454E+00
         -1   -1    0    0    0  501 -0.00000000000E+00  0.00000000000E+00  0.34511014230E+03  0.34511014230E+03  0.00000000000E+00 0.  1.
         21   -1    0    0  503  502  0.00000000000E+00 -0.00000000000E+00 -0.39783830077E+03  0.39783830077E+03  0.00000000000E+00 0.  1.
         24    2    1    2    0    0 -0.19646618751E+03  0.28421897372E+02 -0.51888938954E+01  0.21383782873E+03  0.79327960360E+02 0.  0.
         23    2    1    2    0    0  0.11834414651E+03  0.97666151090E+02 -0.45977210385E+02  0.18219938801E+03  0.86825681883E+02 0.  0.
        -13    1    3    3    0    0 -0.15185890789E+03 -0.68646116829E+01  0.16627513392E+02  0.15292064936E+03  0.00000000000E+00 0.  1.
         14    1    3    3    0    0 -0.44607279615E+02  0.35286509055E+02 -0.21816407288E+02  0.60917179374E+02  0.00000000000E+00 0. -1.
        -13    1    4    4    0    0  0.12211420905E+03  0.57465550691E+02 -0.27216854151E+02  0.13767689246E+03  0.00000000000E+00 0.  1.
         13    1    4    4    0    0 -0.37700625376E+01  0.40200600399E+02 -0.18760356234E+02  0.44522495550E+02  0.00000000000E+00 0. -1.
         21    1    1    2  503  501 -0.84336926505E+02 -0.13702797776E+03 -0.63115849549E+02  0.17283805810E+03  0.00000000000E+00 0.  1.
         -2    1    1    2    0  502  0.16245896750E+03  0.10939929300E+02  0.61553795354E+02  0.17407316823E+03  0.00000000000E+00 0.  1.
<scales pt_clust_5="13000.00000" pt_clust_6="13000.00000" pt_clust_7="13000.00000" pt_clust_8="13000.00000" pt_clust_9="160.90178" pt_clust_10="13000.00000"></scales>
<clustering>
<clus scale="   79.328">  5  6 -1 -1</clus>
<clus scale="   86.826">  7  8 -1 -1</clus>
<clus scale="  160.902">  2  9  1 -1</clus>
<clus scale="  146.450">  7 10 -1 -1</clus>
<clus scale="  244.098">  1  5  2 -1</clus>
<clus scale="  160.902">  2  5  1 -1</clus>
</clustering>
</event>
<event>
10    4  0.2889131E-005  0.2719996E+03  0.7546771E-02  0.1142466E+00
         21   -1    0    0  501  502  0.00000000000E+00  0.00000000000E+00  0.57905474932E+03  0.57905474932E+03  0.00000000000E+00 0.  1.
          2   -1    0    0  503    0 -0.00000000000E+00 -0.00000000000E+00 -0.98495229534E+03  0.98495229534E+03  0.00000000000E+00 0. -1.
         24    2    1    2    0    0  0.23724986650E+02  0.43695315341E+02 -0.78934212534E+03  0.79509953867E+03  0.81548329130E+02 0.  0.
         23    2    1    2    0    0  0.70374839899E+02  0.47961741889E+02 -0.15607240747E+03  0.19792130947E+03  0.86955745007E+02 0.  0.
        -13    1    3    3    0    0  0.31708758893E+02 -0.82763914510E+01 -0.14698524706E+03  0.15059417950E+03  0.00000000000E+00 0.  1.
         14    1    3    3    0    0 -0.79837722427E+01  0.51971706792E+02 -0.64235687829E+03  0.64450535918E+03  0.00000000000E+00 0. -1.
        -11    1    4    4    0    0  0.24031646004E+02 -0.24100331747E+02 -0.61655582791E+02  0.70425541455E+02  0.00000000000E+00 0.  1.
         11    1    4    4    0    0  0.46343193895E+02  0.72062073636E+02 -0.94416824684E+02  0.12749576801E+03  0.00000000000E+00 0. -1.
         21    1    1    2  503  502 -0.60030489495E+02 -0.39070278124E+02  0.47744441210E+03  0.48278702649E+03  0.00000000000E+00 0.  1.
          1    1    1    2  501    0 -0.34069337054E+02 -0.52586779107E+02  0.62072574696E+02  0.88199170028E+02  0.00000000000E+00 0. -1.
<scales pt_clust_5="13000.00000" pt_clust_6="13000.00000" pt_clust_7="13000.00000" pt_clust_8="13000.00000" pt_clust_9="71.62504" pt_clust_10="13000.00000"></scales>
<clustering>
<clus scale="   71.625">  1  9  2 -1</clus>
<clus scale="   81.548">  5  6 -1 -1</clus>
<clus scale="   86.956">  7  8 -1 -1</clus>
<clus scale="   94.575">  2  5  1 -1</clus>
<clus scale="  102.707">  7 10 -1 -1</clus>
<clus scale="   71.625">  1  5  2 -1</clus>
</clustering>
</event>
<event>
10    4  0.2565852E-005  0.4337796E+03  0.7546771E-02  0.1091355E+00
          2   -1    0    0  503    0 -0.00000000000E+00  0.00000000000E+00  0.42037284932E+03  0.42037284932E+03  0.00000000000E+00 0. -1.
         21   -1    0    0  501  502  0.00000000000E+00 -0.00000000000E+00 -0.23602547862E+03  0.23602547862E+03  0.00000000000E+00 0. -1.
         24    2    1    2    0    0  0.22519925739E+02 -0.60664684192E+01  0.18766213800E+02  0.86513943126E+02  0.81169837258E+02 0.  0.
         23    2    1    2    0    0  0.93721158521E+02  0.82798529124E+02 -0.52902967939E+02  0.16518180144E+03  0.94058766375E+02 0.  0.
        -11    1    3    3    0    0 -0.20991195017E+02 -0.27992187812E+02  0.22238719380E+01  0.35059070911E+02  0.00000000000E+00 0.  1.
         12    1    3    3    0    0  0.43511120756E+02  0.21925719393E+02  0.16542341862E+02  0.51454872215E+02  0.00000000000E+00 0. -1.
        -11    1    4    4    0    0  0.14290566291E+02  0.34099906747E+02  0.24247501395E+02  0.44214988963E+02  0.00000000000E+00 0.  1.
         11    1    4    4    0    0  0.79430592230E+02  0.48698622377E+02 -0.77150469334E+02  0.12096681248E+03  0.00000000000E+00 0. -1.
         21    1    1    2  503  502  0.26056997098E+01  0.27023071560E+02 -0.70451490242E+02  0.75501314855E+02  0.00000000000E+00 0.  1.
          1    1    1    2  501    0 -0.11884678397E+03 -0.10375513226E+03  0.28893561508E+03  0.32920126851E+03  0.00000000000E+00 0. -1.
<scales pt_clust_5="13000.00000" pt_clust_6="13000.00000" pt_clust_7="13000.00000" pt_clust_8="13000.00000" pt_clust_9="27.14841" pt_clust_10="13000.00000"></scales>
<clustering>
<clus scale="   27.148">  2  9  1 -1</clus>
<clus scale="   81.170">  5  6 -1 -1</clus>
<clus scale="   84.384">  1  5  2 -1</clus>
<clus scale="   94.059">  7  8 -1 -1</clus>
<clus scale="  141.751">  7 10 -1 -1</clus>
<clus scale="   27.148">  2  5  1 -1</clus>
</clustering>
</event>
<event>
10    4  0.2565852E-005  0.1508783E+03  0.7546771E-02  0.1222705E+00
         21   -1    0    0  501  502  0.00000000000E+00  0.00000000000E+00  0.18813533664E+03  0.18813533664E+03  0.00000000000E+00 0.  1.
          2   -1    0    0  503    0 -0.00000000000E+00 -0.00000000000E+00 -0.52282333466E+03  0.52282333466E+03  0.00000000000E+00 0. -1.
         24    2    1    2    0    0 -0.13445129664E+02 -0.28466104360E+02 -0.91411485013E+02  0.12987296154E+03  0.86716987598E+02 0.  0.
         23    2    1    2    0    0  0.15227659437E+02  0.30721914109E+02 -0.28182881485E+03  0.29910368395E+03  0.94126591626E+02 0.  0.
        -11    1    3    3    0    0 -0.90549917581E+01 -0.54844203441E+02 -0.86292681167E+02  0.10264651163E+03  0.00000000000E+00 0.  1.
         12    1    3    3    0    0 -0.43901379057E+01  0.26378099081E+02 -0.51188038461E+01  0.27226449911E+02  0.00000000000E+00 0. -1.
        -11    1    4    4    0    0 -0.30096791696E+02 -0.44631862502E+01 -0.38341463835E+02  0.48946958547E+02  0.00000000000E+00 0.  1.
         11    1    4    4    0    0  0.45324451133E+02  0.35185100359E+02 -0.24348735102E+03  0.25015672540E+03  0.00000000000E+00 0. -1.
         21    1    1    2  503  502 -0.28935860894E+02  0.43326676578E+02  0.14986929267E+03  0.15866722987E+03  0.00000000000E+00 0.  1.
          1    1    1    2  501    0  0.27153331121E+02 -0.45582486328E+02 -0.11131699083E+03  0.12331479594E+03  0.00000000000E+00 0. -1.
<scales pt_clust_5="13000.00000" pt_clust_6="13000.00000" pt_clust_7="13000.00000" pt_clust_8="13000.00000" pt_clust_9="52.10072" pt_clust_10="13000.00000"></scales>
<clustering>
<clus scale="   52.101">  1  9  2 -1</clus>
<clus scale="   86.717">  5  6 -1 -1</clus>
<clus scale="   91.801">  2  5  1 -1</clus>
<clus scale="   94.127">  7  8 -1 -1</clus>
<clus scale="   41.796">  7 10 -1 -1</clus>
<clus scale="   52.101">  1  5  2 -1</clus>
</clustering>
</event>
<event>
10    4  0.2565852E-005  0.1706818E+03  0.7546771E-02  0.1210803E+00
          2   -1    0    0  503    0 -0.00000000000E+00  0.00000000000E+00  0.12115330882E+04  0.12115330882E+04  0.00000000000E+00 0. -1.
         21   -1    0    0  501  502  0.00000000000E+00 -0.00000000000E+00 -0.55286472910E+02  0.55286472910E+02  0.00000000000E+00 0.  1.
         24    2    1    2    0    0  0.60053607053E+01  0.13665371411E+02  0.56732694029E+03  0.57323128981E+03  0.80693541901E+02 0.  0.
         23    2    1    2    0    0  0.37210649692E+02  0.46479358780E+02  0.46064078052E+03  0.47210174432E+03  0.84529078270E+02 0.  0.
        -13    1    3    3    0    0  0.33647279786E+02 -0.14769421792E+02  0.16976223460E+03  0.17369367160E+03  0.00000000000E+00 0.  1.
         14    1    3    3    0    0 -0.27641919080E+02  0.28434793203E+02  0.39756470569E+03  0.39953761821E+03  0.00000000000E+00 0. -1.
        -13    1    4    4    0    0  0.12006555555E+02 -0.21183760883E+02  0.55933861231E+02  0.61004146857E+02  0.00000000000E+00 0.  1.
         13    1    4    4    0    0  0.25204094136E+02  0.67663119664E+02  0.40470691929E+03  0.41109759747E+03  0.00000000000E+00 0. -1.
         21    1    1    2  503  502  0.85102005367E+01 -0.24508757615E+02 -0.36705804110E+02  0.44949068604E+02  0.00000000000E+00 0.  1.
          1    1    1    2  501    0 -0.51726210934E+02 -0.35635972577E+02  0.16498469856E+03  0.17653745835E+03  0.00000000000E+00 0. -1.
<scales pt_clust_5="13000.00000" pt_clust_6="13000.00000" pt_clust_7="13000.00000" pt_clust_8="13000.00000" pt_clust_9="25.94422" pt_clust_10="13000.00000"></scales>
<clustering>
<clus scale="   25.944">  2  9  1 -1</clus>
<clus scale="   80.694">  5  6 -1 -1</clus>
<clus scale="   81.526">  1  5  2 -1</clus>
<clus scale="   84.529">  7  8 -1 -1</clus>
<clus scale="   62.811">  7 10 -1 -1</clus>
<clus scale="   25.944">  2  5  1 -1</clus>
</clustering>
</event>
<event>
10    4  0.2565852E-005  0.2403307E+03  0.7546771E-02  0.1146066E+00
          2   -1    0    0  502    0 -0.00000000000E+00  0.00000000000E+00  0.50057272207E+03  0.50057272207E+03  0.00000000000E+00 0. -1.
         21   -1    0    0  503  502  0.00000000000E+00 -0.00000000000E+00 -0.25263116440E+03  0.25263116440E+03  0.00000000000E+00 0.  1.
         24    2    1    2    0    0  0.11445876140E+03 -0.20695769944E+02  0.14035744590E+03  0.20009325384E+03  0.82510451802E+02 0.  0.
         23    2    1    2    0    0  0.67439879003E+01 -0.11930721726E+03  0.12553136528E+03  0.19588996578E+03  0.91296558324E+02 0.  0.
        -13    1    3    3    0    0  0.84135458027E+02 -0.51743560310E+02  0.90142377824E+02  0.13372292104E+03  0.00000000000E+00 0.  1.
         14    1    3    3    0    0  0.30323303376E+02  0.31047790366E+02  0.50215068077E+02  0.66370332802E+02  0.00000000000E+00 0. -1.
        -11    1    4    4    0    0  0.24853231817E+02 -0.44595979687E+02  0.10431976989E+03  0.11614258016E+03  0.00000000000E+00 0.  1.
         11    1    4    4    0    0 -0.18109243917E+02 -0.74711237570E+02  0.21211595389E+02  0.79747385621E+02  0.00000000000E+00 0. -1.
         21    1    1    2  503  501 -0.53272817994E+02  0.94260187611E+02 -0.16003542172E+03  0.19322088994E+03  0.00000000000E+00 0.  1.
          1    1    1    2  501    0 -0.67929931310E+02  0.45742799590E+02  0.14208816821E+03  0.16399977691E+03  0.00000000000E+00 0. -1.
<scales pt_clust_5="13000.00000" pt_clust_6="13000.00000" pt_clust_7="13000.00000" pt_clust_8="13000.00000" pt_clust_9="108.27269" pt_clust_10="13000.00000"></scales>
<clustering>
<clus scale="   82.510">  5  6 -1 -1</clus>
<clus scale="   91.297">  7  8 -1 -1</clus>
<clus scale="   81.896">  7 10 -1 -1</clus>
<clus scale="  108.273">  2  9  1 -1</clus>
<clus scale="  125.785">  1  5  2 -1</clus>
<clus scale="  108.273">  2  5  1 -1</clus>
</clustering>
</event>
<event>
10    4  0.2565852E-005  0.4099128E+03  0.7546771E-02  0.1090782E+00
         21   -1    0    0  503  502  0.00000000000E+00  0.00000000000E+00  0.14277128510E+03  0.14277128510E+03  0.00000000000E+00 0.  1.
          2   -1    0    0  502    0 -0.00000000000E+00 -0.00000000000E+00 -0.11571137530E+04  0.11571137530E+04  0.00000000000E+00 0. -1.
         24    2    1    2    0    0 -0.44865792873E+02 -0.44159825156E+02 -0.80212320859E+03  0.80857292997E+03  0.80159290133E+02 0.  0.
         23    2    1    2    0    0 -0.12606111918E+03 -0.48323120228E+02  0.24872620975E+02  0.16337000468E+03  0.88569641735E+02 0.  0.
        -11    1    3    3    0    0 -0.28172235372E+02  0.19513308246E+02 -0.20662562260E+03  0.20944830379E+03  0.00000000000E+00 0.  1.
         12    1    3    3    0    0 -0.16693557501E+02 -0.63673133402E+02 -0.59549758599E+03  0.59912462619E+03  0.00000000000E+00 0. -1.
        -11    1    4    4    0    0 -0.42020242930E+02 -0.49510310756E+01 -0.31968337647E+02  0.53030068231E+02  0.00000000000E+00 0. -1.
         11    1    4    4    0    0 -0.84040876245E+02 -0.43372089153E+02  0.56840958623E+02  0.11033993644E+03  0.00000000000E+00 0.  1.
         21    1    1    2  503  501  0.57252790686E+01  0.30972535460E+02  0.12157679271E+01  0.31520705336E+02  0.00000000000E+00 0.  1.
          1    1    1    2  501    0  0.16520163298E+03  0.61510409924E+02 -0.23830764819E+03  0.29642139811E+03  0.00000000000E+00 0. -1.
<scales pt_clust_5="13000.00000" pt_clust_6="13000.00000" pt_clust_7="13000.00000" pt_clust_8="13000.00000" pt_clust_9="31.49725" pt_clust_10="13000.00000"></scales>
<clustering>
<clus scale="   31.497">  1  9  2 -1</clus>
<clus scale="   80.159">  5  6 -1 -1</clus>
<clus scale="   88.570">  7  8 -1 -1</clus>
<clus scale="  101.520">  2  5  1 -1</clus>
<clus scale="  135.761">  7 10 -1 -1</clus>
<clus scale="   31.497">  1  5  2 -1</clus>
</clustering>
</event>
<event>
10    4  0.2565852E-005  0.1702876E+03  0.7546771E-02  0.1202260E+00
          2   -1    0    0  502    0 -0.00000000000E+00  0.00000000000E+00  0.13397796934E+04  0.13397796934E+04  0.00000000000E+00 0. -1.
         21   -1    0    0  503  502  0.00000000000E+00 -0.00000000000E+00 -0.36864943356E+02  0.36864943356E+02  0.00000000000E+00 0. -1.
         24    2    1    2    0    0 -0.40387025835E+00  0.57499561847E+02  0.10627335649E+04  0.10673290341E+04  0.80512572824E+02 0.  0.
         23    2    1    2    0    0  0.17563464278E+02 -0.29597754699E+02  0.67791612980E+02  0.11768584041E+03  0.89831797717E+02 0.  0.
        -13    1    3    3    0    0  0.20033185961E+02  0.10003291759E+02  0.75705882730E+02  0.78947926291E+02  0.00000000000E+00 0.  1.
         14    1    3    3    0    0 -0.20437056219E+02  0.47496270088E+02  0.98702768218E+03  0.98838110783E+03  0.00000000000E+00 0. -1.
        -11    1    4    4    0    0  0.40359848374E+02 -0.70035792229E+01 -0.18490602829E+01  0.41004713225E+02  0.00000000000E+00 0. -1.
         11    1    4    4    0    0 -0.22796384096E+02 -0.22594175476E+02  0.69640673263E+02  0.76681127181E+02  0.00000000000E+00 0.  1.
         21    1    1    2  503  501  0.19257549812E+02 -0.70837468243E+01  0.80840933757E+01  0.22054143818E+02  0.00000000000E+00 0.  1.
          1    1    1    2  501    0 -0.36417143832E+02 -0.20818060324E+02  0.16430547880E+03  0.16957561843E+03  0.00000000000E+00 0. -1.
<scales pt_clust_5="13000.00000" pt_clust_6="13000.00000" pt_clust_7="13000.00000" pt_clust_8="13000.00000" pt_clust_9="20.51908" pt_clust_10="13000.00000"></scales>
<clustering>
<clus scale="   20.519">  2  9  1 -1</clus>
<clus scale="   80.513">  5  6 -1 -1</clus>
<clus scale="   89.832">  7  8 -1 -1</clus>
<clus scale="   40.807">  7 10 -1 -1</clus>
<clus scale="   98.627">  1  5  2 -1</clus>
<clus scale="   20.519">  2  5  1 -1</clus>
</clustering>
</event>
<event>
10    4  0.2565852E-005  0.6011544E+03  0.7546771E-02  0.1012405E+00
          2   -1    0    0  503    0 -0.00000000000E+00  0.00000000000E+00  0.14820844704E+04  0.14820844704E+04  0.00000000000E+00 0. -1.
         21   -1    0    0  501  502  0.00000000000E+00 -0.00000000000E+00 -0.15874593493E+03  0.15874593493E+03  0.00000000000E+00 0. -1.
         24    2    1    2    0    0 -0.25286252969E+03 -0.15179225542E+03  0.60675381160E+03  0.67930724524E+03  0.79547456418E+02 0.  0.
         23    2    1    2    0    0 -0.93061548120E+01 -0.17925252774E+03  0.26771077609E+03  0.33602365967E+03  0.94998773707E+02 0.  0.
        -13    1    3    3    0    0 -0.38381302927E+02 -0.61222057975E+02  0.15862527301E+03  0.17430789436E+03  0.00000000000E+00 0.  1.
         14    1    3    3    0    0 -0.21448122676E+03 -0.90570197446E+02  0.44812853859E+03  0.50499935089E+03  0.00000000000E+00 0. -1.
        -11    1    4    4    0    0 -0.19667024040E+02 -0.11984454337E+03  0.24140129350E+03  0.27022970028E+03  0.00000000000E+00 0.  1.
         11    1    4    4    0    0  0.10360869228E+02 -0.59407984369E+02  0.26309482587E+02  0.65793959388E+02  0.00000000000E+00 0. -1.
         21    1    1    2  503  502  0.22260157597E+01  0.40740778621E+02  0.18126764192E+02  0.44646900999E+02  0.00000000000E+00 0.  1.
          1    1    1    2  501    0  0.25994266874E+03  0.29030400454E+03  0.43074718362E+03  0.58085259944E+03  0.00000000000E+00 0. -1.
<scales pt_clust_5="13000.00000" pt_clust_6="13000.00000" pt_clust_7="13000.00000" pt_clust_8="13000.00000" pt_clust_9="40.80155" pt_clust_10="13000.00000"></scales>
<clustering>
<clus scale="   40.802">  2  9  1 -1</clus>
<clus scale="   79.547">  5  6 -1 -1</clus>
<clus scale="   94.999">  7  8 -1 -1</clus>
<clus scale="  300.078">  1  5  2 -1</clus>
<clus scale="  238.305">  7 10 -1 -1</clus>
<clus scale="   40.802">  2  5  1 -1</clus>
</clustering>
</event>
<event>
10    4  0.2565852E-005  0.1365429E+03  0.7546771E-02  0.1242166E+00
          2   -1    0    0  502    0 -0.00000000000E+00  0.00000000000E+00  0.27069003052E+03  0.27069003052E+03  0.00000000000E+00 0. -1.
         21   -1    0    0  503  502  0.00000000000E+00 -0.00000000000E+00 -0.10492249428E+03  0.10492249428E+03  0.00000000000E+00 0. -1.
         24    2    1    2    0    0 -0.19380472889E+02 -0.13433073594E+02  0.16614382373E+03  0.18627007327E+03  0.80849983541E+02 0.  0.
         23    2    1    2    0    0  0.14595703275E+02 -0.47978029663E+02  0.30888235128E+02  0.10877865413E+03  0.91453740441E+02 0.  0.
        -11    1    3    3    0    0  0.26912890208E+01  0.27599699425E+02  0.23963313623E+02  0.36650059273E+02  0.00000000000E+00 0.  1.
         12    1    3    3    0    0 -0.22071761910E+02 -0.41032773019E+02  0.14218051010E+03  0.14962001400E+03  0.00000000000E+00 0. -1.
        -13    1    4    4    0    0 -0.16245939887E+02 -0.62663970987E+02  0.32135633226E+01  0.64815359383E+02  0.00000000000E+00 0. -1.
         13    1    4    4    0    0  0.30841643162E+02  0.14685941325E+02  0.27674671806E+02  0.43963294747E+02  0.00000000000E+00 0.  1.
         21    1    1    2  503  501  0.16346121744E+02  0.32006831378E+02 -0.33175436475E+02  0.48910556491E+02  0.00000000000E+00 0. -1.
          1    1    1    2  501    0 -0.11561352130E+02  0.29404271879E+02  0.19109138570E+01  0.31653240901E+02  0.00000000000E+00 0. -1.
<scales pt_clust_5="13000.00000" pt_clust_6="13000.00000" pt_clust_7="13000.00000" pt_clust_8="13000.00000" pt_clust_9="35.93930" pt_clust_10="13000.00000"></scales>
<clustering>
<clus scale="   35.939">  2  9  1 -1</clus>
<clus scale="   80.850">  5  6 -1 -1</clus>
<clus scale="   83.003">  1  5  2 -1</clus>
<clus scale="   91.454">  7  8 -1 -1</clus>
<clus scale="   36.699">  7 10 -1 -1</clus>
<clus scale="   35.939">  2  5  1 -1</clus>
</clustering>
</event>
<event>
10    4  0.2565852E-005  0.2472906E+03  0.7546771E-02  0.1155599E+00
          2   -1    0    0  502    0 -0.00000000000E+00  0.00000000000E+00  0.86166612343E+03  0.86166612343E+03  0.00000000000E+00 0. -1.
         21   -1    0    0  503  502  0.00000000000E+00 -0.00000000000E+00 -0.90391160275E+02  0.90391160275E+02  0.00000000000E+00 0.  1.
         24    2    1    2    0    0  0.11324436256E+02 -0.44184584744E+02  0.36176534316E+03  0.37331634377E+03  0.80065027458E+02 0.  0.
         23    2    1    2    0    0  0.91926774390E+02  0.10950015072E+03  0.87827762872E+02  0.19236520589E+03  0.94073596969E+02 0.  0.
        -11    1    3    3    0    0  0.45712600744E+01 -0.59968812219E+02  0.34150381063E+03  0.34675929336E+03  0.00000000000E+00 0.  1.
         12    1    3    3    0    0  0.67531761815E+01  0.15784227475E+02  0.20261532536E+02  0.26557050406E+02  0.00000000000E+00 0. -1.
        -11    1    4    4    0    0 -0.12936985193E+02  0.33706135584E+02  0.41325098849E+02  0.54874702338E+02  0.00000000000E+00 0. -1.
         11    1    4    4    0    0  0.10486375958E+03  0.75794015137E+02  0.46502664023E+02  0.13749050355E+03  0.00000000000E+00 0.  1.
         21    1    1    2  503  501 -0.11775991551E+03 -0.94603619680E+02  0.15466549777E+03  0.21619125504E+03  0.00000000000E+00 0.  1.
          1    1    1    2  501    0  0.14508704861E+02  0.29288053704E+02  0.16701635934E+03  0.17018447901E+03  0.00000000000E+00 0. -1.
<scales pt_clust_5="13000.00000" pt_clust_6="13000.00000" pt_clust_7="13000.00000" pt_clust_8="13000.00000" pt_clust_9="158.89175" pt_clust_10="13000.00000"></scales>
<clustering>
<clus scale="   80.065">  5  6 -1 -1</clus>
<clus scale="   92.146">  1  5  2 -1</clus>
<clus scale="   94.074">  7  8 -1 -1</clus>
<clus scale="   23.228">  7 10 -1 -1</clus>
<clus scale="  158.892">  2  9  1 -1</clus>
<clus scale="  158.892">  2  5  1 -1</clus>
</clustering>
</event>
<event>
10    4  0.2565852E-005  0.2875099E+03  0.7546771E-02  0.1122432E+00
          2   -1    0    0  502    0 -0.00000000000E+00  0.00000000000E+00  0.79951823840E+03  0.79951823840E+03  0.00000000000E+00 0. -1.
         21   -1    0    0  503  502  0.00000000000E+00 -0.00000000000E+00 -0.12439891179E+03  0.12439891179E+03  0.00000000000E+00 0.  1.
         24    2    1    2    0    0 -0.63613016258E+02 -0.80855962676E+02  0.16644434372E+03  0.21162835585E+03  0.80613515656E+02 0.  0.
         23    2    1    2    0    0 -0.15173828061E+02 -0.67608148180E+02  0.97039026947E+02  0.15072559617E+03  0.92198296257E+02 0.  0.
        -11    1    3    3    0    0 -0.55735665038E+02 -0.23427709643E+02  0.39897027995E+02  0.72436833029E+02  0.00000000000E+00 0.  1.
         12    1    3    3    0    0 -0.78773512196E+01 -0.57428253033E+02  0.12654731573E+03  0.13919152282E+03  0.00000000000E+00 0. -1.
        -13    1    4    4    0    0  0.23741659777E+02 -0.70778751167E+02  0.75310506847E+02  0.10604230508E+03  0.00000000000E+00 0.  1.
         13    1    4    4    0    0 -0.38915487838E+02  0.31706029873E+01  0.21728520100E+02  0.44683291091E+02  0.00000000000E+00 0. -1.
         21    1    1    2  503  501  0.12260326180E+03  0.62574202572E+02 -0.11625573553E+01  0.13765334057E+03  0.00000000000E+00 0.  1.
          1    1    1    2  501    0 -0.43816417483E+02  0.85889908285E+02  0.41279851330E+03  0.42390985759E+03  0.00000000000E+00 0. -1.
<scales pt_clust_5="13000.00000" pt_clust_6="13000.00000" pt_clust_7="13000.00000" pt_clust_8="13000.00000" pt_clust_9="127.29665" pt_clust_10="13000.00000"></scales>
<clustering>
<clus scale="   80.614">  5  6 -1 -1</clus>
<clus scale="   92.198">  7  8 -1 -1</clus>
<clus scale="   96.421">  7 10 -1 -1</clus>
<clus scale="  130.701">  1  5  2 -1</clus>
<clus scale="  127.297">  2  9  1 -1</clus>
<clus scale="  127.297">  2  5  1 -1</clus>
</clustering>
</event>
<event>
10    4  0.2565852E-005  0.3312681E+03  0.7546771E-02  0.1110603E+00
          2   -1    0    0  503    0 -0.00000000000E+00  0.00000000000E+00  0.86010267348E+03  0.86010267348E+03  0.00000000000E+00 0. -1.
         21   -1    0    0  501  502  0.00000000000E+00 -0.00000000000E+00 -0.81415719618E+02  0.81415719618E+02  0.00000000000E+00 0. -1.
         24    2    1    2    0    0  0.20621951218E+02  0.78738845458E+02  0.51183677424E+02  0.12540378152E+03  0.80506328501E+02 0.  0.
         23    2    1    2    0    0  0.11463563154E+03  0.89340791900E+01  0.31249320767E+03  0.34535498696E+03  0.91634689891E+02 0.  0.
        -13    1    3    3    0    0  0.15090468486E+02 -0.14569241260E+02  0.10594165611E+02  0.23499390950E+02  0.00000000000E+00 0.  1.
         14    1    3    3    0    0  0.55314827326E+01  0.93308086718E+02  0.40589511814E+02  0.10190439057E+03  0.00000000000E+00 0. -1.
        -13    1    4    4    0    0  0.73563502548E+02 -0.28661818509E+02  0.11035668751E+03  0.13568967251E+03  0.00000000000E+00 0. -1.
         13    1    4    4    0    0  0.41072128997E+02  0.37595897699E+02  0.20213652015E+03  0.20966531445E+03  0.00000000000E+00 0.  1.
         21    1    1    2  503  502  0.33279203799E+02 -0.10761809671E+02  0.45297137651E+02  0.57228949250E+02  0.00000000000E+00 0. -1.
          1    1    1    2  501    0 -0.16853678656E+03 -0.76911114977E+02  0.36971293112E+03  0.41353067537E+03  0.00000000000E+00 0. -1.
<scales pt_clust_5="13000.00000" pt_clust_6="13000.00000" pt_clust_7="13000.00000" pt_clust_8="13000.00000" pt_clust_9="34.97602" pt_clust_10="13000.00000"></scales>
<clustering>
<clus scale="   34.976">  2  9  1 -1</clus>
<clus scale="   80.506">  5  6 -1 -1</clus>
<clus scale="   91.635">  7  8 -1 -1</clus>
<clus scale="  115.082">  1  5  2 -1</clus>
<clus scale="  146.816">  7 10 -1 -1</clus>
<clus scale="   34.976">  2  5  1 -1</clus>
</clustering>
</event>
<event>
10    4  0.2565852E-005  0.2401819E+03  0.7546771E-02  0.1163024E+00
          2   -1    0    0  502    0 -0.00000000000E+00  0.00000000000E+00  0.76213269797E+03  0.76213269797E+03  0.00000000000E+00 0. -1.
         21   -1    0    0  503  502  0.00000000000E+00 -0.00000000000E+00 -0.14693559737E+03  0.14693559737E+03  0.00000000000E+00 0. -1.
         24    2    1    2    0    0  0.14961451495E+02  0.25010301648E+02  0.30873716472E+03  0.32011591801E+03  0.79411610388E+02 0.  0.
         23    2    1    2    0    0  0.25235391339E+02 -0.78394625554E+02  0.15457222737E+03  0.19799299433E+03  0.92336937560E+02 0.  0.
        -13    1    3    3    0    0  0.65359827337E+01 -0.28640841426E+02  0.13166753189E+03  0.13490498813E+03  0.00000000000E+00 0.  1.
         14    1    3    3    0    0  0.84254687612E+01  0.53651143073E+02  0.17706963282E+03  0.18521092987E+03  0.00000000000E+00 0. -1.
        -11    1    4    4    0    0 -0.10235364604E+02 -0.32663852343E+02  0.14076786083E+01  0.34258889321E+02  0.00000000000E+00 0.  1.
         11    1    4    4    0    0  0.35470755944E+02 -0.45730773211E+02  0.15316454876E+03  0.16373410501E+03  0.00000000000E+00 0. -1.
         21    1    1    2  503  501  0.26618758598E+02  0.16900649498E+03 -0.21141860784E+02  0.17239121768E+03  0.00000000000E+00 0. -1.
          1    1    1    2  501    0 -0.66815601432E+02 -0.11562217108E+03  0.17302956930E+03  0.21856816532E+03  0.00000000000E+00 0. -1.
<scales pt_clust_5="13000.00000" pt_clust_6="13000.00000" pt_clust_7="13000.00000" pt_clust_8="13000.00000" pt_clust_9="175.66591" pt_clust_10="13000.00000"></scales>
<clustering>
<clus scale="   79.412">  5  6 -1 -1</clus>
<clus scale="   84.591">  1  5  2 -1</clus>
<clus scale="   92.337">  7  8 -1 -1</clus>
<clus scale="  120.796">  7 10 -1 -1</clus>
<clus scale="  175.666">  2  9  1 -1</clus>
<clus scale="  175.666">  2  5  1 -1</clus>
</clustering>
</event>
<event>
10    4  0.2565852E-005  0.2058781E+03  0.7546771E-02  0.1175937E+00
          2   -1    0    0  502    0 -0.00000000000E+00  0.00000000000E+00  0.53873689823E+03  0.53873689823E+03  0.00000000000E+00 0. -1.
         21   -1    0    0  503  502  0.00000000000E+00 -0.00000000000E+00 -0.90068328596E+02  0.90068328596E+02  0.00000000000E+00 0. -1.
         24    2    1    2    0    0 -0.67115032429E+02  0.58288592614E+00  0.15193080967E+03  0.18534414612E+03  0.82247882884E+02 0.  0.
         23    2    1    2    0    0  0.41788856355E+02 -0.63549172981E+02  0.27072432797E+03  0.29561778584E+03  0.91177890104E+02 0.  0.
        -13    1    3    3    0    0 -0.23107658607E+02  0.36659841866E+02  0.36537068502E+02  0.56682142396E+02  0.00000000000E+00 0.  1.
         14    1    3    3    0    0 -0.44007373822E+02 -0.36076955940E+02  0.11539374117E+03  0.12866200372E+03  0.00000000000E+00 0. -1.
        -13    1    4    4    0    0 -0.27189675621E+02 -0.11619872915E+02  0.10033970928E+03  0.10460572244E+03  0.00000000000E+00 0.  1.
         13    1    4    4    0    0  0.68978531975E+02 -0.51929300066E+02  0.17038461869E+03  0.19101206340E+03  0.00000000000E+00 0. -1.
         21    1    1    2  503  501  0.27772269641E+02 -0.82938123777E+01 -0.40854747758E+02  0.50091882568E+02  0.00000000000E+00 0. -1.
          1    1    1    2  501    0 -0.24460935672E+01  0.71260099433E+02  0.66868179750E+02  0.97751412307E+02  0.00000000000E+00 0. -1.
<scales pt_clust_5="13000.00000" pt_clust_6="13000.00000" pt_clust_7="13000.00000" pt_clust_8="13000.00000" pt_clust_9="28.98424" pt_clust_10="13000.00000"></scales>
<clustering>
<clus scale="   28.984">  2  9  1 -1</clus>
<clus scale="   82.248">  5  6 -1 -1</clus>
<clus scale="   91.178">  7  8 -1 -1</clus>
<clus scale="   68.763">  7 10 -1 -1</clus>
<clus scale="   99.936">  1  5  2 -1</clus>
<clus scale="   28.984">  2  5  1 -1</clus>
</clustering>
</event>
<event>
10    4  0.2565852E-005  0.2564625E+03  0.7546771E-02  0.1153883E+00
         -1   -1    0    0    0  501 -0.00000000000E+00  0.00000000000E+00  0.63640050627E+02  0.63640050627E+02  0.00000000000E+00 0.  1.
         21   -1    0    0  501  502  0.00000000000E+00 -0.00000000000E+00 -0.60847392757E+03  0.60847392757E+03  0.00000000000E+00 0. -1.
         24    2    1    2    0    0  0.13733223203E+02  0.24726803520E+02 -0.22198001388E+03  0.23694406505E+03  0.77893177934E+02 0.  0.
         23    2    1    2    0    0 -0.64557432853E+02 -0.14385498384E+02 -0.32243684034E+03  0.34119243890E+03  0.89845198300E+02 0.  0.
        -11    1    3    3    0    0 -0.27375445981E+02  0.13097915475E+02 -0.41115496264E+02  0.51102391975E+02  0.00000000000E+00 0.  1.
         12    1    3    3    0    0  0.41108669185E+02  0.11628888044E+02 -0.18086451762E+03  0.18584167308E+03  0.00000000000E+00 0. -1.
        -11    1    4    4    0    0 -0.21389934602E+02 -0.50627729880E+02 -0.17037597887E+03  0.17902142472E+03  0.00000000000E+00 0.  1.
         11    1    4    4    0    0 -0.43167498251E+02  0.36242231495E+02 -0.15206086147E+03  0.16217101418E+03  0.00000000000E+00 0. -1.
         21    1    1    2  503  502  0.32551221363E+02 -0.45007532184E+00 -0.38607334021E+02  0.50500602177E+02  0.00000000000E+00 0. -1.
         -2    1    1    2    0  503  0.18272988287E+02 -0.98912298134E+01  0.38190311294E+02  0.43476872068E+02  0.00000000000E+00 0.  1.
<scales pt_clust_5="13000.00000" pt_clust_6="13000.00000" pt_clust_7="13000.00000" pt_clust_8="13000.00000" pt_clust_9="32.55435" pt_clust_10="13000.00000"></scales>
<clustering>
<clus scale="   32.554">  2  9  1 -1</clus>
<clus scale="   77.893">  5  6 -1 -1</clus>
<clus scale="   86.009">  1  5  2 -1</clus>
<clus scale="   89.845">  7  8 -1 -1</clus>
<clus scale="   40.671">  7 10 -1 -1</clus>
<clus scale="   32.554">  2  5  1 -1</clus>
</clustering>
</event>
<event>
10    4  0.2565852E-005  0.2483982E+03  0.7546771E-02  0.1140402E+00
         -1   -1    0    0    0  501 -0.00000000000E+00  0.00000000000E+00  0.57787270600E+03  0.57787270600E+03  0.00000000000E+00 0.  1.
         21   -1    0    0  501  502  0.00000000000E+00 -0.00000000000E+00 -0.16841657025E+03  0.16841657025E+03  0.00000000000E+00 0. -1.
         24    2    1    2    0    0 -0.10609973230E+03  0.43367247137E+02  0.25181479394E+03  0.29011252675E+03  0.87273801419E+02 0.  0.
         23    2    1    2    0    0  0.46206297220E+02 -0.11013602331E+03  0.20866280619E+03  0.25714388655E+03  0.91202226801E+02 0.  0.
        -13    1    3    3    0    0 -0.32081634487E+02  0.42644251262E+02  0.17699271382E+03  0.18486260894E+03  0.00000000000E+00 0.  1.
         14    1    3    3    0    0 -0.74018097816E+02  0.72299587533E+00  0.74822080114E+02  0.10524991781E+03  0.00000000000E+00 0. -1.
        -13    1    4    4    0    0  0.21173962366E+02 -0.10966283599E+03  0.20265819271E+03  0.23139709884E+03  0.00000000000E+00 0. -1.
         13    1    4    4    0    0  0.25032334854E+02 -0.47318731917E+00  0.60046134742E+01  0.25746787711E+02  0.00000000000E+00 0.  1.
         21    1    1    2  503  502  0.61905711438E+02 -0.91175993706E+01 -0.93148290994E+02  0.11221431211E+03  0.00000000000E+00 0. -1.
         -2    1    1    2    0  503 -0.20122763544E+01  0.75886375540E+02  0.42126826613E+02  0.86818550836E+02  0.00000000000E+00 0.  1.
<scales pt_clust_5="13000.00000" pt_clust_6="13000.00000" pt_clust_7="13000.00000" pt_clust_8="13000.00000" pt_clust_9="62.57354" pt_clust_10="13000.00000"></scales>
<clustering>
<clus scale="   62.574">  2  9  1 -1</clus>
<clus scale="   87.274">  5  6 -1 -1</clus>
<clus scale="   91.202">  7  8 -1 -1</clus>
<clus scale="   75.234">  7 10 -1 -1</clus>
<clus scale="  130.498">  1  5  2 -1</clus>
<clus scale="   62.574">  2  5  1 -1</clus>
</clustering>
</event>
<event>
10    4  0.2565852E-005  0.1731683E+03  0.7546771E-02  0.1179734E+00
         21   -1    0    0  503  502  0.00000000000E+00  0.00000000000E+00  0.51705662947E+02  0.51705662947E+02  0.00000000000E+00 0. -1.
         -1   -1    0    0    0  501 -0.00000000000E+00 -0.00000000000E+00 -0.65301302100E+03  0.65301302100E+03  0.00000000000E+00 0.  1.
         24    2    1    2    0    0 -0.11621368045E+03  0.52981770598E+02 -0.29352464261E+03  0.33005115513E+03  0.80401253991E+02 0.  0.
         23    2    1    2    0    0  0.75535976870E+02 -0.70094653301E+02 -0.20422306785E+03  0.24564608736E+03  0.89532086821E+02 0.  0.
        -13    1    3    3    0    0 -0.87628692347E+02  0.74281596068E+02 -0.23377856855E+03  0.26047833374E+03  0.00000000000E+00 0.  1.
         14    1    3    3    0    0 -0.28584988106E+02 -0.21299825470E+02 -0.59746074065E+02  0.69572821391E+02  0.00000000000E+00 0. -1.
        -13    1    4    4    0    0  0.61200109886E+02 -0.91579440451E+02 -0.17347761403E+03  0.20549143518E+03  0.00000000000E+00 0.  1.
         13    1    4    4    0    0  0.14335866983E+02  0.21484787150E+02 -0.30745453819E+02  0.40154652179E+02  0.00000000000E+00 0. -1.
         21    1    1    2  503  501  0.28757729316E+01  0.25441547973E+02 -0.95016189150E+01  0.27309763735E+02  0.00000000000E+00 0.  1.
         -2    1    1    2    0  502  0.37801930652E+02 -0.83286652705E+01 -0.94058028677E+02  0.10171167772E+03  0.00000000000E+00 0.  1.
<scales pt_clust_5="13000.00000" pt_clust_6="13000.00000" pt_clust_7="13000.00000" pt_clust_8="13000.00000" pt_clust_9="25.60356" pt_clust_10="13000.00000"></scales>
<clustering>
<clus scale="   25.604">  1  9  2 -1</clus>
<clus scale="   80.401">  5  6 -1 -1</clus>
<clus scale="   89.532">  7  8 -1 -1</clus>
<clus scale="   38.538">  7 10 -1 -1</clus>
<clus scale="  154.148">  2  5  1 -1</clus>
<clus scale="   25.604">  1  5  2 -1</clus>
</clustering>
</event>
<event>
10    4  0.2565852E-005  0.3583019E+03  0.7546771E-02  0.1102251E+00
         21   -1    0    0  501  502  0.00000000000E+00  0.00000000000E+00  0.28141102922E+02  0.28141102922E+02  0.00000000000E+00 0. -1.
          2   -1    0    0  503    0 -0.00000000000E+00 -0.00000000000E+00 -0.27182848984E+04  0.27182848984E+04  0.00000000000E+00 0. -1.
         24    2    1    2    0    0  0.46944327217E+02 -0.49610199124E+02 -0.90128014005E+03  0.90782925077E+03  0.84753265332E+02 0.  0.
         23    2    1    2    0    0  0.93511363080E+02 -0.62115000490E+02 -0.69156449203E+03  0.70735474193E+03  0.97399363351E+02 0.  0.
        -13    1    3    3    0    0  0.19283304428E+02  0.17929250597E+02 -0.10656332996E+03  0.10976815179E+03  0.00000000000E+00 0.  1.
         14    1    3    3    0    0  0.27661022789E+02 -0.67539449720E+02 -0.79471681009E+03  0.79806109898E+03  0.00000000000E+00 0. -1.
        -13    1    4    4    0    0  0.69433137810E+02 -0.83153014153E+02 -0.61358350261E+03  0.62307310892E+03  0.00000000000E+00 0.  1.
         13    1    4    4    0    0  0.24078225270E+02  0.21038013662E+02 -0.77980989418E+02  0.84281633003E+02  0.00000000000E+00 0. -1.
         21    1    1    2  503  502  0.72064998512E+01 -0.51194946424E+02 -0.14666826700E+03  0.15551346155E+03  0.00000000000E+00 0. -1.
          1    1    1    2  501    0 -0.14766219015E+03  0.16292014604E+03 -0.95063089637E+03  0.97572854705E+03  0.00000000000E+00 0. -1.
<scales pt_clust_5="13000.00000" pt_clust_6="13000.00000" pt_clust_7="13000.00000" pt_clust_8="13000.00000" pt_clust_9="51.69967" pt_clust_10="13000.00000"></scales>
<clustering>
<clus scale="   51.700">  1  9  2 -1</clus>
<clus scale="   84.753">  5  6 -1 -1</clus>
<clus scale="   97.399">  7  8 -1 -1</clus>
<clus scale="  112.666">  2  5  1 -1</clus>
<clus scale="  161.600">  7 10 -1 -1</clus>
<clus scale="   51.700">  1  5  2 -1</clus>
</clustering>
</event>
<event>
10    4  0.2565852E-005  0.1797347E+03  0.7546771E-02  0.1202015E+00
          2   -1    0    0  503    0 -0.00000000000E+00  0.00000000000E+00  0.61808244174E+03  0.61808244174E+03  0.00000000000E+00 0. -1.
         21   -1    0    0  501  502  0.00000000000E+00 -0.00000000000E+00 -0.28220716447E+03  0.28220716447E+03  0.00000000000E+00 0. -1.
         24    2    1    2    0    0  0.13994248565E+02 -0.50615817527E+01  0.15330549137E+03  0.17380795923E+03  0.80530580559E+02 0.  0.
         23    2    1    2    0    0  0.10033912775E+01 -0.19935455704E+02  0.13244270765E+03  0.16352896090E+03  0.93820152707E+02 0.  0.
        -11    1    3    3    0    0  0.46760945828E+02  0.37397558541E+01  0.10237993006E+03  0.11261537154E+03  0.00000000000E+00 0.  1.
         12    1    3    3    0    0 -0.32766697264E+02 -0.88013376068E+01  0.50925561305E+02  0.61192587684E+02  0.00000000000E+00 0. -1.
        -13    1    4    4    0    0 -0.19243375025E+02 -0.51051590534E+02  0.10136300582E+03  0.11511312404E+03  0.00000000000E+00 0.  1.
         13    1    4    4    0    0  0.20246766303E+02  0.31116134829E+02  0.31079701839E+02  0.48415836860E+02  0.00000000000E+00 0. -1.
         21    1    1    2  503  502  0.18517944156E+02 -0.25728727592E+02 -0.25239696414E+03  0.25437985217E+03  0.00000000000E+00 0. -1.
          1    1    1    2  501    0 -0.33515583999E+02  0.50725765049E+02  0.30252404239E+03  0.30857283392E+03  0.00000000000E+00 0. -1.
<scales pt_clust_5="13000.00000" pt_clust_6="13000.00000" pt_clust_7="13000.00000" pt_clust_8="13000.00000" pt_clust_9="31.69987" pt_clust_10="13000.00000"></scales>
<clustering>
<clus scale="   31.700">  2  9  1 -1</clus>
<clus scale="   80.531">  5  6 -1 -1</clus>
<clus scale="   84.326">  1  5  2 -1</clus>
<clus scale="   93.820">  7  8 -1 -1</clus>
<clus scale="   43.484">  7 10 -1 -1</clus>
<clus scale="   31.700">  2  5  1 -1</clus>
</clustering>
</event>
<event>
10    4  0.2565852E-005  0.1880963E+03  0.7546771E-02  0.1188376E+00
          2   -1    0    0  503    0 -0.00000000000E+00  0.00000000000E+00  0.97240577832E+03  0.97240577832E+03  0.00000000000E+00 0. -1.
         21   -1    0    0  501  502  0.00000000000E+00 -0.00000000000E+00 -0.16248629545E+03  0.16248629545E+03  0.00000000000E+00 0.  1.
         24    2    1    2    0    0  0.36918952688E+02  0.31853020967E+02  0.34379885839E+03  0.35651394091E+03  0.80789300162E+02 0.  0.
         23    2    1    2    0    0  0.33106624529E+01 -0.43427644974E+02  0.21478396560E+03  0.23746655996E+03  0.91440113653E+02 0.  0.
        -13    1    3    3    0    0  0.30836628778E+02 -0.22280160196E+02  0.17711055982E+03  0.18115036189E+03  0.00000000000E+00 0.  1.
         14    1    3    3    0    0  0.60823239107E+01  0.54133181163E+02  0.16668829857E+03  0.17536357902E+03  0.00000000000E+00 0. -1.
        -11    1    4    4    0    0 -0.34161000777E+01 -0.71922744621E+02  0.15309493920E+03  0.16918218388E+03  0.00000000000E+00 0. -1.
         11    1    4    4    0    0  0.67267625305E+01  0.28495099647E+02  0.61689026395E+02  0.68284376073E+02  0.00000000000E+00 0.  1.
         21    1    1    2  503  502  0.41016102484E+02 -0.44668642330E+01 -0.13739521779E+03  0.14345633277E+03  0.00000000000E+00 0.  1.
          1    1    1    2  501    0 -0.81245717625E+02  0.16041488240E+02  0.38873187667E+03  0.39745524015E+03  0.00000000000E+00 0. -1.
<scales pt_clust_5="13000.00000" pt_clust_6="13000.00000" pt_clust_7="13000.00000" pt_clust_8="13000.00000" pt_clust_9="41.25862" pt_clust_10="13000.00000"></scales>
<clustering>
<clus scale="   41.259">  2  9  1 -1</clus>
<clus scale="   80.789">  5  6 -1 -1</clus>
<clus scale="   91.440">  7  8 -1 -1</clus>
<clus scale="   74.691">  7 10 -1 -1</clus>
<clus scale="   99.180">  1  5  2 -1</clus>
<clus scale="   41.259">  2  5  1 -1</clus>
</clustering>
</event>
<event>
10    4  0.2565852E-005  0.2388356E+03  0.7546771E-02  0.1164364E+00
          2   -1    0    0  503    0 -0.00000000000E+00  0.00000000000E+00  0.88426784133E+03  0.88426784133E+03  0.00000000000E+00 0. -1.
         21   -1    0    0  501  502  0.00000000000E+00 -0.00000000000E+00 -0.58736012066E+02  0.58736012066E+02  0.00000000000E+00 0. -1.
         24    2    1    2    0    0  0.41271213155E+01  0.93351314220E+01  0.20470876988E+03  0.22104757793E+03  0.82777855923E+02 0.  0.
         23    2    1    2    0    0 -0.36326171751E+02  0.69922514553E+02  0.15021755773E+03  0.19269495950E+03  0.91418181824E+02 0.  0.
        -11    1    3    3    0    0  0.43354751595E+02  0.23338362332E+01  0.11311651717E+03  0.12116281498E+03  0.00000000000E+00 0.  1.
         12    1    3    3    0    0 -0.39227630279E+02  0.70012951888E+01  0.91592252710E+02  0.99884762943E+02  0.00000000000E+00 0. -1.
        -11    1    4    4    0    0 -0.66552420494E+02  0.37612978383E+02  0.95185478827E+02  0.12208290706E+03  0.00000000000E+00 0.  1.
         11    1    4    4    0    0  0.30226248743E+02  0.32309536169E+02  0.55032078907E+02  0.70612052437E+02  0.00000000000E+00 0. -1.
         21    1    1    2  503  502 -0.25157788452E+02 -0.85542223273E+02  0.45212197972E+02  0.99972641896E+02  0.00000000000E+00 0. -1.
          1    1    1    2  501    0  0.57356838888E+02  0.62845772982E+01  0.42539330368E+03  0.42928867408E+03  0.00000000000E+00 0. -1.
<scales pt_clust_5="13000.00000" pt_clust_6="13000.00000" pt_clust_7="13000.00000" pt_clust_8="13000.00000" pt_clust_9="88.07082" pt_clust_10="13000.00000"></scales>
<clustering>
<clus scale="   82.778">  5  6 -1 -1</clus>
<clus scale="   83.405">  1  5  2 -1</clus>
<clus scale="   88.071">  2  9  1 -1</clus>
<clus scale="   91.418">  7  8 -1 -1</clus>
<clus scale="   54.730">  7 10 -1 -1</clus>
<clus scale="   88.071">  2  5  1 -1</clus>
</clustering>
</event>
<event>
10    4  0.2565852E-005  0.6365842E+03  0.7546771E-02  0.9907877E-01
          2   -1    0    0  503    0 -0.00000000000E+00  0.00000000000E+00  0.23883167369E+04  0.23883167369E+04  0.00000000000E+00 0. -1.
         21   -1    0    0  501  502  0.00000000000E+00 -0.00000000000E+00 -0.16110079749E+03  0.16110079749E+03  0.00000000000E+00 0.  1.
         24    2    1    2    0    0  0.20133725743E+03 -0.43889401947E+03  0.88384809796E+03  0.10103258673E+04  0.80039029733E+02 0.  0.
         23    2    1    2    0    0  0.50643593153E+02 -0.39156846370E+00  0.29797203119E+03  0.31961474108E+03  0.10392942072E+03 0.  0.
        -13    1    3    3    0    0  0.15287860900E+03 -0.39318811797E+03  0.78404722171E+03  0.89033634716E+03  0.00000000000E+00 0.  1.
         14    1    3    3    0    0  0.48458648430E+02 -0.45705901503E+02  0.99800876254E+02  0.11998952013E+03  0.00000000000E+00 0. -1.
        -13    1    4    4    0    0 -0.21688450691E+02 -0.27548973036E+02  0.60918168051E+02  0.70287680338E+02  0.00000000000E+00 0.  1.
         13    1    4    4    0    0  0.72332043844E+02  0.27157404572E+02  0.23705386314E+03  0.24932706074E+03  0.00000000000E+00 0. -1.
         21    1    1    2  503  502  0.17421211207E+02 -0.13352017459E+02 -0.20814425084E+02  0.30249219192E+02  0.00000000000E+00 0.  1.
          1    1    1    2  501    0 -0.26940206180E+03  0.45263760539E+03  0.10662102353E+04  0.11892277068E+04  0.00000000000E+00 0. -1.
<scales pt_clust_5="13000.00000" pt_clust_6="13000.00000" pt_clust_7="13000.00000" pt_clust_8="13000.00000" pt_clust_9="21.94937" pt_clust_10="13000.00000"></scales>
<clustering>
<clus scale="   21.949">  2  9  1 -1</clus>
<clus scale="   80.039">  5  6 -1 -1</clus>
<clus scale="  103.929">  7  8 -1 -1</clus>
<clus scale="  498.413">  1  5  2 -1</clus>
<clus scale="  141.228">  7 10 -1 -1</clus>
<clus scale="   21.949">  2  5  1 -1</clus>
</clustering>
</event>
<event>
10    4  0.2565852E-005  0.3007221E+03  0.7546771E-02  0.1110916E+00
         -1   -1    0    0    0  501 -0.00000000000E+00  0.00000000000E+00  0.23163312696E+03  0.23163312696E+03  0.00000000000E+00 0.  1.
         21   -1    0    0  501  502  0.00000000000E+00 -0.00000000000E+00 -0.96992325623E+03  0.96992325623E+03  0.00000000000E+00 0.  1.
         24    2    1    2    0    0 -0.11545856507E+03 -0.59149021906E+02 -0.13627549017E+03  0.20459941240E+03  0.80378002567E+02 0.  0.
         23    2    1    2    0    0  0.13563987826E+02  0.31922830108E+02 -0.17881196825E+02  0.98128542106E+02  0.90035685859E+02 0.  0.
        -13    1    3    3    0    0 -0.67507084265E+02 -0.60974053314E+02 -0.12619770627E+03  0.15556639313E+03  0.00000000000E+00 0.  1.
         14    1    3    3    0    0 -0.47951480803E+02  0.18250314089E+01 -0.10077783893E+02  0.49033019273E+02  0.00000000000E+00 0. -1.
        -13    1    4    4    0    0 -0.35750669539E+02 -0.50237158238E+00 -0.15752310848E+02  0.39070424195E+02  0.00000000000E+00 0.  1.
         13    1    4    4    0    0  0.49314657365E+02  0.32425201691E+02 -0.21288859765E+01  0.59058117911E+02  0.00000000000E+00 0. -1.
         21    1    1    2  503  502 -0.39548875115E+02  0.17480656159E+03 -0.65761908985E+03  0.68160422155E+03  0.00000000000E+00 0.  1.
         -2    1    1    2    0  503  0.14144345236E+03 -0.14758036980E+03  0.73485647566E+02  0.21722420713E+03  0.00000000000E+00 0.  1.
<scales pt_clust_5="13000.00000" pt_clust_6="13000.00000" pt_clust_7="13000.00000" pt_clust_8="13000.00000" pt_clust_9="177.43245" pt_clust_10="13000.00000"></scales>
<clustering>
<clus scale="   80.378">  5  6 -1 -1</clus>
<clus scale="   90.036">  7  8 -1 -1</clus>
<clus scale="  152.610">  1  5  2 -1</clus>
<clus scale="  177.432">  2  9  1 -1</clus>
<clus scale="   93.531">  7 10 -1 -1</clus>
<clus scale="  177.432">  2  5  1 -1</clus>
</clustering>
</event>
<event>
10    4  0.2565852E-005  0.1716341E+03  0.7546771E-02  0.1205810E+00
         21   -1    0    0  503  502  0.00000000000E+00  0.00000000000E+00  0.41731194013E+03  0.41731194013E+03  0.00000000000E+00 0.  1.
          2   -1    0    0  502    0 -0.00000000000E+00 -0.00000000000E+00 -0.45758478142E+03  0.45758478142E+03  0.00000000000E+00 0. -1.
         24    2    1    2    0    0  0.56691086105E+02  0.44218235074E+02  0.43844735987E+01  0.10597142750E+03  0.77727654546E+02 0.  0.
         23    2    1    2    0    0 -0.83383237097E+02 -0.45147493469E+01 -0.26364968581E+03  0.29126842201E+03  0.91394691528E+02 0.  0.
        -13    1    3    3    0    0  0.34489750516E+02  0.40824376218E+02  0.37977140826E+02  0.65562457318E+02  0.00000000000E+00 0.  1.
         14    1    3    3    0    0  0.22201335590E+02  0.33938588565E+01 -0.33592667228E+02  0.40408970185E+02  0.00000000000E+00 0. -1.
        -11    1    4    4    0    0 -0.95130021132E+02  0.17865525020E+02 -0.18711107385E+03  0.21066431084E+03  0.00000000000E+00 0. -1.
         11    1    4    4    0    0  0.11746784035E+02 -0.22380274367E+02 -0.76538611957E+02  0.80604111162E+02  0.00000000000E+00 0.  1.
         21    1    1    2  503  501 -0.18627827336E+02 -0.45150876852E+02  0.34250987657E+03  0.34597487363E+03  0.00000000000E+00 0.  1.
          1    1    1    2  501    0  0.45319978328E+02  0.54473911251E+01 -0.12351750565E+03  0.13168199842E+03  0.00000000000E+00 0. -1.
<scales pt_clust_5="13000.00000" pt_clust_6="13000.00000" pt_clust_7="13000.00000" pt_clust_8="13000.00000" pt_clust_9="48.84258" pt_clust_10="13000.00000"></scales>
<clustering>
<clus scale="   48.843">  1  9  2 -1</clus>
<clus scale="   77.728">  5  6 -1 -1</clus>
<clus scale="   89.224">  2  5  1 -1</clus>
<clus scale="   91.395">  7  8 -1 -1</clus>
<clus scale="   57.098">  7 10 -1 -1</clus>
<clus scale="   48.843">  1  5  2 -1</clus>
</clustering>
</event>
<event>
10    4  0.2565852E-005  0.1726033E+03  0.7546771E-02  0.1193354E+00
         21   -1    0    0  503  502  0.00000000000E+00  0.00000000000E+00  0.32111349094E+02  0.32111349094E+02  0.00000000000E+00 0.  1.
          2   -1    0    0  502    0 -0.00000000000E+00 -0.00000000000E+00 -0.96764808161E+03  0.96764808161E+03  0.00000000000E+00 0. -1.
         24    2    1    2    0    0  0.68176684201E+02  0.64733245464E+02 -0.23544924960E+03  0.26677879567E+03  0.83042900625E+02 0.  0.
         23    2    1    2    0    0  0.66006570766E+01 -0.23039307507E+02 -0.20173438015E+03  0.22298993753E+03  0.91942230469E+02 0.  0.
        -13    1    3    3    0    0  0.23966106966E+02 -0.30428048368E+01 -0.81360844873E+01  0.25491740136E+02  0.00000000000E+00 0.  1.
         14    1    3    3    0    0  0.44210577235E+02  0.67776050301E+02 -0.22731316511E+03  0.24128705553E+03  0.00000000000E+00 0. -1.
        -13    1    4    4    0    0 -0.22366752120E+02 -0.68818035061E+01 -0.55887822791E+01  0.24059619849E+02  0.00000000000E+00 0.  1.
         13    1    4    4    0    0  0.28967409197E+02 -0.16157504001E+02 -0.19614559787E+03  0.19893031768E+03  0.00000000000E+00 0. -1.
         21    1    1    2  503  501 -0.47195161722E+02  0.50151397071E+01 -0.14691666905E+03  0.15439249515E+03  0.00000000000E+00 0.  1.
          1    1    1    2  501    0 -0.27582179556E+02 -0.46709077664E+02 -0.35143643372E+03  0.35559820235E+03  0.00000000000E+00 0. -1.
<scales pt_clust_5="13000.00000" pt_clust_6="13000.00000" pt_clust_7="13000.00000" pt_clust_8="13000.00000" pt_clust_9="47.46090" pt_clust_10="13000.00000"></scales>
<clustering>
<clus scale="   47.461">  1  9  2 -1</clus>
<clus scale="   83.043">  5  6 -1 -1</clus>
<clus scale="   91.942">  7  8 -1 -1</clus>
<clus scale="   55.778">  7 10 -1 -1</clus>
<clus scale="  115.008">  2  5  1 -1</clus>
<clus scale="   47.461">  1  5  2 -1</clus>
</clustering>
</event>
<event>
10    4  0.2565852E-005  0.2119454E+03  0.7546771E-02  0.1180668E+00
         21   -1    0    0  503  502  0.00000000000E+00  0.00000000000E+00  0.54970776900E+02  0.54970776900E+02  0.00000000000E+00 0.  1.
          2   -1    0    0  502    0 -0.00000000000E+00 -0.00000000000E+00 -0.12391422257E+04  0.12391422257E+04  0.00000000000E+00 0. -1.
         24    2    1    2    0    0  0.16077212460E+02 -0.10610175480E+02 -0.97868106288E+03  0.98214639969E+03  0.80149079880E+02 0.  0.
         23    2    1    2    0    0  0.83974158759E+02  0.13123524537E+02 -0.80906344787E+02  0.14888780111E+03  0.91639808258E+02 0.  0.
        -11    1    3    3    0    0  0.32922461622E+02  0.73043450206E+00 -0.16724022173E+03  0.17045149978E+03  0.00000000000E+00 0.  1.
         12    1    3    3    0    0 -0.16845249162E+02 -0.11340609982E+02 -0.81144084115E+03  0.81169489992E+03  0.00000000000E+00 0. -1.
        -11    1    4    4    0    0  0.24839305176E+02 -0.60608063407E+01  0.18557768706E+02  0.31592961786E+02  0.00000000000E+00 0.  1.
         11    1    4    4    0    0  0.59134853583E+02  0.19184330878E+02 -0.99464113492E+02  0.11729483933E+03  0.00000000000E+00 0. -1.
         21    1    1    2  503  501 -0.20344121435E+02 -0.78618994456E+01 -0.11594430397E+02  0.24700679263E+02  0.00000000000E+00 0.  1.
          1    1    1    2  501    0 -0.79707249785E+02  0.53485503889E+01 -0.11298961071E+03  0.13837812250E+03  0.00000000000E+00 0. -1.
<scales pt_clust_5="13000.00000" pt_clust_6="13000.00000" pt_clust_7="13000.00000" pt_clust_8="13000.00000" pt_clust_9="21.81038" pt_clust_10="13000.00000"></scales>
<clustering>
<clus scale="   21.810">  1  9  2 -1</clus>
<clus scale="   80.149">  5  6 -1 -1</clus>
<clus scale="   82.329">  2  5  1 -1</clus>
<clus scale="   91.640">  7  8 -1 -1</clus>
<clus scale="   76.424">  7 10 -1 -1</clus>
<clus scale="   21.810">  1  5  2 -1</clus>
</clustering>
</event>
<event>
10    4  0.2565852E-005  0.3808288E+03  0.7546771E-02  0.1056498E+00
         21   -1    0    0  503  502  0.00000000000E+00  0.00000000000E+00  0.36923015860E+03  0.36923015860E+03  0.00000000000E+00 0. -1.
          2   -1    0    0  502    0 -0.00000000000E+00 -0.00000000000E+00 -0.49248040233E+03  0.49248040233E+03  0.00000000000E+00 0. -1.
         24    2    1    2    0    0 -0.21211362732E+03 -0.24048943147E+03 -0.27395598550E+03  0.42949967043E+03  0.81183294867E+02 0.  0.
         23    2    1    2    0    0  0.99193487398E+01  0.18116941523E+02  0.47988383546E+02  0.10449493992E+03  0.90496908582E+02 0.  0.
        -13    1    3    3    0    0 -0.56862659088E+02 -0.10310489557E+03 -0.62224016361E+02  0.13317586005E+03  0.00000000000E+00 0.  1.
         14    1    3    3    0    0 -0.15525096823E+03 -0.13738453590E+03 -0.21173196914E+03  0.29632381038E+03  0.00000000000E+00 0. -1.
        -11    1    4    4    0    0 -0.15876154160E+01  0.44459784873E+02 -0.44335883962E+01  0.44708496953E+02  0.00000000000E+00 0.  1.
         11    1    4    4    0    0  0.11506964156E+02 -0.26342843350E+02  0.52421971942E+02  0.59786442962E+02  0.00000000000E+00 0. -1.
         21    1    1    2  503  501  0.43714866816E+02  0.10299194395E+02  0.26797128604E+02  0.52298652825E+02  0.00000000000E+00 0.  1.
          1    1    1    2  501    0  0.15847941176E+03  0.21207329555E+03  0.75920229618E+02  0.27541729776E+03  0.00000000000E+00 0. -1.
<scales pt_clust_5="13000.00000" pt_clust_6="13000.00000" pt_clust_7="13000.00000" pt_clust_8="13000.00000" pt_clust_9="44.91172" pt_clust_10="13000.00000"></scales>
<clustering>
<clus scale="   44.912">  1  9  2 -1</clus>
<clus scale="   81.183">  5  6 -1 -1</clus>
<clus scale="   90.497">  7  8 -1 -1</clus>
<clus scale="  283.503">  7 10 -1 -1</clus>
<clus scale="  322.470">  2  5  1 -1</clus>
<clus scale="   44.912">  1  5  2 -1</clus>
</clustering>
</event>
<event>
10    4  0.2565852E-005  0.2143866E+03  0.7546771E-02  0.1163409E+00
         -1   -1    0    0    0  501 -0.00000000000E+00  0.00000000000E+00  0.26602323622E+03  0.26602323622E+03  0.00000000000E+00 0.  1.
         21   -1    0    0  503  502  0.00000000000E+00 -0.00000000000E+00 -0.25627063939E+03  0.25627063939E+03  0.00000000000E+00 0.  1.
         24    2    1    2    0    0 -0.59380357370E+02  0.65439685745E+02  0.18753498198E+03  0.22228056704E+03  0.80192903094E+02 0.  0.
         23    2    1    2    0    0  0.78701911522E+02 -0.27402057153E+02 -0.42627845707E+02  0.13026876631E+03  0.90597762841E+02 0.  0.
        -11    1    3    3    0    0 -0.33390929824E+02  0.53734483005E+02  0.18273387573E+03  0.19337532986E+03  0.00000000000E+00 0.  1.
         12    1    3    3    0    0 -0.25989427547E+02  0.11705202740E+02  0.48011062477E+01  0.28905237183E+02  0.00000000000E+00 0. -1.
        -13    1    4    4    0    0  0.19136385639E+02 -0.32564290907E+02 -0.57371812957E+02  0.68688858045E+02  0.00000000000E+00 0. -1.
         13    1    4    4    0    0  0.59565525883E+02  0.51622337537E+01  0.14743967251E+02  0.61579908260E+02  0.00000000000E+00 0.  1.
         21    1    1    2  503  501  0.34115123906E+02 -0.31086446163E+01 -0.24930939798E+02  0.42368114303E+02  0.00000000000E+00 0. -1.
         -2    1    1    2    0  502 -0.53436678057E+02 -0.34928983976E+02 -0.11022359964E+03  0.12737642797E+03  0.00000000000E+00 0.  1.
<scales pt_clust_5="13000.00000" pt_clust_6="13000.00000" pt_clust_7="13000.00000" pt_clust_8="13000.00000" pt_clust_9="34.25646" pt_clust_10="13000.00000"></scales>
<clustering>
<clus scale="   34.256">  2  9  1 -1</clus>
<clus scale="   80.193">  5  6 -1 -1</clus>
<clus scale="   90.598">  7  8 -1 -1</clus>
<clus scale="   50.793">  7 10 -1 -1</clus>
<clus scale="  117.892">  1  5  2 -1</clus>
<clus scale="   34.256">  2  5  1 -1</clus>
</clustering>
</event>
<event>
10    4  0.2565852E-005  0.2122567E+03  0.7546771E-02  0.1170788E+00
         21   -1    0    0  501  502  0.00000000000E+00  0.00000000000E+00  0.27275525827E+02  0.27275525827E+02  0.00000000000E+00 0. -1.
          2   -1    0    0  503    0 -0.00000000000E+00 -0.00000000000E+00 -0.12368119518E+04  0.12368119518E+04  0.00000000000E+00 0. -1.
         24    2    1    2    0    0  0.18943182701E+02  0.61618970975E+02 -0.47577511590E+03  0.48679979720E+03  0.80351352788E+02 0.  0.
         23    2    1    2    0    0  0.45900201976E+02  0.18821082589E+02 -0.22749960237E+03  0.25076418981E+03  0.93088925868E+02 0.  0.
        -11    1    3    3    0    0 -0.15988583947E+02  0.34291044790E+02 -0.79429546158E+02  0.87980471540E+02  0.00000000000E+00 0.  1.
         12    1    3    3    0    0  0.34931766649E+02  0.27327926185E+02 -0.39634556974E+03  0.39881932566E+03  0.00000000000E+00 0. -1.
        -11    1    4    4    0    0  0.17427372651E+02  0.34068516362E+02 -0.21110075575E+03  0.21454115271E+03  0.00000000000E+00 0.  1.
         11    1    4    4    0    0  0.28472829325E+02 -0.15247433774E+02 -0.16398846618E+02  0.36223037101E+02  0.00000000000E+00 0. -1.
         21    1    1    2  503  502 -0.31972340676E+02  0.44462685853E+01 -0.39712726641E+02  0.51177148513E+02  0.00000000000E+00 0. -1.
          1    1    1    2  501    0 -0.32871044002E+02 -0.84886322149E+02 -0.46654898107E+03  0.47534634211E+03  0.00000000000E+00 0. -1.
<scales pt_clust_5="13000.00000" pt_clust_6="13000.00000" pt_clust_7="13000.00000" pt_clust_8="13000.00000" pt_clust_9="32.28002" pt_clust_10="13000.00000"></scales>
<clustering>
<clus scale="   32.280">  1  9  2 -1</clus>
<clus scale="   80.351">  5  6 -1 -1</clus>
<clus scale="   93.089">  7  8 -1 -1</clus>
<clus scale="   92.761">  7 10 -1 -1</clus>
<clus scale="  102.521">  2  5  1 -1</clus>
<clus scale="   32.280">  1  5  2 -1</clus>
</clustering>
</event>
<event>
10    4  0.2565852E-005  0.3861229E+03  0.7546771E-02  0.1079842E+00
         21   -1    0    0  503  502  0.00000000000E+00  0.00000000000E+00  0.28562347034E+03  0.28562347034E+03  0.00000000000E+00 0. -1.
         -1   -1    0    0    0  501 -0.00000000000E+00 -0.00000000000E+00 -0.52561226301E+03  0.52561226301E+03  0.00000000000E+00 0.  1.
         24    2    1    2    0    0  0.92159895280E+02  0.13593701963E+03  0.97066601605E+02  0.20633148774E+03  0.78603041167E+02 0.  0.
         23    2    1    2    0    0  0.70504889884E+02  0.87621396010E+02 -0.10008680848E+03  0.17810738969E+03  0.95165248366E+02 0.  0.
        -13    1    3    3    0    0  0.68841036581E+02  0.11713107282E+03  0.39585614280E+02  0.14151253441E+03  0.00000000000E+00 0.  1.
         14    1    3    3    0    0  0.23318858699E+02  0.18805946811E+02  0.57480987325E+02  0.64818953326E+02  0.00000000000E+00 0. -1.
        -13    1    4    4    0    0  0.83348331787E+02  0.71343804512E+02 -0.10979267503E+03  0.15521376983E+03  0.00000000000E+00 0. -1.
         13    1    4    4    0    0 -0.12843441904E+02  0.16277591498E+02  0.97058665562E+01  0.22893619865E+02  0.00000000000E+00 0.  1.
         21    1    1    2  503  501 -0.10263977986E+03  0.58183274785E+01 -0.18628778954E+02  0.10447874783E+03  0.00000000000E+00 0. -1.
         -2    1    1    2    0  502 -0.60025005308E+02 -0.22937674312E+03 -0.21833980685E+03  0.32231810809E+03  0.00000000000E+00 0.  1.
<scales pt_clust_5="13000.00000" pt_clust_6="13000.00000" pt_clust_7="13000.00000" pt_clust_8="13000.00000" pt_clust_9="102.80456" pt_clust_10="13000.00000"></scales>
<clustering>
<clus scale="   78.603">  5  6 -1 -1</clus>
<clus scale="   95.165">  7  8 -1 -1</clus>
<clus scale="  102.805">  1  9  2 -1</clus>
<clus scale="  162.615">  2  5  1 -1</clus>
<clus scale="  149.244">  7 10 -1 -1</clus>
<clus scale="  102.805">  1  5  2 -1</clus>
</clustering>
</event>
<event>
10    4  0.2565852E-005  0.3357540E+03  0.7546771E-02  0.1106129E+00
         21   -1    0    0  501  502  0.00000000000E+00  0.00000000000E+00  0.73313285431E+03  0.73313285431E+03  0.00000000000E+00 0. -1.
          2   -1    0    0  503    0 -0.00000000000E+00 -0.00000000000E+00 -0.53454871906E+03  0.53454871906E+03  0.00000000000E+00 0. -1.
         24    2    1    2    0    0 -0.87856730559E+02  0.44204042357E+02 -0.33430986439E+03  0.35520134861E+03  0.68790334796E+02 0.  0.
         23    2    1    2    0    0 -0.40258013131E+02  0.15075139807E+02  0.78747007082E+02  0.12659727526E+03  0.89318595590E+02 0.  0.
        -11    1    3    3    0    0 -0.81464964979E+02  0.71916403754E+01 -0.21086475133E+03  0.22616852912E+03  0.00000000000E+00 0.  1.
         12    1    3    3    0    0 -0.63917655799E+01  0.37012401982E+02 -0.12344511306E+03  0.12903281949E+03  0.00000000000E+00 0. -1.
        -13    1    4    4    0    0 -0.42436231190E+02 -0.26423159730E+02  0.18280007902E+02  0.53227584734E+02  0.00000000000E+00 0. -1.
         13    1    4    4    0    0  0.21782180596E+01  0.41498299537E+02  0.60466999180E+02  0.73369690528E+02  0.00000000000E+00 0.  1.
         21    1    1    2  503  502 -0.85166959169E+02  0.25881972571E+02  0.53504273395E+03  0.54239654736E+03  0.00000000000E+00 0. -1.
          1    1    1    2  501    0  0.21328170286E+03 -0.85161154735E+02 -0.80895741395E+02  0.24348640214E+03  0.00000000000E+00 0. -1.
<scales pt_clust_5="13000.00000" pt_clust_6="13000.00000" pt_clust_7="13000.00000" pt_clust_8="13000.00000" pt_clust_9="89.01285" pt_clust_10="13000.00000"></scales>
<clustering>
<clus scale="   68.790">  5  6 -1 -1</clus>
<clus scale="   89.013">  1  9  2 -1</clus>
<clus scale="   89.319">  7  8 -1 -1</clus>
<clus scale="  123.914">  2  5  1 -1</clus>
<clus scale="  120.186">  7 10 -1 -1</clus>
<clus scale="   89.013">  1  5  2 -1</clus>
</clustering>
</event>
<event>
10    4  0.2586803E-005  0.5420174E+03  0.7546771E-02  0.1039474E+00
         21   -1    0    0  503  502  0.00000000000E+00  0.00000000000E+00  0.19767513067E+04  0.19767513067E+04  0.00000000000E+00 0.  1.
          2   -1    0    0  502    0 -0.00000000000E+00 -0.00000000000E+00 -0.29747395674E+03  0.29747395674E+03  0.00000000000E+00 0. -1.
         24    2    1    2    0    0 -0.45330917671E+02 -0.16229866662E+03  0.86189725977E+02  0.20151471603E+03  0.69164749913E+02 0.  0.
         23    2    1    2    0    0 -0.62436834515E+02 -0.85008345424E+02  0.78084268765E+02  0.15819773110E+03  0.88343601924E+02 0.  0.
        -11    1    3    3    0    0 -0.34085779196E+02 -0.22640357267E+02  0.10405340686E+02  0.42221999424E+02  0.00000000000E+00 0.  1.
         12    1    3    3    0    0 -0.11245138475E+02 -0.13965830936E+03  0.75784385291E+02  0.15929271661E+03  0.00000000000E+00 0. -1.
        -11    1    4    4    0    0 -0.67490681101E+02 -0.28469741770E+02  0.69152623116E+02  0.10073531414E+03  0.00000000000E+00 0. -1.
         11    1    4    4    0    0  0.50538465857E+01 -0.56538603654E+02  0.89316456487E+01  0.57462416956E+02  0.00000000000E+00 0.  1.
         21    1    1    2  503  501  0.33241901837E+03  0.40708210680E+03  0.15499506491E+04  0.16366322923E+04  0.00000000000E+00 0.  1.
          1    1    1    2  501    0 -0.22465126619E+03 -0.15977509476E+03 -0.34947293853E+02  0.27788052406E+03  0.00000000000E+00 0. -1.
<scales pt_clust_5="13000.00000" pt_clust_6="13000.00000" pt_clust_7="13000.00000" pt_clust_8="13000.00000" pt_clust_9="497.81311" pt_clust_10="13000.00000"></scales>
<clustering>
<clus scale="   69.165">  5  6 -1 -1</clus>
<clus scale="   88.344">  7  8 -1 -1</clus>
<clus scale="  182.152">  2  5  1 -1</clus>
<clus scale="  367.678">  7 10 -1 -1</clus>
<clus scale="  497.813">  1  9  2 -1</clus>
<clus scale="  497.813">  1  5  2 -1</clus>
</clustering>
</event>
<event>
10    4  0.2565852E-005  0.3769493E+03  0.7546771E-02  0.1076718E+00
         -1   -1    0    0    0  501 -0.00000000000E+00  0.00000000000E+00  0.14122981237E+04  0.14122981237E+04  0.00000000000E+00 0.  1.
         21   -1    0    0  501  502  0.00000000000E+00 -0.00000000000E+00 -0.15878866719E+03  0.15878866719E+03  0.00000000000E+00 0.  1.
         24    2    1    2    0    0  0.15883671385E+03  0.59844363200E+02  0.44165924066E+03  0.47985929550E+03  0.79947539956E+02 0.  0.
         23    2    1    2    0    0 -0.27035573925E+03  0.43801257383E+01  0.71881263347E+03  0.77343420573E+03  0.91637641417E+02 0.  0.
        -11    1    3    3    0    0  0.13049768304E+02  0.32682905474E+02  0.50673975268E+02  0.61695385018E+02  0.00000000000E+00 0.  1.
         12    1    3    3    0    0  0.14578694554E+03  0.27161457726E+02  0.39098526539E+03  0.41816391048E+03  0.00000000000E+00 0. -1.
        -13    1    4    4    0    0 -0.12303199630E+03  0.16785495238E+02  0.44803626609E+03  0.46492485489E+03  0.00000000000E+00 0.  1.
         13    1    4    4    0    0 -0.14732374295E+03 -0.12405369500E+02  0.27077636738E+03  0.30850935085E+03  0.00000000000E+00 0. -1.
         21    1    1    2  503  502  0.21270086752E+02 -0.37334729185E+02 -0.96785749426E+02  0.10589513627E+03  0.00000000000E+00 0.  1.
         -2    1    1    2    0  503  0.90248938650E+02 -0.26889759753E+02  0.18982333186E+03  0.21189815343E+03  0.00000000000E+00 0.  1.
<scales pt_clust_5="13000.00000" pt_clust_6="13000.00000" pt_clust_7="13000.00000" pt_clust_8="13000.00000" pt_clust_9="42.96858" pt_clust_10="13000.00000"></scales>
<clustering>
<clus scale="   42.969">  2  9  1 -1</clus>
<clus scale="   79.948">  5  6 -1 -1</clus>
<clus scale="   91.638">  7  8 -1 -1</clus>
<clus scale="  100.297">  7 10 -1 -1</clus>
<clus scale="  190.176">  1  5  2 -1</clus>
<clus scale="   42.969">  2  5  1 -1</clus>
</clustering>
</event>
<event>
10    4  0.2565852E-005  0.2457360E+03  0.7546771E-02  0.1135523E+00
         21   -1    0    0  503  502  0.00000000000E+00  0.00000000000E+00  0.11178574444E+03  0.11178574444E+03  0.00000000000E+00 0.  1.
         -1   -1    0    0    0  501 -0.00000000000E+00 -0.00000000000E+00 -0.47973821950E+03  0.47973821950E+03  0.00000000000E+00 0.  1.
         24    2    1    2    0    0  0.10739372593E+03  0.66114405508E+02 -0.15286700298E+03  0.21180058191E+03  0.74743821911E+02 0.  0.
         23    2    1    2    0    0 -0.12200800154E+03 -0.80961686865E+02 -0.68190469793E+02  0.18558076398E+03  0.91375776931E+02 0.  0.
        -11    1    3    3    0    0  0.97374520065E+02  0.50482589476E+02 -0.15818124482E+03  0.19248790926E+03  0.00000000000E+00 0.  1.
         12    1    3    3    0    0  0.10019205865E+02  0.15631816032E+02  0.53142418423E+01  0.19312672652E+02  0.00000000000E+00 0. -1.
        -13    1    4    4    0    0 -0.32370971282E+02  0.32676393424E+01 -0.52248418911E+02  0.61550422642E+02  0.00000000000E+00 0. -1.
         13    1    4    4    0    0 -0.89637030253E+02 -0.84229326207E+02 -0.15942050881E+02  0.12403034134E+03  0.00000000000E+00 0.  1.
         21    1    1    2  503  501 -0.13742019476E+02  0.51359824712E+02 -0.16304145769E+02  0.55610249621E+02  0.00000000000E+00 0.  1.
         -2    1    1    2    0  502  0.28356295082E+02 -0.36512543355E+02 -0.13059085652E+03  0.13853236842E+03  0.00000000000E+00 0.  1.
<scales pt_clust_5="13000.00000" pt_clust_6="13000.00000" pt_clust_7="13000.00000" pt_clust_8="13000.00000" pt_clust_9="53.16648" pt_clust_10="13000.00000"></scales>
<clustering>
<clus scale="   53.166">  1  9  2 -1</clus>
<clus scale="   74.744">  5  6 -1 -1</clus>
<clus scale="   91.376">  7  8 -1 -1</clus>
<clus scale="   44.128">  7 10 -1 -1</clus>
<clus scale="  151.685">  2  5  1 -1</clus>
<clus scale="   53.166">  1  5  2 -1</clus>
</clustering>
</event>
<event>
10    4  0.2565852E-005  0.1320807E+03  0.7546771E-02  0.1238702E+00
          2   -1    0    0  502    0 -0.00000000000E+00  0.00000000000E+00  0.13817047489E+04  0.13817047489E+04  0.00000000000E+00 0. -1.
         21   -1    0    0  503  502  0.00000000000E+00 -0.00000000000E+00 -0.52725690415E+02  0.52725690415E+02  0.00000000000E+00 0. -1.
         24    2    1    2    0    0  0.24458575033E+02 -0.39832035886E+02  0.95681012705E+03  0.96153501601E+03  0.82940670460E+02 0.  0.
         23    2    1    2    0    0 -0.27753920928E+02  0.35260214097E+02  0.21368098292E+03  0.23326190905E+03  0.82085278392E+02 0.  0.
        -13    1    3    3    0    0  0.38926874727E+02  0.26219685208E+00  0.21461241079E+03  0.21811432137E+03  0.00000000000E+00 0.  1.
         14    1    3    3    0    0 -0.14468299694E+02 -0.40094232738E+02  0.74219771627E+03  0.74342069464E+03  0.00000000000E+00 0. -1.
        -13    1    4    4    0    0 -0.48247364417E+02  0.36425873978E+02  0.19912123170E+03  0.20809593312E+03  0.00000000000E+00 0. -1.
         13    1    4    4    0    0  0.20493443489E+02 -0.11656598812E+01  0.14559751220E+02  0.25165975932E+02  0.00000000000E+00 0.  1.
         21    1    1    2  503  501 -0.64624601778E+01 -0.55420278104E+02 -0.13343463108E+02  0.57369143486E+02  0.00000000000E+00 0. -1.
          1    1    1    2  501    0  0.97578060726E+01  0.59992099893E+02  0.17183141158E+03  0.18226437072E+03  0.00000000000E+00 0. -1.
<scales pt_clust_5="13000.00000" pt_clust_6="13000.00000" pt_clust_7="13000.00000" pt_clust_8="13000.00000" pt_clust_9="55.79579" pt_clust_10="13000.00000"></scales>
<clustering>
<clus scale="   55.796">  2  9  1 -1</clus>
<clus scale="   82.085">  7  8 -1 -1</clus>
<clus scale="   44.047">  7 10 -1 -1</clus>
<clus scale="   82.941">  5  6 -1 -1</clus>
<clus scale="   98.382">  1  5  2 -1</clus>
<clus scale="   55.796">  2  5  1 -1</clus>
</clustering>
</event>
<event>
10    4  0.2565852E-005  0.5419444E+03  0.7546771E-02  0.1015241E+00
          2   -1    0    0  503    0 -0.00000000000E+00  0.00000000000E+00  0.34250005167E+04  0.34250005167E+04  0.00000000000E+00 0. -1.
         21   -1    0    0  501  502  0.00000000000E+00 -0.00000000000E+00 -0.23950375120E+03  0.23950375120E+03  0.00000000000E+00 0.  1.
         24    2    1    2    0    0 -0.13368113723E+03 -0.30662770656E+03  0.33456451373E+03  0.48010175519E+03  0.81688950329E+02 0.  0.
         23    2    1    2    0    0 -0.77786923533E+02 -0.85682347393E+01  0.46238408033E+03  0.47774617076E+03  0.91203869526E+02 0.  0.
        -11    1    3    3    0    0 -0.91870281856E+02 -0.25091766539E+03  0.22044439454E+03  0.34640374504E+03  0.00000000000E+00 0.  1.
         12    1    3    3    0    0 -0.41810855378E+02 -0.55710041174E+02  0.11412011919E+03  0.13369801015E+03  0.00000000000E+00 0. -1.
        -13    1    4    4    0    0 -0.89943983151E+02  0.17190808251E+02  0.34333168062E+03  0.35533376832E+03  0.00000000000E+00 0. -1.
         13    1    4    4    0    0  0.12157059618E+02 -0.25759042990E+02  0.11905239971E+03  0.12241240244E+03  0.00000000000E+00 0.  1.
         21    1    1    2  503  502 -0.78580440454E+01 -0.43358085451E+02 -0.13826853745E+03  0.14512016014E+03  0.00000000000E+00 0.  1.
          1    1    1    2  501    0  0.21932610481E+03  0.35855402675E+03  0.25268167089E+04  0.25615361818E+04  0.00000000000E+00 0. -1.
<scales pt_clust_5="13000.00000" pt_clust_6="13000.00000" pt_clust_7="13000.00000" pt_clust_8="13000.00000" pt_clust_9="44.06441" pt_clust_10="13000.00000"></scales>
<clustering>
<clus scale="   44.064">  2  9  1 -1</clus>
<clus scale="   81.689">  5  6 -1 -1</clus>
<clus scale="   91.204">  7  8 -1 -1</clus>
<clus scale="  375.479">  1  5  2 -1</clus>
<clus scale="  121.273">  7 10 -1 -1</clus>
<clus scale="   44.064">  2  5  1 -1</clus>
</clustering>
</event>
<event>
10    4  0.2565852E-005  0.1434002E+03  0.7546771E-02  0.1227323E+00
         21   -1    0    0  503  502  0.00000000000E+00  0.00000000000E+00  0.35674791817E+02  0.35674791817E+02  0.00000000000E+00 0. -1.
          2   -1    0    0  502    0 -0.00000000000E+00 -0.00000000000E+00 -0.60846898993E+03  0.60846898993E+03  0.00000000000E+00 0. -1.
         24    2    1    2    0    0  0.34207060517E+02 -0.39998707762E+02 -0.22799336095E+03  0.24825738029E+03  0.82950193583E+02 0.  0.
         23    2    1    2    0    0  0.23262890076E+02  0.65713399615E+02 -0.24675301353E+03  0.27082144067E+03  0.87165303293E+02 0.  0.
        -13    1    3    3    0    0 -0.27280893317E+02 -0.18128499806E+02 -0.68496201765E+02  0.75925090067E+02  0.00000000000E+00 0.  1.
         14    1    3    3    0    0  0.61487953835E+02 -0.21870207956E+02 -0.15949715919E+03  0.17233229022E+03  0.00000000000E+00 0. -1.
        -13    1    4    4    0    0  0.19699097290E+02 -0.16186192701E+02 -0.94766759606E+02  0.98136568079E+02  0.00000000000E+00 0.  1.
         13    1    4    4    0    0  0.35637927858E+01  0.81899592316E+02 -0.15198625392E+03  0.17268487259E+03  0.00000000000E+00 0. -1.
         21    1    1    2  503  501 -0.28072646369E+02 -0.12498583409E+02 -0.11671836229E+02  0.32871261345E+02  0.00000000000E+00 0. -1.
          1    1    1    2  501    0 -0.29397304224E+02 -0.13216108443E+02 -0.86375987404E+02  0.92193699448E+02  0.00000000000E+00 0. -1.
<scales pt_clust_5="13000.00000" pt_clust_6="13000.00000" pt_clust_7="13000.00000" pt_clust_8="13000.00000" pt_clust_9="30.72927" pt_clust_10="13000.00000"></scales>
<clustering>
<clus scale="   30.729">  1  9  2 -1</clus>
<clus scale="   82.950">  5  6 -1 -1</clus>
<clus scale="   87.165">  7  8 -1 -1</clus>
<clus scale="   35.796">  7 10 -1 -1</clus>
<clus scale="   97.123">  2  5  1 -1</clus>
<clus scale="   30.729">  1  5  2 -1</clus>
</clustering>
</event>
<event>
10    4  0.2565852E-005  0.1972769E+03  0.7546771E-02  0.1182444E+00
         -3   -1    0    0    0  501 -0.00000000000E+00  0.00000000000E+00  0.18353919625E+03  0.18353919625E+03  0.00000000000E+00 0.  1.
         21   -1    0    0  503  502  0.00000000000E+00 -0.00000000000E+00 -0.20277847093E+03  0.20277847093E+03  0.00000000000E+00 0. -1.
         24    2    1    2    0    0  0.38503565417E+02 -0.52125136788E+02  0.52578717765E+02  0.11555683955E+03  0.79933141870E+02 0.  0.
         23    2    1    2    0    0  0.50516780148E+02 -0.21809843582E+02 -0.18035819754E+02  0.10732188105E+03  0.90360837782E+02 0.  0.
        -11    1    3    3    0    0  0.53992479108E+02 -0.15406433999E+02  0.96305705915E+01  0.56967481063E+02  0.00000000000E+00 0.  1.
         12    1    3    3    0    0 -0.15488913691E+02 -0.36718702789E+02  0.42948147174E+02  0.58589358483E+02  0.00000000000E+00 0. -1.
        -13    1    4    4    0    0  0.37927157928E+02  0.27384864031E+02  0.12038139099E+02  0.48304418840E+02  0.00000000000E+00 0.  1.
         13    1    4    4    0    0  0.12589622220E+02 -0.49194707613E+02 -0.30073958854E+02  0.59017462211E+02  0.00000000000E+00 0. -1.
         21    1    1    2  503  501 -0.25339476519E+02  0.21297364673E+02 -0.71634807567E+02  0.78912688888E+02  0.00000000000E+00 0. -1.
         -4    1    1    2    0  502 -0.63680869046E+02  0.52637615696E+02  0.17852634877E+02  0.84526257700E+02  0.00000000000E+00 0.  1.
<scales pt_clust_5="13000.00000" pt_clust_6="13000.00000" pt_clust_7="13000.00000" pt_clust_8="13000.00000" pt_clust_9="33.10086" pt_clust_10="13000.00000"></scales>
<clustering>
<clus scale="   33.101">  2  9  1 -1</clus>
<clus scale="   79.933">  5  6 -1 -1</clus>
<clus scale="   90.361">  7  8 -1 -1</clus>
<clus scale="   91.274">  7 10 -1 -1</clus>
<clus scale="   98.109">  1  5  2 -1</clus>
<clus scale="   33.101">  2  5  1 -1</clus>
</clustering>
</event>
<event>
10    4  0.2565852E-005  0.6002420E+03  0.7546771E-02  0.1042352E+00
         21   -1    0    0  501  502  0.00000000000E+00  0.00000000000E+00  0.65057450987E+03  0.65057450987E+03  0.00000000000E+00 0. -1.
         -3   -1    0    0    0  501 -0.00000000000E+00 -0.00000000000E+00 -0.27975526349E+03  0.27975526349E+03  0.00000000000E+00 0.  1.
         24    2    1    2    0    0 -0.75058345813E+02 -0.75415595737E+02  0.11551336857E+03  0.17556014523E+03  0.78465017160E+02 0.  0.
         23    2    1    2    0    0  0.93842752814E+02  0.22398547354E+03 -0.77115720402E+02  0.27472898033E+03  0.10272888439E+03 0.  0.
        -13    1    3    3    0    0 -0.62422495765E+02 -0.27441881807E+02  0.25536589143E+02  0.72813063661E+02  0.00000000000E+00 0.  1.
         14    1    3    3    0    0 -0.12635850048E+02 -0.47973713931E+02  0.89976779428E+02  0.10274708157E+03  0.00000000000E+00 0. -1.
        -11    1    4    4    0    0  0.33065073170E+02  0.18853319022E+03 -0.70796907042E+02  0.20408396538E+03  0.00000000000E+00 0. -1.
         11    1    4    4    0    0  0.60777679644E+02  0.35452283322E+02 -0.63188133595E+01  0.70645014955E+02  0.00000000000E+00 0.  1.
         21    1    1    2  503  502 -0.23427390860E+02  0.97067016280E+02  0.81765522401E+02  0.12905986574E+03  0.00000000000E+00 0. -1.
         -4    1    1    2    0  503  0.46429838596E+01 -0.24563689408E+03  0.25065607580E+03  0.35098078205E+03  0.00000000000E+00 0.  1.
<scales pt_clust_5="13000.00000" pt_clust_6="13000.00000" pt_clust_7="13000.00000" pt_clust_8="13000.00000" pt_clust_9="99.85414" pt_clust_10="13000.00000"></scales>
<clustering>
<clus scale="   78.465">  5  6 -1 -1</clus>
<clus scale="   99.854">  1  9  2 -1</clus>
<clus scale="  102.729">  7  8 -1 -1</clus>
<clus scale="  123.365">  2  5  1 -1</clus>
<clus scale="  203.063">  7 10 -1 -1</clus>
<clus scale="   99.854">  1  5  2 -1</clus>
</clustering>
</event>
<event>
10    4  0.2565852E-005  0.2166456E+03  0.7546771E-02  0.1149402E+00
         21   -1    0    0  503  502  0.00000000000E+00  0.00000000000E+00  0.28844341338E+03  0.28844341338E+03  0.00000000000E+00 0.  1.
          2   -1    0    0  502    0 -0.00000000000E+00 -0.00000000000E+00 -0.92772709357E+03  0.92772709357E+03  0.00000000000E+00 0. -1.
         24    2    1    2    0    0 -0.11792268560E+03 -0.35866907314E+02 -0.10078297233E+03  0.17860639303E+03  0.80937267680E+02 0.  0.
         23    2    1    2    0    0  0.63698014703E+02 -0.11790465873E+02 -0.31619313683E+03  0.33511616013E+03  0.90157023261E+02 0.  0.
        -11    1    3    3    0    0 -0.99592039283E+02 -0.24740054596E+02 -0.33437122416E+02  0.10792907739E+03  0.00000000000E+00 0.  1.
         12    1    3    3    0    0 -0.18330646320E+02 -0.11126852718E+02 -0.67345849916E+02  0.70677315645E+02  0.00000000000E+00 0. -1.
        -11    1    4    4    0    0 -0.69705892411E+01  0.24864959695E+02 -0.39451983157E+02  0.47152033996E+02  0.00000000000E+00 0.  1.
         11    1    4    4    0    0  0.70668603944E+02 -0.36655425568E+02 -0.27674115367E+03  0.28796412614E+03  0.00000000000E+00 0. -1.
         21    1    1    2  503  501 -0.24161914094E+01 -0.41459692886E+02  0.23217489220E+03  0.23585996837E+03  0.00000000000E+00 0.  1.
          1    1    1    2  501    0  0.56640862310E+02  0.89117066073E+02 -0.45448246323E+03  0.46658798541E+03  0.00000000000E+00 0. -1.
<scales pt_clust_5="13000.00000" pt_clust_6="13000.00000" pt_clust_7="13000.00000" pt_clust_8="13000.00000" pt_clust_9="41.53004" pt_clust_10="13000.00000"></scales>
<clustering>
<clus scale="   41.530">  1  9  2 -1</clus>
<clus scale="   80.937">  5  6 -1 -1</clus>
<clus scale="   90.157">  7  8 -1 -1</clus>
<clus scale="  101.583">  7 10 -1 -1</clus>
<clus scale="  158.614">  2  5  1 -1</clus>
<clus scale="   41.530">  1  5  2 -1</clus>
</clustering>
</event>
<event>
10    4  0.2565852E-005  0.4881307E+03  0.7546771E-02  0.1068567E+00
         21   -1    0    0  503  502  0.00000000000E+00  0.00000000000E+00  0.34694724314E+03  0.34694724314E+03  0.00000000000E+00 0.  1.
          2   -1    0    0  502    0 -0.00000000000E+00 -0.00000000000E+00 -0.17398637102E+04  0.17398637102E+04  0.00000000000E+00 0. -1.
         24    2    1    2    0    0  0.15378997261E+02 -0.11255563297E+03 -0.20027586894E+03  0.24398908140E+03  0.80715327485E+02 0.  0.
         23    2    1    2    0    0 -0.15230705918E+03 -0.13551304143E+03 -0.33981288662E+03  0.40685580040E+03  0.92182534857E+02 0.  0.
        -13    1    3    3    0    0  0.46751296467E+02 -0.49838332406E+02 -0.11267141355E+03  0.13177401311E+03  0.00000000000E+00 0.  1.
         14    1    3    3    0    0 -0.31372299206E+02 -0.62717300567E+02 -0.87604455392E+02  0.11221506829E+03  0.00000000000E+00 0. -1.
        -11    1    4    4    0    0 -0.86596046405E+02 -0.11081158600E+03 -0.28493277874E+03  0.31774954169E+03  0.00000000000E+00 0.  1.
         11    1    4    4    0    0 -0.65711012770E+02 -0.24701455437E+02 -0.54880107874E+02  0.89106258704E+02  0.00000000000E+00 0. -1.
         21    1    1    2  503  501  0.36190526730E+02  0.12380658815E+03  0.27135883361E+03  0.30045539115E+03  0.00000000000E+00 0.  1.
          1    1    1    2  501    0  0.10073753518E+03  0.12426208626E+03 -0.11241865451E+04  0.11355106804E+04  0.00000000000E+00 0. -1.
<scales pt_clust_5="13000.00000" pt_clust_6="13000.00000" pt_clust_7="13000.00000" pt_clust_8="13000.00000" pt_clust_9="128.98770" pt_clust_10="13000.00000"></scales>
<clustering>
<clus scale="   80.715">  5  6 -1 -1</clus>
<clus scale="   92.183">  7  8 -1 -1</clus>
<clus scale="  128.988">  1  9  2 -1</clus>
<clus scale="  109.419">  2  5  1 -1</clus>
<clus scale="  150.204">  7 10 -1 -1</clus>
<clus scale="  128.988">  1  5  2 -1</clus>
</clustering>
</event>
<event>
10    4  0.2565852E-005  0.3434998E+03  0.7546771E-02  0.1091675E+00
         -3   -1    0    0    0  501 -0.00000000000E+00  0.00000000000E+00  0.10481094063E+04  0.10481094063E+04  0.00000000000E+00 0.  1.
         21   -1    0    0  501  502  0.00000000000E+00 -0.00000000000E+00 -0.92459499854E+02  0.92459499854E+02  0.00000000000E+00 0.  1.
         24    2    1    2    0    0 -0.90617515950E+02  0.12690333431E+03  0.43047872486E+03  0.46467976769E+03  0.79368529568E+02 0.  0.
         23    2    1    2    0    0 -0.12038021365E+02  0.86769084634E+02  0.17219135548E+03  0.21355851853E+03  0.91014229258E+02 0.  0.
        -13    1    3    3    0    0 -0.88281566053E+02  0.13668127232E+03  0.41863688077E+03  0.44914612661E+03  0.00000000000E+00 0.  1.
         14    1    3    3    0    0 -0.23359498964E+01 -0.97779380123E+01  0.11841844092E+02  0.15533641080E+02  0.00000000000E+00 0. -1.
        -11    1    4    4    0    0 -0.43308389307E+02  0.12281858085E+02  0.52522203843E+02  0.69174001756E+02  0.00000000000E+00 0. -1.
         11    1    4    4    0    0  0.31270367942E+02  0.74487226549E+02  0.11966915163E+03  0.14438451677E+03  0.00000000000E+00 0.  1.
         21    1    1    2  503  502  0.27497838838E+01 -0.32243943173E+02 -0.18308190007E+02  0.37180949478E+02  0.00000000000E+00 0.  1.
         -4    1    1    2    0  503  0.99905753431E+02 -0.18142847577E+03  0.37128801615E+03  0.42514967050E+03  0.00000000000E+00 0.  1.
<scales pt_clust_5="13000.00000" pt_clust_6="13000.00000" pt_clust_7="13000.00000" pt_clust_8="13000.00000" pt_clust_9="32.36098" pt_clust_10="13000.00000"></scales>
<clustering>
<clus scale="   32.361">  2  9  1 -1</clus>
<clus scale="   79.369">  5  6 -1 -1</clus>
<clus scale="   91.014">  7  8 -1 -1</clus>
<clus scale="  168.506">  1  5  2 -1</clus>
<clus scale="  116.162">  7 10 -1 -1</clus>
<clus scale="   32.361">  2  5  1 -1</clus>
</clustering>
</event>
<event>
10    4  0.2565852E-005  0.3511239E+03  0.7546771E-02  0.1069733E+00
          2   -1    0    0  502    0 -0.00000000000E+00  0.00000000000E+00  0.13976727199E+04  0.13976727199E+04  0.00000000000E+00 0. -1.
         21   -1    0    0  503  502  0.00000000000E+00 -0.00000000000E+00 -0.85211629911E+02  0.85211629911E+02  0.00000000000E+00 0. -1.
         24    2    1    2    0    0  0.16100663911E+03  0.20454275809E+03  0.59424144127E+03  0.65372070990E+03  0.80417649223E+02 0.  0.
         23    2    1    2    0    0 -0.80829969708E+02 -0.50238943704E+01  0.27495668581E+03  0.30043183301E+03  0.89996576023E+02 0.  0.
        -13    1    3    3    0    0  0.23415429048E+02  0.90958326076E+01  0.12057265531E+03  0.12316160805E+03  0.00000000000E+00 0.  1.
         14    1    3    3    0    0  0.13759121006E+03  0.19544692549E+03  0.47366878596E+03  0.53055910186E+03  0.00000000000E+00 0. -1.
        -13    1    4    4    0    0  0.18100223953E+02 -0.11970958861E+02  0.56216301378E+02  0.60259393490E+02  0.00000000000E+00 0.  1.
         13    1    4    4    0    0 -0.98930193661E+02  0.69470644904E+01  0.21874038443E+03  0.24017243952E+03  0.00000000000E+00 0. -1.
         21    1    1    2  503  501  0.29535154506E+02  0.17589430248E+02  0.17978698877E+02  0.38793646663E+02  0.00000000000E+00 0. -1.
          1    1    1    2  501    0 -0.10971182391E+03 -0.21710829397E+03  0.42528426399E+03  0.48993816020E+03  0.00000000000E+00 0. -1.
<scales pt_clust_5="13000.00000" pt_clust_6="13000.00000" pt_clust_7="13000.00000" pt_clust_8="13000.00000" pt_clust_9="34.37606" pt_clust_10="13000.00000"></scales>
<clustering>
<clus scale="   34.376">  2  9  1 -1</clus>
<clus scale="   80.418">  5  6 -1 -1</clus>
<clus scale="   89.997">  7  8 -1 -1</clus>
<clus scale="  230.851">  7 10 -1 -1</clus>
<clus scale="  284.704">  1  5  2 -1</clus>
<clus scale="   34.376">  2  5  1 -1</clus>
</clustering>
</event>
<event>
10    4  0.2565852E-005  0.4265764E+03  0.7546771E-02  0.1037066E+00
          2   -1    0    0  502    0 -0.00000000000E+00  0.00000000000E+00  0.25167617817E+04  0.25167617817E+04  0.00000000000E+00 0. -1.
         21   -1    0    0  503  502  0.00000000000E+00 -0.00000000000E+00 -0.18847538066E+03  0.18847538066E+03  0.00000000000E+00 0. -1.
         24    2    1    2    0    0  0.36648447734E+03  0.85023699197E+02  0.36476621918E+03  0.53023915315E+03  0.80989279064E+02 0.  0.
         23    2    1    2    0    0 -0.33832045325E+03 -0.15472249918E+03  0.17814475179E+04  0.18222247527E+04  0.92455446410E+02 0.  0.
        -13    1    3    3    0    0  0.35045180994E+02  0.11506958656E+01  0.77226105099E+01  0.35904422081E+02  0.00000000000E+00 0.  1.
         14    1    3    3    0    0  0.33143929634E+03  0.83873003331E+02  0.35704360867E+03  0.49433473107E+03  0.00000000000E+00 0. -1.
        -11    1    4    4    0    0 -0.11103629820E+03 -0.16713019559E+02  0.40223994102E+03  0.41761867139E+03  0.00000000000E+00 0.  1.
         11    1    4    4    0    0 -0.22728415505E+03 -0.13800947962E+03  0.13792075769E+04  0.14046060814E+04  0.00000000000E+00 0. -1.
         21    1    1    2  503  501  0.10079129541E+02  0.42172086870E+02 -0.77582684045E+02  0.88877143445E+02  0.00000000000E+00 0. -1.
          1    1    1    2  501    0 -0.38243153625E+02  0.27526713114E+02  0.25965534801E+03  0.26389611305E+03  0.00000000000E+00 0. -1.
<scales pt_clust_5="13000.00000" pt_clust_6="13000.00000" pt_clust_7="13000.00000" pt_clust_8="13000.00000" pt_clust_9="43.35982" pt_clust_10="13000.00000"></scales>
<clustering>
<clus scale="   43.360">  2  9  1 -1</clus>
<clus scale="   80.989">  5  6 -1 -1</clus>
<clus scale="   92.455">  7  8 -1 -1</clus>
<clus scale="   47.458">  7 10 -1 -1</clus>
<clus scale="  400.882">  1  5  2 -1</clus>
<clus scale="   43.360">  2  5  1 -1</clus>
</clustering>
</event>
<event>
10    4  0.2565852E-005  0.4322535E+03  0.7546771E-02  0.1071378E+00
          2   -1    0    0  503    0 -0.00000000000E+00  0.00000000000E+00  0.18839366869E+03  0.18839366869E+03  0.00000000000E+00 0. -1.
         21   -1    0    0  501  502  0.00000000000E+00 -0.00000000000E+00 -0.58484870104E+03  0.58484870104E+03  0.00000000000E+00 0. -1.
         24    2    1    2    0    0 -0.10092722188E+03 -0.67481091955E+02 -0.46595411815E+02  0.15225866629E+03  0.79193226801E+02 0.  0.
         23    2    1    2    0    0  0.61608239834E+01 -0.61597826046E+02  0.49963589149E+02  0.12534323008E+03  0.96862361944E+02 0.  0.
        -13    1    3    3    0    0 -0.35379684988E+02 -0.58446160467E+02 -0.52018274777E+02  0.85869532978E+02  0.00000000000E+00 0.  1.
         14    1    3    3    0    0 -0.65547536890E+02 -0.90349314883E+01  0.54228629619E+01  0.66389133313E+02  0.00000000000E+00 0. -1.
        -13    1    4    4    0    0 -0.25791120749E+02 -0.34719189532E+01  0.52894227879E+02  0.58949431495E+02  0.00000000000E+00 0.  1.
         13    1    4    4    0    0  0.31951944732E+02 -0.58125907093E+02 -0.29306387306E+01  0.66393798588E+02  0.00000000000E+00 0. -1.
         21    1    1    2  503  502  0.39612286795E+02 -0.62043058517E+02 -0.38236854983E+02  0.82948968977E+02  0.00000000000E+00 0. -1.
          1    1    1    2  501    0  0.55154111100E+02  0.19112197652E+03 -0.36158635470E+03  0.41269150438E+03  0.00000000000E+00 0. -1.
<scales pt_clust_5="13000.00000" pt_clust_6="13000.00000" pt_clust_7="13000.00000" pt_clust_8="13000.00000" pt_clust_9="73.61032" pt_clust_10="13000.00000"></scales>
<clustering>
<clus scale="   73.610">  2  9  1 -1</clus>
<clus scale="   79.193">  5  6 -1 -1</clus>
<clus scale="   96.862">  7  8 -1 -1</clus>
<clus scale="  145.870">  1  5  2 -1</clus>
<clus scale="  138.483">  7 10 -1 -1</clus>
<clus scale="   73.610">  2  5  1 -1</clus>
</clustering>
</event>
<event>
10    4  0.2565852E-005  0.1998777E+03  0.7546771E-02  0.1161644E+00
         21   -1    0    0  501  502  0.00000000000E+00  0.00000000000E+00  0.35585394131E+03  0.35585394131E+03  0.00000000000E+00 0. -1.
          2   -1    0    0  503    0 -0.00000000000E+00 -0.00000000000E+00 -0.44598578303E+03  0.44598578303E+03  0.00000000000E+00 0. -1.
         24    2    1    2    0    0 -0.12347561567E+03  0.78254256485E+02 -0.43767372380E+02  0.17254581016E+03  0.80538918514E+02 0.  0.
         23    2    1    2    0    0  0.33013396064E+02 -0.11356008702E+02 -0.20739317315E+03  0.22986287770E+03  0.92769450923E+02 0.  0.
        -13    1    3    3    0    0 -0.12181382897E+02 -0.15916733644E+02  0.91106759092E+00  0.20063861626E+02  0.00000000000E+00 0.  1.
         14    1    3    3    0    0 -0.11129423278E+03  0.94170990129E+02 -0.44678439970E+02  0.15248194854E+03  0.00000000000E+00 0. -1.
        -11    1    4    4    0    0  0.60165725903E+02 -0.41406868835E+01 -0.84590759610E+02  0.10388771088E+03  0.00000000000E+00 0.  1.
         11    1    4    4    0    0 -0.27152329839E+02 -0.72153218183E+01 -0.12280241354E+03  0.12597516682E+03  0.00000000000E+00 0. -1.
         21    1    1    2  503  502  0.32773380383E+02  0.19525716381E+01  0.26213735178E+03  0.26418534819E+03  0.00000000000E+00 0. -1.
          1    1    1    2  501    0  0.57688839227E+02 -0.68850819421E+02 -0.10110864797E+03  0.13524568829E+03  0.00000000000E+00 0. -1.
<scales pt_clust_5="13000.00000" pt_clust_6="13000.00000" pt_clust_7="13000.00000" pt_clust_8="13000.00000" pt_clust_9="32.83149" pt_clust_10="13000.00000"></scales>
<clustering>
<clus scale="   32.831">  1  9  2 -1</clus>
<clus scale="   80.539">  5  6 -1 -1</clus>
<clus scale="   92.769">  7  8 -1 -1</clus>
<clus scale="   93.551">  7 10 -1 -1</clus>
<clus scale="  151.548">  2  5  1 -1</clus>
<clus scale="   32.831">  1  5  2 -1</clus>
</clustering>
</event>
<event>
10    4  0.2565852E-005  0.2596706E+03  0.7546771E-02  0.1137182E+00
         21   -1    0    0  503  502  0.00000000000E+00  0.00000000000E+00  0.15736646097E+03  0.15736646097E+03  0.00000000000E+00 0. -1.
          2   -1    0    0  502    0 -0.00000000000E+00 -0.00000000000E+00 -0.31072198171E+03  0.31072198171E+03  0.00000000000E+00 0. -1.
         24    2    1    2    0    0  0.25281788808E+02 -0.86382996095E+02 -0.79336519969E+02  0.14491206432E+03  0.81265196279E+02 0.  0.
         23    2    1    2    0    0  0.64697247400E+02 -0.32229373941E+02 -0.42394626151E+02  0.12393602847E+03  0.91314667284E+02 0.  0.
        -11    1    3    3    0    0 -0.26613609041E+02 -0.93908940972E+01 -0.15091653729E+02  0.32003610583E+02  0.00000000000E+00 0.  1.
         12    1    3    3    0    0  0.51895397848E+02 -0.76992101998E+02 -0.64244866240E+02  0.11290845374E+03  0.00000000000E+00 0. -1.
        -13    1    4    4    0    0  0.23653017740E+02 -0.56540975744E+02 -0.18293393474E+01  0.61316340960E+02  0.00000000000E+00 0. -1.
         13    1    4    4    0    0  0.41044229661E+02  0.24311601803E+02 -0.40565286804E+02  0.62619687512E+02  0.00000000000E+00 0.  1.
         21    1    1    2  503  501 -0.38137601350E+02 -0.20815901741E+02  0.10376496828E+02  0.44670461027E+02  0.00000000000E+00 0. -1.
          1    1    1    2  501    0 -0.51841434859E+02  0.13942827178E+03 -0.42000871442E+02  0.15456988886E+03  0.00000000000E+00 0. -1.
<scales pt_clust_5="13000.00000" pt_clust_6="13000.00000" pt_clust_7="13000.00000" pt_clust_8="13000.00000" pt_clust_9="43.44857" pt_clust_10="13000.00000"></scales>
<clustering>
<clus scale="   43.449">  1  9  2 -1</clus>
<clus scale="   81.265">  5  6 -1 -1</clus>
<clus scale="   91.315">  7  8 -1 -1</clus>
<clus scale="  123.478">  2  5  1 -1</clus>
<clus scale="  100.888">  7 10 -1 -1</clus>
<clus scale="   43.449">  1  5  2 -1</clus>
</clustering>
</event>
<event>
10    4  0.2565852E-005  0.5349451E+03  0.7546771E-02  0.1034071E+00
          2   -1    0    0  502    0 -0.00000000000E+00  0.00000000000E+00  0.11723884872E+04  0.11723884872E+04  0.00000000000E+00 0. -1.
         21   -1    0    0  503  502  0.00000000000E+00 -0.00000000000E+00 -0.19359106675E+03  0.19359106675E+03  0.00000000000E+00 0. -1.
         24    2    1    2    0    0  0.15645406733E+03 -0.54440484933E+02  0.21070657036E+03  0.28182933646E+03  0.87114146444E+02 0.  0.
         23    2    1    2    0    0  0.10653967161E+03 -0.55031675999E+01  0.26586624340E+03  0.30028586282E+03  0.90031958494E+02 0.  0.
        -13    1    3    3    0    0 -0.17783396334E+01 -0.25687522979E+02  0.37312204085E+02  0.45334444988E+02  0.00000000000E+00 0.  1.
         14    1    3    3    0    0  0.15823240697E+03 -0.28752961954E+02  0.17339436627E+03  0.23649489147E+03  0.00000000000E+00 0. -1.
        -11    1    4    4    0    0  0.52981670314E+02  0.76078576817E+01  0.37492887400E+02  0.65350237133E+02  0.00000000000E+00 0. -1.
         11    1    4    4    0    0  0.53558001296E+02 -0.13111025282E+02  0.22837335600E+03  0.23493562569E+03  0.00000000000E+00 0.  1.
         21    1    1    2  503  501  0.16368566089E+03 -0.25771408838E+02  0.11930217892E+03  0.20418171071E+03  0.00000000000E+00 0. -1.
          1    1    1    2  501    0 -0.42667939983E+03  0.85715061371E+02  0.38292242773E+03  0.57968264390E+03  0.00000000000E+00 0. -1.
<scales pt_clust_5="13000.00000" pt_clust_6="13000.00000" pt_clust_7="13000.00000" pt_clust_8="13000.00000" pt_clust_9="165.70203" pt_clust_10="13000.00000"></scales>
<clustering>
<clus scale="   87.114">  5  6 -1 -1</clus>
<clus scale="   90.032">  7  8 -1 -1</clus>
<clus scale="  165.702">  2  9  1 -1</clus>
<clus scale="  221.948">  1  5  2 -1</clus>
<clus scale="  232.196">  7 10 -1 -1</clus>
<clus scale="  165.702">  2  5  1 -1</clus>
</clustering>
</event>
<event>
10    4  0.2565852E-005  0.1882832E+03  0.7546771E-02  0.1177761E+00
         21   -1    0    0  501  502  0.00000000000E+00  0.00000000000E+00  0.45944190623E+02  0.45944190623E+02  0.00000000000E+00 0. -1.
          2   -1    0    0  503    0 -0.00000000000E+00 -0.00000000000E+00 -0.12631774867E+04  0.12631774867E+04  0.00000000000E+00 0. -1.
         24    2    1    2    0    0 -0.51120672174E+02 -0.55812495960E+02 -0.50184558657E+03  0.51423154547E+03  0.82805384890E+02 0.  0.
         23    2    1    2    0    0  0.11281089191E+03  0.34493314780E+02 -0.33787611256E+03  0.36857717641E+03  0.88163379234E+02 0.  0.
        -11    1    3    3    0    0  0.20010643679E+02 -0.27514226471E+02 -0.19729548850E+03  0.20020731330E+03  0.00000000000E+00 0.  1.
         12    1    3    3    0    0 -0.71131315853E+02 -0.28298269489E+02 -0.30455009808E+03  0.31402423217E+03  0.00000000000E+00 0. -1.
        -11    1    4    4    0    0  0.57814150327E+02  0.43131900075E+02 -0.27632568978E+03  0.28558487987E+03  0.00000000000E+00 0.  1.
         11    1    4    4    0    0  0.54996741579E+02 -0.86385852949E+01 -0.61550422781E+02  0.82992296538E+02  0.00000000000E+00 0. -1.
         21    1    1    2  503  502 -0.76993964603E+02 -0.69689620999E+02 -0.22925591577E+03  0.25168033053E+03  0.00000000000E+00 0.  1.
          1    1    1    2  501    0  0.15303744871E+02  0.91008802179E+02 -0.14825568117E+03  0.17463262490E+03  0.00000000000E+00 0. -1.
<scales pt_clust_5="13000.00000" pt_clust_6="13000.00000" pt_clust_7="13000.00000" pt_clust_8="13000.00000" pt_clust_9="103.84948" pt_clust_10="13000.00000"></scales>
<clustering>
<clus scale="   82.805">  5  6 -1 -1</clus>
<clus scale="   88.163">  7  8 -1 -1</clus>
<clus scale="   92.287">  7 10 -1 -1</clus>
<clus scale="  103.849">  1  9  2 -1</clus>
<clus scale="  125.374">  2  5  1 -1</clus>
<clus scale="  103.849">  1  5  2 -1</clus>
</clustering>
</event>
<event>
10    4  0.2565852E-005  0.4915086E+03  0.7546771E-02  0.1054149E+00
         21   -1    0    0  503  502  0.00000000000E+00  0.00000000000E+00  0.36055456578E+03  0.36055456578E+03  0.00000000000E+00 0. -1.
          2   -1    0    0  502    0 -0.00000000000E+00 -0.00000000000E+00 -0.95787517937E+03  0.95787517937E+03  0.00000000000E+00 0. -1.
         24    2    1    2    0    0 -0.10935310235E+03  0.83431718419E+02 -0.63001626874E+03  0.65050994258E+03  0.85578816811E+02 0.  0.
         23    2    1    2    0    0  0.36116904699E+02  0.13751424093E+03  0.84620525866E+02  0.18866385535E+03  0.90657705977E+02 0.  0.
        -13    1    3    3    0    0 -0.37104047592E+02  0.43160422274E+02 -0.10896811820E+03  0.12293731404E+03  0.00000000000E+00 0.  1.
         14    1    3    3    0    0 -0.72249054757E+02  0.40271296145E+02 -0.52104815054E+03  0.52757262854E+03  0.00000000000E+00 0. -1.
        -11    1    4    4    0    0 -0.22894327381E+02  0.25843408533E+02 -0.34327786343E+01  0.34696051072E+02  0.00000000000E+00 0.  1.
         11    1    4    4    0    0  0.59011232080E+02  0.11167083240E+03  0.88053304501E+02  0.15396780428E+03  0.00000000000E+00 0. -1.
         21    1    1    2  503  501  0.56127804666E+02  0.87884512761E+01  0.15780246985E+03  0.16771758054E+03  0.00000000000E+00 0. -1.
          1    1    1    2  501    0  0.17108392984E+02 -0.22973441063E+03 -0.20972734056E+03  0.31153836668E+03  0.00000000000E+00 0. -1.
<scales pt_clust_5="13000.00000" pt_clust_6="13000.00000" pt_clust_7="13000.00000" pt_clust_8="13000.00000" pt_clust_9="56.81168" pt_clust_10="13000.00000"></scales>
<clustering>
<clus scale="   56.812">  1  9  2 -1</clus>
<clus scale="   85.579">  5  6 -1 -1</clus>
<clus scale="   90.658">  7  8 -1 -1</clus>
<clus scale="  160.285">  2  5  1 -1</clus>
<clus scale="  169.602">  7 10 -1 -1</clus>
<clus scale="   56.812">  1  5  2 -1</clus>
</clustering>
</event>
<event>
10    4  0.2565852E-005  0.3818997E+03  0.7546771E-02  0.1072715E+00
         21   -1    0    0  501  502  0.00000000000E+00  0.00000000000E+00  0.25051763204E+03  0.25051763204E+03  0.00000000000E+00 0. -1.
          2   -1    0    0  503    0 -0.00000000000E+00 -0.00000000000E+00 -0.90615028263E+03  0.90615028263E+03  0.00000000000E+00 0. -1.
         24    2    1    2    0    0  0.38495553556E+02  0.18296296010E+03 -0.19294781680E+02  0.20482893237E+03  0.81395641920E+02 0.  0.
         23    2    1    2    0    0  0.94729586751E+02  0.55992161160E+02 -0.29579091281E+03  0.32873350748E+03  0.92003468005E+02 0.  0.
        -13    1    3    3    0    0  0.18680884776E+02  0.95569055841E+02 -0.50810138924E+02  0.10983665193E+03  0.00000000000E+00 0.  1.
         14    1    3    3    0    0  0.19814668780E+02  0.87393904259E+02  0.31515357243E+02  0.94992280437E+02  0.00000000000E+00 0. -1.
        -11    1    4    4    0    0  0.71906476204E+00 -0.20305962069E+02 -0.65141182180E+02  0.68236520760E+02  0.00000000000E+00 0.  1.
         11    1    4    4    0    0  0.94010521989E+02  0.76298123229E+02 -0.23064973063E+03  0.26049698672E+03  0.00000000000E+00 0. -1.
         21    1    1    2  503  502 -0.29593875477E+03 -0.18742650382E+03 -0.24535225037E+03  0.42767530636E+03  0.00000000000E+00 0. -1.
          1    1    1    2  501    0  0.16271361446E+03 -0.51528617440E+02 -0.95194705734E+02  0.19543016847E+03  0.00000000000E+00 0. -1.
<scales pt_clust_5="13000.00000" pt_clust_6="13000.00000" pt_clust_7="13000.00000" pt_clust_8="13000.00000" pt_clust_9="300.44385" pt_clust_10="13000.00000"></scales>
<clustering>
<clus scale="   81.396">  5  6 -1 -1</clus>
<clus scale="   92.003">  7  8 -1 -1</clus>
<clus scale="  170.678">  7 10 -1 -1</clus>
<clus scale="  203.918">  2  5  1 -1</clus>
<clus scale="  300.444">  1  9  2 -1</clus>
<clus scale="  300.444">  1  5  2 -1</clus>
</clustering>
</event>
<event>
10    4  0.2565852E-005  0.3224148E+03  0.7546771E-02  0.1107908E+00
          2   -1    0    0  503    0 -0.00000000000E+00  0.00000000000E+00  0.76762251078E+03  0.76762251078E+03  0.00000000000E+00 0. -1.
         21   -1    0    0  501  502  0.00000000000E+00 -0.00000000000E+00 -0.14483886972E+03  0.14483886972E+03  0.00000000000E+00 0.  1.
         24    2    1    2    0    0 -0.17247032580E+01  0.66880090553E+02 -0.63990570346E+02  0.13906246962E+03  0.10376731783E+03 0.  0.
         23    2    1    2    0    0  0.68313920408E+02  0.72906596136E+02  0.21023554092E+03  0.25477943537E+03  0.10359254096E+03 0.  0.
        -13    1    3    3    0    0  0.33821186296E+02  0.69574604191E+02 -0.68247746779E+02  0.10316129667E+03  0.00000000000E+00 0.  1.
         14    1    3    3    0    0 -0.35545889554E+02 -0.26945136375E+01  0.42571764324E+01  0.35901172949E+02  0.00000000000E+00 0. -1.
        -13    1    4    4    0    0  0.47039397748E+02 -0.63596915551E+01  0.13625224613E+03  0.14428383552E+03  0.00000000000E+00 0.  1.
         13    1    4    4    0    0  0.21274522660E+02  0.79266287691E+02  0.73983294786E+02  0.11049559985E+03  0.00000000000E+00 0. -1.
         21    1    1    2  503  502 -0.16658605605E+02  0.22362353711E+02  0.30114086487E+02  0.41041956692E+02  0.00000000000E+00 0.  1.
          1    1    1    2  501    0 -0.49930611545E+02 -0.16214904040E+03  0.44642458401E+03  0.47757751881E+03  0.00000000000E+00 0. -1.
<scales pt_clust_5="13000.00000" pt_clust_6="13000.00000" pt_clust_7="13000.00000" pt_clust_8="13000.00000" pt_clust_9="27.88521" pt_clust_10="13000.00000"></scales>
<clustering>
<clus scale="   27.885">  2  9  1 -1</clus>
<clus scale="  103.593">  7  8 -1 -1</clus>
<clus scale="  103.767">  5  6 -1 -1</clus>
<clus scale="  133.705">  1  5  2 -1</clus>
<clus scale="  121.664">  7 10 -1 -1</clus>
<clus scale="   27.885">  2  5  1 -1</clus>
</clustering>
</event>
<event>
10    4  0.2565852E-005  0.2498359E+03  0.7546771E-02  0.1145104E+00
          2   -1    0    0  503    0 -0.00000000000E+00  0.00000000000E+00  0.71651713529E+03  0.71651713529E+03  0.00000000000E+00 0. -1.
         21   -1    0    0  501  502  0.00000000000E+00 -0.00000000000E+00 -0.10101913350E+03  0.10101913350E+03  0.00000000000E+00 0.  1.
         24    2    1    2    0    0 -0.78367632556E+02 -0.35839193476E+02  0.70847326686E+02  0.13780817037E+03  0.80906208048E+02 0.  0.
         23    2    1    2    0    0 -0.11752104278E+02  0.14880433637E+02  0.79578364979E+02  0.12269281225E+03  0.91439984382E+02 0.  0.
        -13    1    3    3    0    0 -0.41549499970E+02 -0.48748252183E+02  0.89986895482E+01  0.64681755173E+02  0.00000000000E+00 0.  1.
         14    1    3    3    0    0 -0.36818132585E+02  0.12909058707E+02  0.61848637138E+02  0.73126415197E+02  0.00000000000E+00 0. -1.
        -13    1    4    4    0    0  0.80341646427E+01 -0.36969631685E+02  0.34346629106E+02  0.51097870792E+02  0.00000000000E+00 0. -1.
         13    1    4    4    0    0 -0.19786268921E+02  0.51850065323E+02  0.45231735872E+02  0.71594941454E+02  0.00000000000E+00 0.  1.
         21    1    1    2  503  502  0.16163255196E+01  0.20610978681E+02 -0.39594291033E+02  0.44666909819E+02  0.00000000000E+00 0.  1.
          1    1    1    2  501    0  0.88503411314E+02  0.34778115730E+00  0.50466660116E+03  0.51236837635E+03  0.00000000000E+00 0. -1.
<scales pt_clust_5="13000.00000" pt_clust_6="13000.00000" pt_clust_7="13000.00000" pt_clust_8="13000.00000" pt_clust_9="20.67426" pt_clust_10="13000.00000"></scales>
<clustering>
<clus scale="   20.674">  2  9  1 -1</clus>
<clus scale="   80.906">  5  6 -1 -1</clus>
<clus scale="   91.440">  7  8 -1 -1</clus>
<clus scale="   88.625">  7 10 -1 -1</clus>
<clus scale="  114.569">  1  5  2 -1</clus>
<clus scale="   20.674">  2  5  1 -1</clus>
</clustering>
</event>
<event>
10    4  0.2565852E-005  0.1772506E+03  0.7546771E-02  0.1184854E+00
         21   -1    0    0  501  502  0.00000000000E+00  0.00000000000E+00  0.24730397675E+03  0.24730397675E+03  0.00000000000E+00 0. -1.
          2   -1    0    0  503    0 -0.00000000000E+00 -0.00000000000E+00 -0.45522915754E+03  0.45522915754E+03  0.00000000000E+00 0. -1.
         24    2    1    2    0    0 -0.54672404005E+01 -0.95939349744E+02 -0.25452670535E+03  0.28386896082E+03  0.81015391366E+02 0.  0.
         23    2    1    2    0    0  0.33811185761E+02  0.56173637789E+02 -0.82008779607E+02  0.13650403154E+03  0.87230939625E+02 0.  0.
        -11    1    3    3    0    0  0.37027875027E+02 -0.53749514380E+02 -0.11958700168E+03  0.13623921901E+03  0.00000000000E+00 0.  1.
         12    1    3    3    0    0 -0.42495115428E+02 -0.42189835365E+02 -0.13493970366E+03  0.14762974182E+03  0.00000000000E+00 0. -1.
        -11    1    4    4    0    0  0.11213200648E+02  0.60480823697E+02 -0.92607833516E+02  0.11117498249E+03  0.00000000000E+00 0.  1.
         11    1    4    4    0    0  0.22597985114E+02 -0.43071859086E+01  0.10599053909E+02  0.25329049043E+02  0.00000000000E+00 0. -1.
         21    1    1    2  503  502  0.24314307936E+02 -0.13966417529E+02  0.18564552971E+03  0.18775118932E+03  0.00000000000E+00 0. -1.
          1    1    1    2  501    0 -0.52658253297E+02  0.53732129485E+02 -0.57035225550E+02  0.94408952609E+02  0.00000000000E+00 0. -1.
<scales pt_clust_5="13000.00000" pt_clust_6="13000.00000" pt_clust_7="13000.00000" pt_clust_8="13000.00000" pt_clust_9="28.04009" pt_clust_10="13000.00000"></scales>
<clustering>
<clus scale="   28.040">  1  9  2 -1</clus>
<clus scale="   81.015">  5  6 -1 -1</clus>
<clus scale="   87.231">  7  8 -1 -1</clus>
<clus scale="   66.951">  7 10 -1 -1</clus>
<clus scale="  128.172">  2  5  1 -1</clus>
<clus scale="   28.040">  1  5  2 -1</clus>
</clustering>
</event>
<event>
10    4  0.2565852E-005  0.1957850E+03  0.7546771E-02  0.1174727E+00
         21   -1    0    0  503  502  0.00000000000E+00  0.00000000000E+00  0.49767664284E+02  0.49767664284E+02  0.00000000000E+00 0. -1.
          2   -1    0    0  502    0 -0.00000000000E+00 -0.00000000000E+00 -0.11361898553E+04  0.11361898553E+04  0.00000000000E+00 0. -1.
         24    2    1    2    0    0 -0.18828682986E+02 -0.56923815334E+02 -0.44600852678E+03  0.46061017533E+03  0.98200242330E+02 0.  0.
         23    2    1    2    0    0 -0.55265212056E+01  0.10792123457E+03 -0.41475232547E+03  0.43902718631E+03  0.95120153104E+02 0.  0.
        -11    1    3    3    0    0  0.40535265250E+02 -0.23511659053E+02 -0.19003441943E+03  0.19572681576E+03  0.00000000000E+00 0.  1.
         12    1    3    3    0    0 -0.59363948236E+02 -0.33412156281E+02 -0.25597410735E+03  0.26488335956E+03  0.00000000000E+00 0. -1.
        -11    1    4    4    0    0 -0.42688653272E+02  0.69341212123E+02 -0.17018598131E+03  0.18866317354E+03  0.00000000000E+00 0. -1.
         11    1    4    4    0    0  0.37162132067E+02  0.38580022449E+02 -0.24456634416E+03  0.25036401277E+03  0.00000000000E+00 0.  1.
         21    1    1    2  503  501 -0.20087441017E+02 -0.18893869440E+02  0.20350812514E+02  0.34273009191E+02  0.00000000000E+00 0. -1.
          1    1    1    2  501    0  0.44442645209E+02 -0.32103549798E+02 -0.24601215129E+03  0.25204714877E+03  0.00000000000E+00 0. -1.
<scales pt_clust_5="13000.00000" pt_clust_6="13000.00000" pt_clust_7="13000.00000" pt_clust_8="13000.00000" pt_clust_9="27.57687" pt_clust_10="13000.00000"></scales>
<clustering>
<clus scale="   27.577">  1  9  2 -1</clus>
<clus scale="   95.120">  7  8 -1 -1</clus>
<clus scale="   54.246">  7 10 -1 -1</clus>
<clus scale="   98.200">  5  6 -1 -1</clus>
<clus scale="  119.431">  2  5  1 -1</clus>
<clus scale="   27.577">  1  5  2 -1</clus>
</clustering>
</event>
<event>
10    4  0.2565852E-005  0.2306904E+03  0.7546771E-02  0.1161272E+00
         -3   -1    0    0    0  501 -0.00000000000E+00  0.00000000000E+00  0.37842766439E+03  0.37842766439E+03  0.00000000000E+00 0.  1.
         21   -1    0    0  503  502  0.00000000000E+00 -0.00000000000E+00 -0.11615353153E+03  0.11615353153E+03  0.00000000000E+00 0.  1.
         24    2    1    2    0    0 -0.22203252703E+02 -0.66045830054E+02  0.10713202255E+03  0.15258073019E+03  0.83358100211E+02 0.  0.
         23    2    1    2    0    0 -0.76007315575E+02 -0.34333212684E+02  0.80909444899E+02  0.14812254613E+03  0.91858961912E+02 0.  0.
        -13    1    3    3    0    0 -0.33644662347E+02 -0.70062381769E+02  0.11450359672E+03  0.13838993571E+03  0.00000000000E+00 0.  1.
         14    1    3    3    0    0  0.11441409644E+02  0.40165517152E+01 -0.73715741670E+01  0.14190794481E+02  0.00000000000E+00 0. -1.
        -11    1    4    4    0    0 -0.95098210616E+02 -0.14425300358E+02  0.67085330164E+02  0.11726977648E+03  0.00000000000E+00 0.  1.
         11    1    4    4    0    0  0.19090895041E+02 -0.19907912327E+02  0.13824114736E+02  0.30852769647E+02  0.00000000000E+00 0. -1.
         21    1    1    2  503  501  0.11319109745E+02  0.52140061717E+02 -0.19944266929E+02  0.56960355200E+02  0.00000000000E+00 0.  1.
         -4    1    1    2    0  502  0.86891458534E+02  0.48238981022E+02  0.94176932346E+02  0.13691756440E+03  0.00000000000E+00 0.  1.
<scales pt_clust_5="13000.00000" pt_clust_6="13000.00000" pt_clust_7="13000.00000" pt_clust_8="13000.00000" pt_clust_9="53.35455" pt_clust_10="13000.00000"></scales>
<clustering>
<clus scale="   53.355">  2  9  1 -1</clus>
<clus scale="   83.358">  5  6 -1 -1</clus>
<clus scale="   91.859">  7  8 -1 -1</clus>
<clus scale="   99.428">  1  5  2 -1</clus>
<clus scale="   86.521">  7 10 -1 -1</clus>
<clus scale="   53.355">  2  5  1 -1</clus>
</clustering>
</event>
<event>
10    4  0.2565852E-005  0.4179748E+03  0.7546771E-02  0.1067161E+00
         21   -1    0    0  503  502  0.00000000000E+00  0.00000000000E+00  0.81862631105E+03  0.81862631105E+03  0.00000000000E+00 0. -1.
          4   -1    0    0  502    0 -0.00000000000E+00 -0.00000000000E+00 -0.51460359226E+03  0.51460359226E+03  0.00000000000E+00 0. -1.
         24    2    1    2    0    0 -0.97776899069E+02  0.13306491630E+03 -0.43104572657E+03  0.46759876103E+03  0.74710032667E+02 0.  0.
         23    2    1    2    0    0 -0.58648406402E+01 -0.12664105695E+02 -0.15457975149E+02  0.93461740875E+02  0.91111865763E+02 0.  0.
        -13    1    3    3    0    0 -0.68088562674E+02  0.49621718351E+02 -0.28105013288E+03  0.29340679013E+03  0.00000000000E+00 0.  1.
         14    1    3    3    0    0 -0.29688336395E+02  0.83443197946E+02 -0.14999559369E+03  0.17419197091E+03  0.00000000000E+00 0. -1.
        -11    1    4    4    0    0  0.41419969000E+02 -0.89958921200E+01  0.31785198422E+01  0.42504622048E+02  0.00000000000E+00 0.  1.
         11    1    4    4    0    0 -0.47284809641E+02 -0.36682135753E+01 -0.18636494991E+02  0.50957118827E+02  0.00000000000E+00 0. -1.
         21    1    1    2  503  501 -0.15242885530E+02 -0.15007080479E+02  0.12283384289E+03  0.12468244056E+03  0.00000000000E+00 0.  1.
          3    1    1    2  501    0  0.11888462524E+03 -0.10539373012E+03  0.62769257763E+03  0.64748696085E+03  0.00000000000E+00 0. -1.
<scales pt_clust_5="13000.00000" pt_clust_6="13000.00000" pt_clust_7="13000.00000" pt_clust_8="13000.00000" pt_clust_9="21.39061" pt_clust_10="13000.00000"></scales>
<clustering>
<clus scale="   21.391">  1  9  2 -1</clus>
<clus scale="   74.710">  5  6 -1 -1</clus>
<clus scale="   91.112">  7  8 -1 -1</clus>
<clus scale="  158.757">  7 10 -1 -1</clus>
<clus scale="  181.168">  2  5  1 -1</clus>
<clus scale="   21.391">  1  5  2 -1</clus>
</clustering>
</event>
<event>
10    4  0.2565852E-005  0.2540986E+03  0.7546771E-02  0.1148422E+00
         21   -1    0    0  503  502  0.00000000000E+00  0.00000000000E+00  0.32316975440E+03  0.32316975440E+03  0.00000000000E+00 0. -1.
          4   -1    0    0  502    0 -0.00000000000E+00 -0.00000000000E+00 -0.11121234076E+03  0.11121234076E+03  0.00000000000E+00 0. -1.
         24    2    1    2    0    0  0.60360610120E+02 -0.76957001961E+01  0.77400757118E+02  0.12756483804E+03  0.81112783489E+02 0.  0.
         23    2    1    2    0    0  0.27654233913E+02  0.98892906717E+02  0.34228055511E+02  0.14324791108E+03  0.93828783390E+02 0.  0.
        -13    1    3    3    0    0  0.38938755536E+01 -0.34143559725E+02  0.10099482579E+02  0.35818214443E+02  0.00000000000E+00 0.  1.
         14    1    3    3    0    0  0.56466734566E+02  0.26447859529E+02  0.67301274540E+02  0.91746623594E+02  0.00000000000E+00 0. -1.
        -13    1    4    4    0    0 -0.30373125610E+02  0.10950616220E+02 -0.56057998258E+00  0.32291748247E+02  0.00000000000E+00 0. -1.
         13    1    4    4    0    0  0.58027359523E+02  0.87942290497E+02  0.34788635494E+02  0.11095616283E+03  0.00000000000E+00 0.  1.
         21    1    1    2  503  501 -0.77437273203E+01 -0.20150840312E+02  0.12193943433E+02  0.24793425228E+02  0.00000000000E+00 0.  1.
          3    1    1    2  501    0 -0.80271116713E+02 -0.71046366208E+02  0.88134657578E+02  0.13877592081E+03  0.00000000000E+00 0. -1.
<scales pt_clust_5="13000.00000" pt_clust_6="13000.00000" pt_clust_7="13000.00000" pt_clust_8="13000.00000" pt_clust_9="21.58754" pt_clust_10="13000.00000"></scales>
<clustering>
<clus scale="   21.588">  1  9  2 -1</clus>
<clus scale="   81.113">  5  6 -1 -1</clus>
<clus scale="   93.829">  7  8 -1 -1</clus>
<clus scale="  100.621">  2  5  1 -1</clus>
<clus scale="  104.244">  7 10 -1 -1</clus>
<clus scale="   21.588">  1  5  2 -1</clus>
</clustering>
</event>
<event>
10    4  0.2565852E-005  0.4534107E+03  0.7546771E-02  0.1087143E+00
         21   -1    0    0  501  502  0.00000000000E+00  0.00000000000E+00  0.65226372714E+03  0.65226372714E+03  0.00000000000E+00 0.  1.
          2   -1    0    0  503    0 -0.00000000000E+00 -0.00000000000E+00 -0.34222335664E+03  0.34222335664E+03  0.00000000000E+00 0. -1.
         24    2    1    2    0    0 -0.16619310143E+01  0.12847421026E+02 -0.22061522690E+03  0.23554752364E+03  0.81509136373E+02 0.  0.
         23    2    1    2    0    0  0.20902771033E+03 -0.12446501113E+02  0.15317686001E+03  0.27434936405E+03  0.89201592116E+02 0.  0.
        -13    1    3    3    0    0  0.58874368641E+01  0.46517063720E+02 -0.14590213620E+03  0.15325120710E+03  0.00000000000E+00 0.  1.
         14    1    3    3    0    0 -0.75493678784E+01 -0.33669642694E+02 -0.74713090703E+02  0.82296316545E+02  0.00000000000E+00 0. -1.
        -13    1    4    4    0    0  0.15095650667E+03 -0.49027924042E+02  0.10091379253E+03  0.18808295448E+03  0.00000000000E+00 0. -1.
         13    1    4    4    0    0  0.58071203656E+02  0.36581422929E+02  0.52263067486E+02  0.86266409573E+02  0.00000000000E+00 0.  1.
         21    1    1    2  503  502  0.17067738695E+02  0.31718396264E+02  0.18109570989E+03  0.18464295412E+03  0.00000000000E+00 0.  1.
          1    1    1    2  501    0 -0.22443351801E+03 -0.32119316177E+02  0.19638302750E+03  0.29994724197E+03  0.00000000000E+00 0. -1.
<scales pt_clust_5="13000.00000" pt_clust_6="13000.00000" pt_clust_7="13000.00000" pt_clust_8="13000.00000" pt_clust_9="36.01894" pt_clust_10="13000.00000"></scales>
<clustering>
<clus scale="   36.019">  1  9  2 -1</clus>
<clus scale="   81.509">  5  6 -1 -1</clus>
<clus scale="   82.607">  2  5  1 -1</clus>
<clus scale="   89.202">  7  8 -1 -1</clus>
<clus scale="  216.217">  7 10 -1 -1</clus>
<clus scale="   36.019">  1  5  2 -1</clus>
</clustering>
</event>
<event>
10    4  0.2565852E-005  0.3729939E+03  0.7546771E-02  0.1096419E+00
         21   -1    0    0  503  502  0.00000000000E+00  0.00000000000E+00  0.56147106940E+02  0.56147106940E+02  0.00000000000E+00 0. -1.
          2   -1    0    0  502    0 -0.00000000000E+00 -0.00000000000E+00 -0.15417264212E+04  0.15417264212E+04  0.00000000000E+00 0. -1.
         24    2    1    2    0    0 -0.57792673720E+02 -0.70381170191E+02 -0.37166688331E+03  0.39099784891E+03  0.80309049594E+02 0.  0.
         23    2    1    2    0    0  0.45970385752E+02  0.13842164746E+03 -0.25214885645E+03  0.30513647053E+03  0.90859182179E+02 0.  0.
        -11    1    3    3    0    0  0.15840101293E+02 -0.36694146518E+02 -0.10696035655E+03  0.11418356743E+03  0.00000000000E+00 0.  1.
         12    1    3    3    0    0 -0.73632775013E+02 -0.33687023673E+02 -0.26470652676E+03  0.27681428147E+03  0.00000000000E+00 0. -1.
        -13    1    4    4    0    0  0.57435589471E+02  0.34811046804E+02 -0.88329408984E+02  0.11096278840E+03  0.00000000000E+00 0. -1.
         13    1    4    4    0    0 -0.11465203719E+02  0.10361060065E+03 -0.16381944747E+03  0.19417368213E+03  0.00000000000E+00 0.  1.
         21    1    1    2  503  501 -0.45382893448E+01  0.43288855545E+02 -0.12825849107E+02  0.45376464052E+02  0.00000000000E+00 0. -1.
          1    1    1    2  501    0  0.16360577313E+02 -0.11132933281E+03 -0.84893772540E+03  0.85636274466E+03  0.00000000000E+00 0. -1.
<scales pt_clust_5="13000.00000" pt_clust_6="13000.00000" pt_clust_7="13000.00000" pt_clust_8="13000.00000" pt_clust_9="43.52610" pt_clust_10="13000.00000"></scales>
<clustering>
<clus scale="   43.526">  1  9  2 -1</clus>
<clus scale="   80.309">  5  6 -1 -1</clus>
<clus scale="   90.859">  7  8 -1 -1</clus>
<clus scale="  108.476">  7 10 -1 -1</clus>
<clus scale="  116.208">  2  5  1 -1</clus>
<clus scale="   43.526">  1  5  2 -1</clus>
</clustering>
</event>
<event>
10    4  0.2565852E-005  0.6171006E+03  0.7546771E-02  0.1037200E+00
          2   -1    0    0  503    0 -0.00000000000E+00  0.00000000000E+00  0.80620024733E+03  0.80620024733E+03  0.00000000000E+00 0. -1.
         21   -1    0    0  501  502  0.00000000000E+00 -0.00000000000E+00 -0.22136522815E+03  0.22136522815E+03  0.00000000000E+00 0. -1.
         24    2    1    2    0    0  0.10139106253E+03  0.40878165511E+02  0.20707008743E+03  0.24757411994E+03  0.80397461271E+02 0.  0.
         23    2    1    2    0    0 -0.26073512490E+01 -0.29668367202E+03  0.26671671764E+03  0.40928585811E+03  0.91373446135E+02 0.  0.
        -13    1    3    3    0    0  0.49143253112E+02  0.15728086308E+02  0.26669720357E+02  0.58083612226E+02  0.00000000000E+00 0.  1.
         14    1    3    3    0    0  0.52247809414E+02  0.25150079203E+02  0.18040036708E+03  0.18949050772E+03  0.00000000000E+00 0. -1.
        -13    1    4    4    0    0 -0.29984754841E+02 -0.34291548875E+02  0.27807230553E+02  0.53368885300E+02  0.00000000000E+00 0.  1.
         13    1    4    4    0    0  0.27377403592E+02 -0.26239212314E+03  0.23890948708E+03  0.35591697281E+03  0.00000000000E+00 0. -1.
         21    1    1    2  503  502 -0.35349602012E+02 -0.29696178671E+02 -0.19888089715E+02  0.50269210284E+02  0.00000000000E+00 0. -1.
          1    1    1    2  501    0 -0.63434109265E+02  0.28550168518E+03  0.13093630382E+03  0.32043628714E+03  0.00000000000E+00 0. -1.
<scales pt_clust_5="13000.00000" pt_clust_6="13000.00000" pt_clust_7="13000.00000" pt_clust_8="13000.00000" pt_clust_9="46.16771" pt_clust_10="13000.00000"></scales>
<clustering>
<clus scale="   46.168">  2  9  1 -1</clus>
<clus scale="   80.397">  5  6 -1 -1</clus>
<clus scale="   91.373">  7  8 -1 -1</clus>
<clus scale="  131.897">  1  5  2 -1</clus>
<clus scale="  287.992">  7 10 -1 -1</clus>
<clus scale="   46.168">  2  5  1 -1</clus>
</clustering>
</event>
<event>
10    4  0.2565852E-005  0.3227062E+03  0.7546771E-02  0.1096616E+00
         21   -1    0    0  503  502  0.00000000000E+00  0.00000000000E+00  0.48591173273E+02  0.48591173273E+02  0.00000000000E+00 0. -1.
          2   -1    0    0  502    0 -0.00000000000E+00 -0.00000000000E+00 -0.14858195532E+04  0.14858195532E+04  0.00000000000E+00 0. -1.
         24    2    1    2    0    0  0.62703514543E+02 -0.15473098026E+03 -0.58914157705E+03  0.61759129910E+03  0.80360487364E+02 0.  0.
         23    2    1    2    0    0  0.88563745929E+02  0.47813918647E+02 -0.33272849269E+03  0.35951813343E+03  0.91735110547E+02 0.  0.
        -13    1    3    3    0    0  0.34161053881E+02 -0.11758316296E+03 -0.28979524815E+03  0.31460143620E+03  0.00000000000E+00 0.  1.
         14    1    3    3    0    0  0.28542460663E+02 -0.37147817304E+02 -0.29934632890E+03  0.30298986290E+03  0.00000000000E+00 0. -1.
        -11    1    4    4    0    0 -0.52652976204E+00  0.34130442858E+02 -0.17095122674E+03  0.17432580500E+03  0.00000000000E+00 0.  1.
         11    1    4    4    0    0  0.89090275691E+02  0.13683475789E+02 -0.16177726595E+03  0.18519232843E+03  0.00000000000E+00 0. -1.
         21    1    1    2  503  501  0.11083259343E+02  0.30929917839E+02 -0.79295125358E+02  0.85832484298E+02  0.00000000000E+00 0.  1.
          1    1    1    2  501    0 -0.16235051982E+03  0.75987143776E+02 -0.43606318482E+03  0.47146880964E+03  0.00000000000E+00 0. -1.
<scales pt_clust_5="13000.00000" pt_clust_6="13000.00000" pt_clust_7="13000.00000" pt_clust_8="13000.00000" pt_clust_9="32.85572" pt_clust_10="13000.00000"></scales>
<clustering>
<clus scale="   32.856">  1  9  2 -1</clus>
<clus scale="   80.360">  5  6 -1 -1</clus>
<clus scale="   91.735">  7  8 -1 -1</clus>
<clus scale="  178.521">  2  5  1 -1</clus>
<clus scale="  122.551">  7 10 -1 -1</clus>
<clus scale="   32.856">  1  5  2 -1</clus>
</clustering>
</event>
<event>
10    4  0.2565852E-005  0.1582282E+03  0.7546771E-02  0.1214383E+00
         21   -1    0    0  501  502  0.00000000000E+00  0.00000000000E+00  0.17631307804E+03  0.17631307804E+03  0.00000000000E+00 0. -1.
          2   -1    0    0  503    0 -0.00000000000E+00 -0.00000000000E+00 -0.28881711628E+03  0.28881711628E+03  0.00000000000E+00 0. -1.
         24    2    1    2    0    0  0.28407923783E+02 -0.49856440989E+02 -0.17633110984E+03  0.20021873592E+03  0.75512959654E+02 0.  0.
         23    2    1    2    0    0  0.18436311866E+02  0.46270192268E+02 -0.66090510797E+02  0.11972844137E+03  0.86522342598E+02 0.  0.
        -13    1    3    3    0    0 -0.17101689080E+02 -0.36187316304E+02 -0.43345240463E+02  0.58998300836E+02  0.00000000000E+00 0.  1.
         14    1    3    3    0    0  0.45509612863E+02 -0.13669124684E+02 -0.13298586938E+03  0.14122043509E+03  0.00000000000E+00 0. -1.
        -13    1    4    4    0    0  0.48888790017E+02  0.31841236541E+02 -0.18096514679E+02  0.61085693721E+02  0.00000000000E+00 0. -1.
         13    1    4    4    0    0 -0.30452478152E+02  0.14428955727E+02 -0.47993996118E+02  0.58642747653E+02  0.00000000000E+00 0.  1.
         21    1    1    2  503  502 -0.18880095577E+02 -0.99137264496E+01  0.99339348269E+02  0.10160239217E+03  0.00000000000E+00 0.  1.
          1    1    1    2  501    0 -0.27964140072E+02  0.13499975171E+02  0.30578234129E+02  0.43580624846E+02  0.00000000000E+00 0. -1.
<scales pt_clust_5="13000.00000" pt_clust_6="13000.00000" pt_clust_7="13000.00000" pt_clust_8="13000.00000" pt_clust_9="21.32463" pt_clust_10="13000.00000"></scales>
<clustering>
<clus scale="   21.325">  1  9  2 -1</clus>
<clus scale="   75.513">  5  6 -1 -1</clus>
<clus scale="   86.522">  7  8 -1 -1</clus>
<clus scale="   38.188">  7 10 -1 -1</clus>
<clus scale="   94.831">  2  5  1 -1</clus>
<clus scale="   21.325">  1  5  2 -1</clus>
</clustering>
</event>
<event>
10    4  0.2565852E-005  0.3843153E+03  0.7546771E-02  0.1060819E+00
         21   -1    0    0  503  502  0.00000000000E+00  0.00000000000E+00  0.12324705685E+03  0.12324705685E+03  0.00000000000E+00 0. -1.
          2   -1    0    0  502    0 -0.00000000000E+00 -0.00000000000E+00 -0.12558326332E+04  0.12558326332E+04  0.00000000000E+00 0. -1.
         24    2    1    2    0    0 -0.92526492778E+02 -0.24301359977E+03 -0.46265885243E+03  0.53659316737E+03  0.79134391967E+02 0.  0.
         23    2    1    2    0    0  0.32280112509E+02  0.93388406228E+02 -0.56120803346E+03  0.57733480952E+03  0.92723380993E+02 0.  0.
        -11    1    3    3    0    0  0.85123886393E+01 -0.25012944563E+02 -0.84694896526E+02  0.88720536820E+02  0.00000000000E+00 0.  1.
         12    1    3    3    0    0 -0.10103888142E+03 -0.21800065521E+03 -0.37796395591E+03  0.44787263055E+03  0.00000000000E+00 0. -1.
        -13    1    4    4    0    0 -0.18714387467E+02  0.79062380955E+02 -0.29978805391E+03  0.31060258474E+03  0.00000000000E+00 0. -1.
         13    1    4    4    0    0  0.50994499976E+02  0.14326025273E+02 -0.26141997955E+03  0.26673222478E+03  0.00000000000E+00 0.  1.
         21    1    1    2  503  501  0.10723318922E+02 -0.20106533782E+02  0.31927470768E+02  0.39225319108E+02  0.00000000000E+00 0. -1.
          1    1    1    2  501    0  0.49523061347E+02  0.16973172732E+03 -0.14064616125E+03  0.22592639408E+03  0.00000000000E+00 0. -1.
<scales pt_clust_5="13000.00000" pt_clust_6="13000.00000" pt_clust_7="13000.00000" pt_clust_8="13000.00000" pt_clust_9="22.78733" pt_clust_10="13000.00000"></scales>
<clustering>
<clus scale="   22.787">  1  9  2 -1</clus>
<clus scale="   79.134">  5  6 -1 -1</clus>
<clus scale="   92.723">  7  8 -1 -1</clus>
<clus scale="  169.060">  7 10 -1 -1</clus>
<clus scale="  277.948">  2  5  1 -1</clus>
<clus scale="   22.787">  1  5  2 -1</clus>
</clustering>
</event>
<event>
10    4  0.2565852E-005  0.6331049E+03  0.7546771E-02  0.1021699E+00
         21   -1    0    0  501  502  0.00000000000E+00  0.00000000000E+00  0.42613925717E+03  0.42613925717E+03  0.00000000000E+00 0.  1.
          2   -1    0    0  503    0 -0.00000000000E+00 -0.00000000000E+00 -0.88572363982E+03  0.88572363982E+03  0.00000000000E+00 0. -1.
         24    2    1    2    0    0  0.13038481866E+02  0.15937790839E+03  0.71708977868E+02  0.19275850404E+03  0.80264211695E+02 0.  0.
         23    2    1    2    0    0  0.12950553987E+03 -0.29937693065E+03 -0.58293099716E+03  0.67393245472E+03  0.89320628113E+02 0.  0.
        -11    1    3    3    0    0 -0.33983691243E+02  0.59251435911E+02  0.27407856118E+02  0.73599011576E+02  0.00000000000E+00 0.  1.
         12    1    3    3    0    0  0.47022173108E+02  0.10012647248E+03  0.44301121749E+02  0.11915949246E+03  0.00000000000E+00 0. -1.
        -11    1    4    4    0    0  0.54612038910E+02 -0.18219354994E+03 -0.41037197201E+03  0.45230755007E+03  0.00000000000E+00 0.  1.
         11    1    4    4    0    0  0.74893500965E+02 -0.11718338071E+03 -0.17255902515E+03  0.22162490465E+03  0.00000000000E+00 0. -1.
         21    1    1    2  503  502  0.70505404804E+02  0.18947462591E+02  0.16104352006E+03  0.17681921219E+03  0.00000000000E+00 0.  1.
          1    1    1    2  501    0 -0.21304942654E+03  0.12105155967E+03 -0.10940588342E+03  0.26835272605E+03  0.00000000000E+00 0. -1.
<scales pt_clust_5="13000.00000" pt_clust_6="13000.00000" pt_clust_7="13000.00000" pt_clust_8="13000.00000" pt_clust_9="73.00698" pt_clust_10="13000.00000"></scales>
<clustering>
<clus scale="   73.007">  1  9  2 -1</clus>
<clus scale="   80.264">  5  6 -1 -1</clus>
<clus scale="   89.321">  7  8 -1 -1</clus>
<clus scale="  193.579">  2  5  1 -1</clus>
<clus scale="  243.188">  7 10 -1 -1</clus>
<clus scale="   73.007">  1  5  2 -1</clus>
</clustering>
</event>
<event>
10    4  0.2565852E-005  0.1661918E+03  0.7546771E-02  0.1195296E+00
         21   -1    0    0  501  502  0.00000000000E+00  0.00000000000E+00  0.37256399065E+03  0.37256399065E+03  0.00000000000E+00 0. -1.
          2   -1    0    0  503    0 -0.00000000000E+00 -0.00000000000E+00 -0.43882342671E+03  0.43882342671E+03  0.00000000000E+00 0. -1.
         24    2    1    2    0    0 -0.10435224342E+03 -0.39978200749E+02 -0.50407972516E+02  0.14632104664E+03  0.79882649903E+02 0.  0.
         23    2    1    2    0    0  0.67848070487E+02  0.40160414256E+02 -0.26671391706E+03  0.29212263096E+03  0.89348186449E+02 0.  0.
        -13    1    3    3    0    0 -0.71970620227E+02 -0.27376572857E+02  0.89711334019E+01  0.77522436441E+02  0.00000000000E+00 0.  1.
         14    1    3    3    0    0 -0.32381623195E+02 -0.12601627893E+02 -0.59379105917E+02  0.68798610203E+02  0.00000000000E+00 0. -1.
        -11    1    4    4    0    0  0.39305347190E+02 -0.29643583654E+01 -0.29227738256E+02  0.49070952934E+02  0.00000000000E+00 0.  1.
         11    1    4    4    0    0  0.28542723297E+02  0.43124772621E+02 -0.23748617881E+03  0.24305167802E+03  0.00000000000E+00 0. -1.
         21    1    1    2  503  502  0.54095667091E+02 -0.38150810895E+02  0.30068170401E+03  0.30788197852E+03  0.00000000000E+00 0. -1.
          1    1    1    2  501    0 -0.17591494156E+02  0.37968597389E+02 -0.49819250497E+02  0.65061761231E+02  0.00000000000E+00 0. -1.
<scales pt_clust_5="13000.00000" pt_clust_6="13000.00000" pt_clust_7="13000.00000" pt_clust_8="13000.00000" pt_clust_9="66.19536" pt_clust_10="13000.00000"></scales>
<clustering>
<clus scale="   66.195">  1  9  2 -1</clus>
<clus scale="   79.883">  5  6 -1 -1</clus>
<clus scale="   89.348">  7  8 -1 -1</clus>
<clus scale="   35.635">  7 10 -1 -1</clus>
<clus scale="  123.464">  2  5  1 -1</clus>
<clus scale="   66.195">  1  5  2 -1</clus>
</clustering>
</event>
<event>
10    4  0.2565852E-005  0.2252969E+03  0.7546771E-02  0.1148486E+00
          2   -1    0    0  503    0 -0.00000000000E+00  0.00000000000E+00  0.24505487966E+03  0.24505487966E+03  0.00000000000E+00 0. -1.
         21   -1    0    0  501  502  0.00000000000E+00 -0.00000000000E+00 -0.18389666916E+03  0.18389666916E+03  0.00000000000E+00 0. -1.
         24    2    1    2    0    0  0.90412328794E+02 -0.84157074575E+02  0.10536446216E+03  0.18112901885E+03  0.80307217525E+02 0.  0.
         23    2    1    2    0    0 -0.34377608801E+02  0.12327670305E+02 -0.91035034783E+02  0.12787719404E+03  0.82045156809E+02 0.  0.
        -11    1    3    3    0    0  0.24126393299E+02  0.13759972983E+02  0.11103669270E+02  0.29911723142E+02  0.00000000000E+00 0.  1.
         12    1    3    3    0    0  0.66285935495E+02 -0.97917047557E+02  0.94260792887E+02  0.15121729571E+03  0.00000000000E+00 0. -1.
        -11    1    4    4    0    0  0.22191289370E+02 -0.13726655096E+02 -0.17059416727E+02  0.31175280001E+02  0.00000000000E+00 0.  1.
         11    1    4    4    0    0 -0.56568898171E+02  0.26054325401E+02 -0.73975618056E+02  0.96701914041E+02  0.00000000000E+00 0. -1.
         21    1    1    2  503  502 -0.24700861068E+02 -0.10615977328E+01 -0.49358818608E+01  0.25211554037E+02  0.00000000000E+00 0. -1.
          1    1    1    2  501    0 -0.31333858925E+02  0.72891002003E+02  0.51764664989E+02  0.94733781881E+02  0.00000000000E+00 0. -1.
<scales pt_clust_5="13000.00000" pt_clust_6="13000.00000" pt_clust_7="13000.00000" pt_clust_8="13000.00000" pt_clust_9="24.72366" pt_clust_10="13000.00000"></scales>
<clustering>
<clus scale="   24.724">  2  9  1 -1</clus>
<clus scale="   80.307">  5  6 -1 -1</clus>
<clus scale="   82.045">  7  8 -1 -1</clus>
<clus scale="   80.512">  7 10 -1 -1</clus>
<clus scale="  144.134">  1  5  2 -1</clus>
<clus scale="   24.724">  2  5  1 -1</clus>
</clustering>
</event>
<event>
10    4  0.2565852E-005  0.2176207E+03  0.7546771E-02  0.1176676E+00
          2   -1    0    0  502    0 -0.00000000000E+00  0.00000000000E+00  0.50209612421E+03  0.50209612421E+03  0.00000000000E+00 0. -1.
         21   -1    0    0  503  502  0.00000000000E+00 -0.00000000000E+00 -0.90893789667E+02  0.90893789667E+02  0.00000000000E+00 0. -1.
         24    2    1    2    0    0 -0.15798278668E+02  0.13874620883E+02  0.13506755729E+03  0.15897755928E+03  0.81169751813E+02 0.  0.
         23    2    1    2    0    0 -0.63840883463E+02  0.57067687432E+02  0.21601846039E+03  0.24860921965E+03  0.88375276611E+02 0.  0.
        -13    1    3    3    0    0  0.64563473672E+01  0.22067513501E+02  0.13322142784E+03  0.13519100713E+03  0.00000000000E+00 0.  1.
         14    1    3    3    0    0 -0.22254626035E+02 -0.81928926186E+01  0.18461294534E+01  0.23786552154E+02  0.00000000000E+00 0. -1.
        -11    1    4    4    0    0 -0.32240079183E+02  0.64299517147E+01  0.17024348786E+03  0.17338861596E+03  0.00000000000E+00 0. -1.
         11    1    4    4    0    0 -0.31600804280E+02  0.50637735717E+02  0.45774972525E+02  0.75220603689E+02  0.00000000000E+00 0.  1.
         21    1    1    2  503  501  0.74846989368E+02  0.19512272068E+02  0.12205353230E+01  0.77358194687E+02  0.00000000000E+00 0. -1.
          1    1    1    2  501    0  0.47921727626E+01 -0.90454580383E+02  0.58895781543E+02  0.10804494026E+03  0.00000000000E+00 0. -1.
<scales pt_clust_5="13000.00000" pt_clust_6="13000.00000" pt_clust_7="13000.00000" pt_clust_8="13000.00000" pt_clust_9="77.34857" pt_clust_10="13000.00000"></scales>
<clustering>
<clus scale="   77.349">  2  9  1 -1</clus>
<clus scale="   81.170">  5  6 -1 -1</clus>
<clus scale="   83.213">  1  5  2 -1</clus>
<clus scale="   88.375">  7  8 -1 -1</clus>
<clus scale="   85.322">  7 10 -1 -1</clus>
<clus scale="   77.349">  2  5  1 -1</clus>
</clustering>
</event>
<event>
10    4  0.2565852E-005  0.4209509E+03  0.7546771E-02  0.1084069E+00
          2   -1    0    0  502    0 -0.00000000000E+00  0.00000000000E+00  0.77928240325E+03  0.77928240325E+03  0.00000000000E+00 0. -1.
         21   -1    0    0  503  502  0.00000000000E+00 -0.00000000000E+00 -0.12002935152E+03  0.12002935152E+03  0.00000000000E+00 0. -1.
         24    2    1    2    0    0 -0.81393433976E+02  0.27796009599E+02  0.11286764321E+03  0.16337165595E+03  0.80954825918E+02 0.  0.
         23    2    1    2    0    0  0.16439960701E+03  0.11216038721E+03  0.33398733964E+03  0.39862651522E+03  0.88024839422E+02 0.  0.
        -13    1    3    3    0    0 -0.97258368534E+02  0.30589366437E+02  0.95786830854E+02  0.13989287528E+03  0.00000000000E+00 0.  1.
         14    1    3    3    0    0  0.15864934558E+02 -0.27933568384E+01  0.17080812355E+02  0.23478780668E+02  0.00000000000E+00 0. -1.
        -11    1    4    4    0    0  0.11472821019E+03  0.26159941262E+02  0.16598588288E+03  0.20346552056E+03  0.00000000000E+00 0.  1.
         11    1    4    4    0    0  0.49671396821E+02  0.86000445951E+02  0.16800145676E+03  0.19516099467E+03  0.00000000000E+00 0. -1.
         21    1    1    2  503  501  0.40043984166E+02  0.13763279183E+02 -0.65525208768E+01  0.42847217547E+02  0.00000000000E+00 0. -1.
          1    1    1    2  501    0 -0.12305015720E+03 -0.15371967599E+03  0.21895058976E+03  0.29446636605E+03  0.00000000000E+00 0. -1.
<scales pt_clust_5="13000.00000" pt_clust_6="13000.00000" pt_clust_7="13000.00000" pt_clust_8="13000.00000" pt_clust_9="42.34322" pt_clust_10="13000.00000"></scales>
<clustering>
<clus scale="   42.343">  2  9  1 -1</clus>
<clus scale="   80.955">  5  6 -1 -1</clus>
<clus scale="   88.025">  7  8 -1 -1</clus>
<clus scale="  112.040">  1  5  2 -1</clus>
<clus scale="  190.593">  7 10 -1 -1</clus>
<clus scale="   42.343">  2  5  1 -1</clus>
</clustering>
</event>
<event>
10    4  0.2565852E-005  0.1534620E+03  0.7546771E-02  0.1218295E+00
         -3   -1    0    0    0  501 -0.00000000000E+00  0.00000000000E+00  0.13367830004E+03  0.13367830004E+03  0.00000000000E+00 0.  1.
         21   -1    0    0  503  502  0.00000000000E+00 -0.00000000000E+00 -0.25267132766E+03  0.25267132766E+03  0.00000000000E+00 0. -1.
         24    2    1    2    0    0  0.12305187520E+02 -0.41430050188E+02 -0.56533380087E+02  0.10663433642E+03  0.79416572214E+02 0.  0.
         23    2    1    2    0    0 -0.19744623514E+02  0.11930950366E+02  0.69418026696E+02  0.11802100679E+03  0.92616941641E+02 0.  0.
        -13    1    3    3    0    0 -0.26410877105E+02 -0.28697699716E+02 -0.26741279008E+01  0.39092753273E+02  0.00000000000E+00 0.  1.
         14    1    3    3    0    0  0.38716064625E+02 -0.12732350472E+02 -0.53859252186E+02  0.67541583152E+02  0.00000000000E+00 0. -1.
        -11    1    4    4    0    0 -0.48058802982E+02  0.28308000879E+01  0.66964788714E+01  0.48605604640E+02  0.00000000000E+00 0.  1.
         11    1    4    4    0    0  0.28314179468E+02  0.91001502779E+01  0.62721547825E+02  0.69415402150E+02  0.00000000000E+00 0. -1.
         21    1    1    2  503  501  0.17275832975E+02 -0.11856000704E+02 -0.11344055735E+03  0.11535934817E+03  0.00000000000E+00 0. -1.
         -4    1    1    2    0  502 -0.98363969808E+01  0.41355100526E+02 -0.18437116882E+02  0.46334936323E+02  0.00000000000E+00 0.  1.
<scales pt_clust_5="13000.00000" pt_clust_6="13000.00000" pt_clust_7="13000.00000" pt_clust_8="13000.00000" pt_clust_9="20.95278" pt_clust_10="13000.00000"></scales>
<clustering>
<clus scale="   20.953">  2  9  1 -1</clus>
<clus scale="   79.417">  5  6 -1 -1</clus>
<clus scale="   92.617">  7  8 -1 -1</clus>
<clus scale="   39.010">  7 10 -1 -1</clus>
<clus scale="   95.698">  1  5  2 -1</clus>
<clus scale="   20.953">  2  5  1 -1</clus>
</clustering>
</event>
<event>
10    4  0.2565852E-005  0.3222145E+03  0.7546771E-02  0.1118535E+00
         21   -1    0    0  503  502  0.00000000000E+00  0.00000000000E+00  0.38230664422E+03  0.38230664422E+03  0.00000000000E+00 0. -1.
          2   -1    0    0  502    0 -0.00000000000E+00 -0.00000000000E+00 -0.35799785018E+03  0.35799785018E+03  0.00000000000E+00 0. -1.
         24    2    1    2    0    0  0.29636635899E+02  0.61083526575E+02 -0.25119512211E+03  0.27119642995E+03  0.76413263492E+02 0.  0.
         23    2    1    2    0    0  0.75686387477E+02  0.40456902937E+02 -0.72885950011E+01  0.11952315380E+03  0.82870202316E+02 0.  0.
        -13    1    3    3    0    0  0.28053950621E+02  0.31428290236E+02 -0.40565427593E+02  0.58483463376E+02  0.00000000000E+00 0.  1.
         14    1    3    3    0    0  0.15826852787E+01  0.29655236339E+02 -0.21062969452E+03  0.21271296657E+03  0.00000000000E+00 0. -1.
        -11    1    4    4    0    0 -0.77076917736E+01  0.19820684804E+02 -0.23932704691E+02  0.32016283551E+02  0.00000000000E+00 0.  1.
         11    1    4    4    0    0  0.83394079250E+02  0.20636218133E+02  0.16644109690E+02  0.87506870246E+02  0.00000000000E+00 0. -1.
         21    1    1    2  503  501  0.32075089076E+02 -0.93880200685E+01  0.87332573479E+02  0.93508954922E+02  0.00000000000E+00 0. -1.
          1    1    1    2  501    0 -0.13739811245E+03 -0.92152409444E+02  0.19545993767E+03  0.25607595574E+03  0.00000000000E+00 0. -1.
<scales pt_clust_5="13000.00000" pt_clust_6="13000.00000" pt_clust_7="13000.00000" pt_clust_8="13000.00000" pt_clust_9="33.42075" pt_clust_10="13000.00000"></scales>
<clustering>
<clus scale="   33.421">  1  9  2 -1</clus>
<clus scale="   76.413">  5  6 -1 -1</clus>
<clus scale="   82.870">  7  8 -1 -1</clus>
<clus scale="  102.351">  2  5  1 -1</clus>
<clus scale="  132.260">  7 10 -1 -1</clus>
<clus scale="   33.421">  1  5  2 -1</clus>
</clustering>
</event>
<event>
10    4  0.2565852E-005  0.4259884E+03  0.7546771E-02  0.1083681E+00
          2   -1    0    0  503    0 -0.00000000000E+00  0.00000000000E+00  0.84713842455E+03  0.84713842455E+03  0.00000000000E+00 0. -1.
         21   -1    0    0  501  502  0.00000000000E+00 -0.00000000000E+00 -0.17360215812E+03  0.17360215812E+03  0.00000000000E+00 0. -1.
         24    2    1    2    0    0 -0.17220945390E+02 -0.69809040406E+02 -0.11695010395E+02  0.10986401759E+03  0.82240294324E+02 0.  0.
         23    2    1    2    0    0 -0.37098644869E+02  0.56582952663E+02  0.39434071719E+03  0.41055662265E+03  0.92055413633E+02 0.  0.
        -13    1    3    3    0    0  0.30725587311E+02 -0.19303880307E+02  0.86704411336E+01  0.37307882008E+02  0.00000000000E+00 0.  1.
         14    1    3    3    0    0 -0.47946532701E+02 -0.50505160099E+02 -0.20365451528E+02  0.72556135582E+02  0.00000000000E+00 0. -1.
        -11    1    4    4    0    0 -0.52683524753E+02  0.70317681184E+00  0.13757951709E+03  0.14732335782E+03  0.00000000000E+00 0.  1.
         11    1    4    4    0    0  0.15584879884E+02  0.55879775852E+02  0.25676120011E+03  0.26323326482E+03  0.00000000000E+00 0. -1.
         21    1    1    2  503  502 -0.13121855870E+03  0.12157729420E+03  0.19624175861E+03  0.26553752360E+03  0.00000000000E+00 0. -1.
          1    1    1    2  501    0  0.18553814896E+03 -0.10835120646E+03  0.94648801021E+02  0.23478241884E+03  0.00000000000E+00 0. -1.
<scales pt_clust_5="13000.00000" pt_clust_6="13000.00000" pt_clust_7="13000.00000" pt_clust_8="13000.00000" pt_clust_9="169.79014" pt_clust_10="13000.00000"></scales>
<clustering>
<clus scale="   82.240">  5  6 -1 -1</clus>
<clus scale="   92.055">  7  8 -1 -1</clus>
<clus scale="  109.240">  1  5  2 -1</clus>
<clus scale="  169.790">  2  9  1 -1</clus>
<clus scale="  110.635">  7 10 -1 -1</clus>
<clus scale="  169.790">  2  5  1 -1</clus>
</clustering>
</event>
<event>
10    4  0.2565852E-005  0.3802733E+03  0.7546771E-02  0.1063625E+00
          2   -1    0    0  502    0 -0.00000000000E+00  0.00000000000E+00  0.76191522261E+03  0.76191522261E+03  0.00000000000E+00 0. -1.
         21   -1    0    0  503  502  0.00000000000E+00 -0.00000000000E+00 -0.56629495635E+03  0.56629495635E+03  0.00000000000E+00 0.  1.
         24    2    1    2    0    0  0.18917021086E+03 -0.71641606597E+02  0.20969294049E+02  0.21908870766E+03  0.81500073978E+02 0.  0.
         23    2    1    2    0    0 -0.35003897841E+02 -0.51740934006E+01  0.33549388138E+02  0.10259726576E+03  0.90269559597E+02 0.  0.
        -11    1    3    3    0    0  0.74612383545E+02 -0.58588713580E+02  0.38658048507E+02  0.10244066503E+03  0.00000000000E+00 0.  1.
         12    1    3    3    0    0  0.11455782731E+03 -0.13052893016E+02 -0.17688754458E+02  0.11664804263E+03  0.00000000000E+00 0. -1.
        -11    1    4    4    0    0  0.31498201006E+01 -0.29747553378E+02  0.46600532692E+02  0.55375517566E+02  0.00000000000E+00 0.  1.
         11    1    4    4    0    0 -0.38153717942E+02  0.24573459977E+02 -0.13051144553E+02  0.47221748191E+02  0.00000000000E+00 0. -1.
         21    1    1    2  503  501  0.63583874421E+02 -0.61007215377E+02 -0.39872241269E+03  0.40834342384E+03  0.00000000000E+00 0.  1.
          1    1    1    2  501    0 -0.21775018744E+03  0.13782291537E+03  0.53982399676E+03  0.59818078171E+03  0.00000000000E+00 0. -1.
<scales pt_clust_5="13000.00000" pt_clust_6="13000.00000" pt_clust_7="13000.00000" pt_clust_8="13000.00000" pt_clust_9="88.11804" pt_clust_10="13000.00000"></scales>
<clustering>
<clus scale="   81.500">  5  6 -1 -1</clus>
<clus scale="   88.118">  2  9  1 -1</clus>
<clus scale="   90.270">  7  8 -1 -1</clus>
<clus scale="  242.242">  7 10 -1 -1</clus>
<clus scale="  265.325">  1  5  2 -1</clus>
<clus scale="   88.118">  2  5  1 -1</clus>
</clustering>
</event>
<event>
10    4  0.2565852E-005  0.6354695E+03  0.7546771E-02  0.9849054E-01
          2   -1    0    0  502    0 -0.00000000000E+00  0.00000000000E+00  0.17313409638E+04  0.17313409638E+04  0.00000000000E+00 0. -1.
         21   -1    0    0  503  502  0.00000000000E+00 -0.00000000000E+00 -0.75154494127E+03  0.75154494127E+03  0.00000000000E+00 0.  1.
         24    2    1    2    0    0 -0.53734462953E+03 -0.26903314667E+03  0.84960722222E+03  0.10435424668E+04  0.77655412944E+02 0.  0.
         23    2    1    2    0    0 -0.11983073662E+03  0.12666745000E+03  0.22420773760E+03  0.29774112986E+03  0.89311939186E+02 0.  0.
        -11    1    3    3    0    0 -0.50467374467E+02 -0.48289456350E+02  0.76267893150E+02  0.10341962582E+03  0.00000000000E+00 0.  1.
         12    1    3    3    0    0 -0.48687725506E+03 -0.22074369032E+03  0.77333932907E+03  0.94012284101E+03  0.00000000000E+00 0. -1.
        -13    1    4    4    0    0 -0.10561281104E+03  0.10891033104E+03  0.22880733831E+03  0.27453291993E+03  0.00000000000E+00 0. -1.
         13    1    4    4    0    0 -0.14217925579E+02  0.17757118955E+02 -0.45996007044E+01  0.23208209926E+02  0.00000000000E+00 0.  1.
         21    1    1    2  503  501  0.74895136448E+03  0.20604956752E+03 -0.35774070629E+03  0.85519762837E+03  0.00000000000E+00 0.  1.
          1    1    1    2  501    0 -0.91775998331E+02 -0.63683870843E+02  0.26372176903E+03  0.28640468001E+03  0.00000000000E+00 0. -1.
<scales pt_clust_5="13000.00000" pt_clust_6="13000.00000" pt_clust_7="13000.00000" pt_clust_8="13000.00000" pt_clust_9="591.11309" pt_clust_10="13000.00000"></scales>
<clustering>
<clus scale="   77.655">  5  6 -1 -1</clus>
<clus scale="   89.312">  7  8 -1 -1</clus>
<clus scale="  111.707">  7 10 -1 -1</clus>
<clus scale="  605.928">  1  5  2 -1</clus>
<clus scale="  591.113">  2  9  1 -1</clus>
<clus scale="  591.113">  2  5  1 -1</clus>
</clustering>
</event>
<event>
10    4  0.2565852E-005  0.2876275E+03  0.7546771E-02  0.1097551E+00
          2   -1    0    0  503    0 -0.00000000000E+00  0.00000000000E+00  0.31663444785E+03  0.31663444785E+03  0.00000000000E+00 0. -1.
         21   -1    0    0  501  502  0.00000000000E+00 -0.00000000000E+00 -0.40248069015E+03  0.40248069015E+03  0.00000000000E+00 0. -1.
         24    2    1    2    0    0 -0.14607969726E+03  0.16319537721E+03 -0.20177493841E+02  0.23324224169E+03  0.77606719796E+02 0.  0.
         23    2    1    2    0    0  0.47164557692E+02 -0.52685259545E+02  0.68665262085E+02  0.13648029702E+03  0.94401913014E+02 0.  0.
        -13    1    3    3    0    0 -0.91686034206E+02  0.47747971617E+02  0.35526754260E+01  0.10343509639E+03  0.00000000000E+00 0.  1.
         14    1    3    3    0    0 -0.54393663050E+02  0.11544740559E+03 -0.23730169267E+02  0.12980714530E+03  0.00000000000E+00 0. -1.
        -13    1    4    4    0    0 -0.15611971857E+02 -0.41937204057E+02  0.55760449300E+02  0.71496086995E+02  0.00000000000E+00 0. -1.
         13    1    4    4    0    0  0.62776529549E+02 -0.10748055488E+02  0.12904812785E+02  0.64984210021E+02  0.00000000000E+00 0.  1.
         21    1    1    2  503  502 -0.88971229728E+01  0.27489113623E+02 -0.16850923363E+03  0.17096833620E+03  0.00000000000E+00 0. -1.
          1    1    1    2  501    0  0.10781226254E+03 -0.13799923129E+03  0.34175223090E+02  0.17842426310E+03  0.00000000000E+00 0. -1.
<scales pt_clust_5="13000.00000" pt_clust_6="13000.00000" pt_clust_7="13000.00000" pt_clust_8="13000.00000" pt_clust_9="28.89308" pt_clust_10="13000.00000"></scales>
<clustering>
<clus scale="   28.893">  2  9  1 -1</clus>
<clus scale="   77.607">  5  6 -1 -1</clus>
<clus scale="   94.402">  7  8 -1 -1</clus>
<clus scale="  166.739">  7 10 -1 -1</clus>
<clus scale="  246.053">  1  5  2 -1</clus>
<clus scale="   28.893">  2  5  1 -1</clus>
</clustering>
</event>
<event>
10    4  0.2565852E-005  0.7780436E+03  0.7546771E-02  0.1021316E+00
         21   -1    0    0  501  502  0.00000000000E+00  0.00000000000E+00  0.12949491479E+03  0.12949491479E+03  0.00000000000E+00 0.  1.
          2   -1    0    0  503    0 -0.00000000000E+00 -0.00000000000E+00 -0.21803950183E+04  0.21803950183E+04  0.00000000000E+00 0. -1.
         24    2    1    2    0    0 -0.31603122299E+02  0.82737924465E+02 -0.11476389469E+03  0.16573343440E+03  0.80327444071E+02 0.  0.
         23    2    1    2    0    0  0.58743019246E+02  0.36913734905E+03 -0.93238650526E+03  0.10083084020E+04  0.87339072875E+02 0.  0.
        -11    1    3    3    0    0 -0.47324207672E+02  0.20922482975E+02 -0.30540807784E+02  0.60083873592E+02  0.00000000000E+00 0.  1.
         12    1    3    3    0    0  0.15721085373E+02  0.61815441489E+02 -0.84223086906E+02  0.10564956081E+03  0.00000000000E+00 0. -1.
        -11    1    4    4    0    0  0.29154720115E+02  0.11651666122E+03 -0.20329346472E+03  0.23612361772E+03  0.00000000000E+00 0.  1.
         11    1    4    4    0    0  0.29588299132E+02  0.25262068783E+03 -0.72909304054E+03  0.77218478431E+03  0.00000000000E+00 0. -1.
         21    1    1    2  503  502  0.49586079643E+02 -0.67966006826E+02 -0.35261328567E+02  0.91222358392E+02  0.00000000000E+00 0. -1.
          1    1    1    2  501    0 -0.76725976591E+02 -0.38390926669E+03 -0.96848837501E+03  0.10446257383E+04  0.00000000000E+00 0. -1.
<scales pt_clust_5="13000.00000" pt_clust_6="13000.00000" pt_clust_7="13000.00000" pt_clust_8="13000.00000" pt_clust_9="84.13179" pt_clust_10="13000.00000"></scales>
<clustering>
<clus scale="   80.327">  5  6 -1 -1</clus>
<clus scale="   84.132">  1  9  2 -1</clus>
<clus scale="   87.339">  7  8 -1 -1</clus>
<clus scale="  105.511">  2  5  1 -1</clus>
<clus scale="  378.924">  7 10 -1 -1</clus>
<clus scale="   84.132">  1  5  2 -1</clus>
</clustering>
</event>
<event>
10    4  0.3569841E-005  0.5236782E+03  0.7546771E-02  0.1027474E+00
          2   -1    0    0  502    0 -0.00000000000E+00  0.00000000000E+00  0.14806033572E+04  0.14806033572E+04  0.00000000000E+00 0. -1.
         21   -1    0    0  503  502  0.00000000000E+00 -0.00000000000E+00 -0.12202620660E+03  0.12202620660E+03  0.00000000000E+00 0.  1.
         24    2    1    2    0    0 -0.11203136756E+02 -0.27645006359E+03  0.34562045790E+03  0.44937532735E+03  0.77035939532E+02 0.  0.
         23    2    1    2    0    0 -0.87581127592E+02 -0.66824096824E+02  0.14052139466E+03  0.19982742995E+03  0.89715247184E+02 0.  0.
        -13    1    3    3    0    0  0.17942553327E+02 -0.10922547680E+03  0.90663677405E+02  0.14308054516E+03  0.00000000000E+00 0.  1.
         14    1    3    3    0    0 -0.29145690083E+02 -0.16722458679E+03  0.25495678049E+03  0.30629478219E+03  0.00000000000E+00 0. -1.
        -11    1    4    4    0    0 -0.93125295063E+02 -0.38834734038E+02  0.13831919578E+03  0.17120939539E+03  0.00000000000E+00 0.  1.
         11    1    4    4    0    0  0.55441674705E+01 -0.27989362786E+02  0.22021988746E+01  0.28618034559E+02  0.00000000000E+00 0. -1.
         21    1    1    2  503  501  0.21109217414E+02 -0.15476563882E+01  0.14849798219E+02  0.25855575941E+02  0.00000000000E+00 0.  1.
          1    1    1    2  501    0  0.77675046935E+02  0.34482181680E+03  0.85758549985E+03  0.92757123059E+03  0.00000000000E+00 0. -1.
<scales pt_clust_5="13000.00000" pt_clust_6="13000.00000" pt_clust_7="13000.00000" pt_clust_8="13000.00000" pt_clust_9="21.16588" pt_clust_10="13000.00000"></scales>
<clustering>
<clus scale="   21.166">  2  9  1 -1</clus>
<clus scale="   77.036">  5  6 -1 -1</clus>
<clus scale="   89.715">  7  8 -1 -1</clus>
<clus scale="  287.652">  1  5  2 -1</clus>
<clus scale="  138.631">  7 10 -1 -1</clus>
<clus scale="   21.166">  2  5  1 -1</clus>
</clustering>
</event>
<event>
10    4  0.2565852E-005  0.5885729E+03  0.7546771E-02  0.1026651E+00
          2   -1    0    0  502    0 -0.00000000000E+00  0.00000000000E+00  0.16498361827E+04  0.16498361827E+04  0.00000000000E+00 0. -1.
         21   -1    0    0  503  502  0.00000000000E+00 -0.00000000000E+00 -0.14947647056E+03  0.14947647056E+03  0.00000000000E+00 0. -1.
         24    2    1    2    0    0  0.54054936696E+02 -0.17582079552E+03  0.75098629714E+03  0.77756770530E+03  0.82439247388E+02 0.  0.
         23    2    1    2    0    0  0.90333462676E+02 -0.11990874733E+02 -0.36821173588E+02  0.13337819039E+03  0.90166663967E+02 0.  0.
        -13    1    3    3    0    0  0.29395639929E+02 -0.87848165448E+01  0.16094611876E+03  0.16384422416E+03  0.00000000000E+00 0.  1.
         14    1    3    3    0    0  0.24659296767E+02 -0.16703597897E+03  0.59004017838E+03  0.61372348113E+03  0.00000000000E+00 0. -1.
        -11    1    4    4    0    0  0.20480452026E+02  0.29816020468E+02  0.12409518652E+02  0.38241863774E+02  0.00000000000E+00 0.  1.
         11    1    4    4    0    0  0.69853010650E+02 -0.41806895201E+02 -0.49230692241E+02  0.95136326614E+02  0.00000000000E+00 0. -1.
         21    1    1    2  503  501 -0.15730454713E+02 -0.69659294953E+02  0.26835579191E+02  0.76289008969E+02  0.00000000000E+00 0. -1.
          1    1    1    2  501    0 -0.12865794466E+03  0.25747096520E+03  0.75935900942E+03  0.81207774864E+03  0.00000000000E+00 0. -1.
<scales pt_clust_5="13000.00000" pt_clust_6="13000.00000" pt_clust_7="13000.00000" pt_clust_8="13000.00000" pt_clust_9="71.41334" pt_clust_10="13000.00000"></scales>
<clustering>
<clus scale="   71.413">  2  9  1 -1</clus>
<clus scale="   82.439">  5  6 -1 -1</clus>
<clus scale="   90.167">  7  8 -1 -1</clus>
<clus scale="  207.648">  1  5  2 -1</clus>
<clus scale="  118.602">  7 10 -1 -1</clus>
<clus scale="   71.413">  2  5  1 -1</clus>
</clustering>
</event>
<event>
10    4  0.2565852E-005  0.7086337E+03  0.7546771E-02  0.1038799E+00
          2   -1    0    0  502    0 -0.00000000000E+00  0.00000000000E+00  0.94518061765E+03  0.94518061765E+03  0.00000000000E+00 0. -1.
         21   -1    0    0  503  502  0.00000000000E+00 -0.00000000000E+00 -0.19356298718E+03  0.19356298718E+03  0.00000000000E+00 0. -1.
         24    2    1    2    0    0  0.97613120578E+01  0.10934753874E+02 -0.21747155713E+01  0.82816339482E+02  0.81479841937E+02 0.  0.
         23    2    1    2    0    0 -0.25246982999E+03  0.12048576399E+03  0.89005009784E+02  0.30699502737E+03  0.89812141065E+02 0.  0.
        -11    1    3    3    0    0 -0.12051870870E+02 -0.17596678970E+02 -0.30401586637E+02  0.37136870793E+02  0.00000000000E+00 0.  1.
         12    1    3    3    0    0  0.21813182928E+02  0.28531432844E+02  0.28226871066E+02  0.45679468689E+02  0.00000000000E+00 0. -1.
        -11    1    4    4    0    0 -0.42345543944E+02 -0.12599256246E+02  0.49742460333E+01  0.44459301316E+02  0.00000000000E+00 0. -1.
         11    1    4    4    0    0 -0.21012428605E+03  0.13308502023E+03  0.84030763750E+02  0.26253572605E+03  0.00000000000E+00 0.  1.
         21    1    1    2  503  501 -0.17538619486E+02  0.19558839990E+02  0.96085751648E+01  0.27972774476E+02  0.00000000000E+00 0.  1.
          1    1    1    2  501    0  0.26024713742E+03 -0.15097935785E+03  0.65517876109E+03  0.72095946350E+03  0.00000000000E+00 0. -1.
<scales pt_clust_5="13000.00000" pt_clust_6="13000.00000" pt_clust_7="13000.00000" pt_clust_8="13000.00000" pt_clust_9="26.27073" pt_clust_10="13000.00000"></scales>
<clustering>
<clus scale="   26.271">  2  9  1 -1</clus>
<clus scale="   81.480">  5  6 -1 -1</clus>
<clus scale="   83.127">  1  5  2 -1</clus>
<clus scale="   89.812">  7  8 -1 -1</clus>
<clus scale="  294.636">  7 10 -1 -1</clus>
<clus scale="   26.271">  2  5  1 -1</clus>
</clustering>
</event>
<event>
10    4  0.2565852E-005  0.2179360E+03  0.7546771E-02  0.1174848E+00
         21   -1    0    0  503  502  0.00000000000E+00  0.00000000000E+00  0.26836867258E+03  0.26836867258E+03  0.00000000000E+00 0.  1.
         -1   -1    0    0    0  501 -0.00000000000E+00 -0.00000000000E+00 -0.54020402445E+03  0.54020402445E+03  0.00000000000E+00 0.  1.
         24    2    1    2    0    0  0.30694308442E+02  0.97216673911E-01 -0.18236760205E+03  0.20143197958E+03  0.79842032160E+02 0.  0.
         23    2    1    2    0    0 -0.91314373474E+02  0.81565222435E+02 -0.14683767236E+03  0.20764847463E+03  0.81027073746E+02 0.  0.
        -11    1    3    3    0    0  0.17832008217E+02 -0.39596976110E+02 -0.83435606266E+02  0.94060626338E+02  0.00000000000E+00 0.  1.
         12    1    3    3    0    0  0.12862300225E+02  0.39694192784E+02 -0.98931995781E+02  0.10737135324E+03  0.00000000000E+00 0. -1.
        -11    1    4    4    0    0 -0.54423652094E+02  0.85649607303E+02 -0.13459912217E+03  0.16856664209E+03  0.00000000000E+00 0.  1.
         11    1    4    4    0    0 -0.36890721380E+02 -0.40843848683E+01 -0.12238550187E+02  0.39081832536E+02  0.00000000000E+00 0. -1.
         21    1    1    2  503  501  0.24496262064E+00 -0.57282672851E+02  0.21840483223E+03  0.22579201792E+03  0.00000000000E+00 0.  1.
         -2    1    1    2    0  502  0.60375102412E+02 -0.24379766257E+02 -0.16103490969E+03  0.17370022491E+03  0.00000000000E+00 0.  1.
<scales pt_clust_5="13000.00000" pt_clust_6="13000.00000" pt_clust_7="13000.00000" pt_clust_8="13000.00000" pt_clust_9="57.28320" pt_clust_10="13000.00000"></scales>
<clustering>
<clus scale="   57.283">  1  9  2 -1</clus>
<clus scale="   79.842">  5  6 -1 -1</clus>
<clus scale="   81.027">  7  8 -1 -1</clus>
<clus scale="   68.464">  7 10 -1 -1</clus>
<clus scale="   86.354">  2  5  1 -1</clus>
<clus scale="   57.283">  1  5  2 -1</clus>
</clustering>
</event>
<event>
10    4  0.2565852E-005  0.7899191E+03  0.7546771E-02  0.1001945E+00
          2   -1    0    0  503    0 -0.00000000000E+00  0.00000000000E+00  0.13504254190E+04  0.13504254190E+04  0.00000000000E+00 0. -1.
         21   -1    0    0  501  502  0.00000000000E+00 -0.00000000000E+00 -0.11517413752E+04  0.11517413752E+04  0.00000000000E+00 0. -1.
         24    2    1    2    0    0  0.13203484122E+03  0.97023014636E+02  0.33285395792E+03  0.37986190002E+03  0.81588241328E+02 0.  0.
         23    2    1    2    0    0 -0.63253117809E+01 -0.26837623359E+02  0.10591237315E+03  0.14211290838E+03  0.90655283057E+02 0.  0.
        -13    1    3    3    0    0  0.94526994634E+02  0.20602940044E+02  0.19826861843E+03  0.22061341506E+03  0.00000000000E+00 0.  1.
         14    1    3    3    0    0  0.37507846582E+02  0.76420074592E+02  0.13458533949E+03  0.15924848496E+03  0.00000000000E+00 0. -1.
        -11    1    4    4    0    0  0.14495484726E+02 -0.33067715325E+02  0.11349157501E+03  0.11909630755E+03  0.00000000000E+00 0.  1.
         11    1    4    4    0    0 -0.20820796507E+02  0.62300919659E+01 -0.75792018582E+01  0.23016600833E+02  0.00000000000E+00 0. -1.
         21    1    1    2  503  502  0.66857126336E+03 -0.13581446366E+02 -0.77293685297E+03  0.10220583978E+04  0.00000000000E+00 0. -1.
          1    1    1    2  501    0 -0.79428079279E+03 -0.56603944911E+02  0.53285456567E+03  0.95813358804E+03  0.00000000000E+00 0. -1.
<scales pt_clust_5="13000.00000" pt_clust_6="13000.00000" pt_clust_7="13000.00000" pt_clust_8="13000.00000" pt_clust_9="685.11726" pt_clust_10="13000.00000"></scales>
<clustering>
<clus scale="   81.588">  5  6 -1 -1</clus>
<clus scale="   90.655">  7  8 -1 -1</clus>
<clus scale="  183.039">  1  5  2 -1</clus>
<clus scale="  685.117">  2  9  1 -1</clus>
<clus scale="   99.378">  7 10 -1 -1</clus>
<clus scale="  685.117">  2  5  1 -1</clus>
</clustering>
</event>
<event>
10    4  0.2565852E-005  0.1756512E+03  0.7546771E-02  0.1189045E+00
         21   -1    0    0  501  502  0.00000000000E+00  0.00000000000E+00  0.30211486639E+02  0.30211486639E+02  0.00000000000E+00 0. -1.
          2   -1    0    0  503    0 -0.00000000000E+00 -0.00000000000E+00 -0.12516925692E+04  0.12516925692E+04  0.00000000000E+00 0. -1.
         24    2    1    2    0    0 -0.15813714394E+02 -0.83383845749E+02 -0.76788337339E+03  0.77678965434E+03  0.80958956657E+02 0.  0.
         23    2    1    2    0    0 -0.44063699488E+01  0.35561304929E+02 -0.31036631980E+03  0.32560134779E+03  0.91678583701E+02 0.  0.
        -13    1    3    3    0    0  0.31013669537E+02 -0.43518624401E+02 -0.28084557955E+03  0.28588451850E+03  0.00000000000E+00 0.  1.
         14    1    3    3    0    0 -0.46827383931E+02 -0.39865221348E+02 -0.48703779384E+03  0.49090513584E+03  0.00000000000E+00 0. -1.
        -11    1    4    4    0    0  0.95315451956E+01  0.61975131615E+02 -0.15169276471E+03  0.16414159180E+03  0.00000000000E+00 0.  1.
         11    1    4    4    0    0 -0.13937915144E+02 -0.26413826687E+02 -0.15867355509E+03  0.16145975599E+03  0.00000000000E+00 0. -1.
         21    1    1    2  503  502 -0.25163277543E+02 -0.14729235705E+02 -0.25795114510E+02  0.38929793908E+02  0.00000000000E+00 0. -1.
          1    1    1    2  501    0  0.45383361886E+02  0.62551776526E+02 -0.11743627481E+03  0.14058325976E+03  0.00000000000E+00 0. -1.
<scales pt_clust_5="13000.00000" pt_clust_6="13000.00000" pt_clust_7="13000.00000" pt_clust_8="13000.00000" pt_clust_9="29.15718" pt_clust_10="13000.00000"></scales>
<clustering>
<clus scale="   29.157">  1  9  2 -1</clus>
<clus scale="   80.959">  5  6 -1 -1</clus>
<clus scale="   91.679">  7  8 -1 -1</clus>
<clus scale="   64.468">  7 10 -1 -1</clus>
<clus scale="  120.000">  2  5  1 -1</clus>
<clus scale="   29.157">  1  5  2 -1</clus>
</clustering>
</event>
<event>
10    4  0.2565852E-005  0.1764519E+03  0.7546771E-02  0.1203451E+00
         21   -1    0    0  503  502  0.00000000000E+00  0.00000000000E+00  0.40137102369E+03  0.40137102369E+03  0.00000000000E+00 0.  1.
         -1   -1    0    0    0  501 -0.00000000000E+00 -0.00000000000E+00 -0.43051836471E+03  0.43051836471E+03  0.00000000000E+00 0.  1.
         24    2    1    2    0    0  0.28125488523E+02  0.13311332988E+02 -0.39458986673E+03  0.40398429289E+03  0.80832612773E+02 0.  0.
         23    2    1    2    0    0 -0.33305582079E+02  0.50400695814E+02  0.16793300674E+03  0.20022072077E+03  0.90759849805E+02 0.  0.
        -13    1    3    3    0    0  0.53159805054E+02  0.18703774271E+02 -0.32462287349E+03  0.32947808127E+03  0.00000000000E+00 0.  1.
         14    1    3    3    0    0 -0.25034316531E+02 -0.53924412837E+01 -0.69966993239E+02  0.74506211621E+02  0.00000000000E+00 0. -1.
        -13    1    4    4    0    0 -0.38572197270E+01  0.67352252214E+02  0.14287495254E+03  0.15800144330E+03  0.00000000000E+00 0.  1.
         13    1    4    4    0    0 -0.29448362352E+02 -0.16951556400E+02  0.25058054199E+02  0.42219277467E+02  0.00000000000E+00 0. -1.
         21    1    1    2  503  501 -0.40133869652E+02 -0.20758868123E+02  0.49375220459E+02  0.66929593562E+02  0.00000000000E+00 0. -1.
         -2    1    1    2    0  502  0.45313963207E+02 -0.42953160678E+02  0.14813429851E+03  0.16075478117E+03  0.00000000000E+00 0.  1.
<scales pt_clust_5="13000.00000" pt_clust_6="13000.00000" pt_clust_7="13000.00000" pt_clust_8="13000.00000" pt_clust_9="45.18471" pt_clust_10="13000.00000"></scales>
<clustering>
<clus scale="   45.185">  1  9  2 -1</clus>
<clus scale="   80.833">  5  6 -1 -1</clus>
<clus scale="   86.395">  2  5  1 -1</clus>
<clus scale="   90.760">  7  8 -1 -1</clus>
<clus scale="   60.114">  7 10 -1 -1</clus>
<clus scale="   45.185">  1  5  2 -1</clus>
</clustering>
</event>
<event>
10    4  0.2565852E-005  0.7670312E+03  0.7546771E-02  0.1028446E+00
         21   -1    0    0  503  502  0.00000000000E+00  0.00000000000E+00  0.15143687567E+03  0.15143687567E+03  0.00000000000E+00 0. -1.
          2   -1    0    0  502    0 -0.00000000000E+00 -0.00000000000E+00 -0.16816013308E+04  0.16816013308E+04  0.00000000000E+00 0. -1.
         24    2    1    2    0    0 -0.18976789893E+02 -0.31011178478E+02 -0.93319657685E+02  0.12890755767E+03  0.81159030111E+02 0.  0.
         23    2    1    2    0    0 -0.28339546028E+03  0.15440215238E+03 -0.10902673523E+04  0.11406919165E+04  0.91335301489E+02 0.  0.
        -13    1    3    3    0    0  0.24052024575E+02 -0.15292728359E+01 -0.25717899791E+01  0.24237422827E+02  0.00000000000E+00 0.  1.
         14    1    3    3    0    0 -0.43028814468E+02 -0.29481905642E+02 -0.90747867706E+02  0.10467013484E+03  0.00000000000E+00 0. -1.
        -13    1    4    4    0    0 -0.18978829406E+03  0.71051970290E+02 -0.55198047931E+03  0.58800546645E+03  0.00000000000E+00 0. -1.
         13    1    4    4    0    0 -0.93607166220E+02  0.83350182094E+02 -0.53828687297E+03  0.55268645002E+03  0.00000000000E+00 0.  1.
         21    1    1    2  503  501 -0.35666868878E+02 -0.85762246351E+02 -0.26992389398E+02  0.96725785188E+02  0.00000000000E+00 0. -1.
          1    1    1    2  501    0  0.33803911905E+03 -0.37628727555E+02 -0.31958505572E+03  0.46671294709E+03  0.00000000000E+00 0. -1.
<scales pt_clust_5="13000.00000" pt_clust_6="13000.00000" pt_clust_7="13000.00000" pt_clust_8="13000.00000" pt_clust_9="94.29832" pt_clust_10="13000.00000"></scales>
<clustering>
<clus scale="   81.159">  5  6 -1 -1</clus>
<clus scale="   88.930">  2  5  1 -1</clus>
<clus scale="   91.335">  7  8 -1 -1</clus>
<clus scale="   94.298">  1  9  2 -1</clus>
<clus scale="  325.859">  7 10 -1 -1</clus>
<clus scale="   94.298">  1  5  2 -1</clus>
</clustering>
</event>
<event>
10    4  0.2565852E-005  0.5121803E+03  0.7546771E-02  0.1073195E+00
         21   -1    0    0  501  502  0.00000000000E+00  0.00000000000E+00  0.21644705347E+03  0.21644705347E+03  0.00000000000E+00 0.  1.
          2   -1    0    0  503    0 -0.00000000000E+00 -0.00000000000E+00 -0.64311522048E+03  0.64311522048E+03  0.00000000000E+00 0. -1.
         24    2    1    2    0    0 -0.19976878550E+02  0.20043834350E+02 -0.24040646140E+03  0.25461350165E+03  0.78942621971E+02 0.  0.
         23    2    1    2    0    0 -0.26498818733E+02  0.24922107383E+03 -0.85471650517E+02  0.27931397871E+03  0.88868243065E+02 0.  0.
        -11    1    3    3    0    0 -0.36065830355E+02 -0.97123825900E+01 -0.57231159647E+02  0.68340911095E+02  0.00000000000E+00 0.  1.
         12    1    3    3    0    0  0.16088951805E+02  0.29756216940E+02 -0.18317530176E+03  0.18627259055E+03  0.00000000000E+00 0. -1.
        -11    1    4    4    0    0  0.90356328827E+01  0.21920009451E+03 -0.69568534320E+02  0.23015235185E+03  0.00000000000E+00 0.  1.
         11    1    4    4    0    0 -0.35534451615E+02  0.30020979327E+02 -0.15903116196E+02  0.49161626866E+02  0.00000000000E+00 0. -1.
         21    1    1    2  503  502  0.16480391733E+02 -0.28464764120E+02  0.34616643967E+02  0.47751001536E+02  0.00000000000E+00 0. -1.
          1    1    1    2  501    0  0.29995305550E+02 -0.24080014406E+03 -0.13540669906E+03  0.27788379206E+03  0.00000000000E+00 0. -1.
<scales pt_clust_5="13000.00000" pt_clust_6="13000.00000" pt_clust_7="13000.00000" pt_clust_8="13000.00000" pt_clust_9="32.89143" pt_clust_10="13000.00000"></scales>
<clustering>
<clus scale="   32.891">  1  9  2 -1</clus>
<clus scale="   78.943">  5  6 -1 -1</clus>
<clus scale="   83.436">  2  5  1 -1</clus>
<clus scale="   88.868">  7  8 -1 -1</clus>
<clus scale="  242.729">  7 10 -1 -1</clus>
<clus scale="   32.891">  1  5  2 -1</clus>
</clustering>
</event>
<event>
10    4  0.2565852E-005  0.5335116E+03  0.7546771E-02  0.1034849E+00
         21   -1    0    0  503  502  0.00000000000E+00  0.00000000000E+00  0.15624767281E+03  0.15624767281E+03  0.00000000000E+00 0. -1.
          2   -1    0    0  502    0 -0.00000000000E+00 -0.00000000000E+00 -0.17426162477E+04  0.17426162477E+04  0.00000000000E+00 0. -1.
         24    2    1    2    0    0 -0.10062720481E+03  0.18601011470E+03 -0.29802353727E+03  0.37424605318E+03  0.80724732530E+02 0.  0.
         23    2    1    2    0    0  0.22290579988E+02  0.13153647494E+03 -0.18396731969E+03  0.24504978182E+03  0.91688094442E+02 0.  0.
        -11    1    3    3    0    0 -0.72296764024E+02  0.56081719124E+02 -0.98227327409E+02  0.13424078798E+03  0.00000000000E+00 0.  1.
         12    1    3    3    0    0 -0.28330440784E+02  0.12992839557E+03 -0.19979620986E+03  0.24000526520E+03  0.00000000000E+00 0. -1.
        -13    1    4    4    0    0  0.32914545738E+02  0.10426679097E+03 -0.75927214979E+02  0.13311601329E+03  0.00000000000E+00 0.  1.
         13    1    4    4    0    0 -0.10623965750E+02  0.27269683970E+02 -0.10804010471E+03  0.11193376853E+03  0.00000000000E+00 0. -1.
         21    1    1    2  503  501 -0.68120376143E+01 -0.25767803921E+02  0.65571270260E+02  0.70781177292E+02  0.00000000000E+00 0. -1.
          1    1    1    2  501    0  0.85148662435E+02 -0.29177878571E+03 -0.11699489882E+04  0.12087869082E+04  0.00000000000E+00 0. -1.
<scales pt_clust_5="13000.00000" pt_clust_6="13000.00000" pt_clust_7="13000.00000" pt_clust_8="13000.00000" pt_clust_9="26.65302" pt_clust_10="13000.00000"></scales>
<clustering>
<clus scale="   26.653">  1  9  2 -1</clus>
<clus scale="   80.725">  5  6 -1 -1</clus>
<clus scale="   91.688">  7  8 -1 -1</clus>
<clus scale="  218.678">  2  5  1 -1</clus>
<clus scale="  146.870">  7 10 -1 -1</clus>
<clus scale="   26.653">  1  5  2 -1</clus>
</clustering>
</event>
<event>
10    4  0.2565852E-005  0.2289692E+03  0.7546771E-02  0.1169828E+00
          2   -1    0    0  502    0 -0.00000000000E+00  0.00000000000E+00  0.88247473038E+03  0.88247473038E+03  0.00000000000E+00 0. -1.
         21   -1    0    0  503  502  0.00000000000E+00 -0.00000000000E+00 -0.43639583231E+02  0.43639583231E+02  0.00000000000E+00 0. -1.
         24    2    1    2    0    0  0.10444296749E+02 -0.43735373202E+01  0.76869850076E+02  0.11171393161E+03  0.80267163287E+02 0.  0.
         23    2    1    2    0    0  0.64284750094E+02 -0.42405632364E+02  0.28237917013E+03  0.30666690738E+03  0.91519558606E+02 0.  0.
        -11    1    3    3    0    0  0.19343720115E+02 -0.25699205855E+02  0.81965253272E+02  0.88050732157E+02  0.00000000000E+00 0.  1.
         12    1    3    3    0    0 -0.88994233660E+01  0.21325668535E+02 -0.50954031957E+01  0.23663199455E+02  0.00000000000E+00 0. -1.
        -11    1    4    4    0    0 -0.22791990071E+02 -0.18948724505E+01  0.42217062383E+02  0.48014015758E+02  0.00000000000E+00 0.  1.
         11    1    4    4    0    0  0.87076740165E+02 -0.40510759914E+02  0.24016210775E+03  0.25865289163E+03  0.00000000000E+00 0. -1.
         21    1    1    2  503  501  0.22955566928E+02  0.22828563457E+02  0.21802836390E+02  0.39031590246E+02  0.00000000000E+00 0. -1.
          1    1    1    2  501    0 -0.97684613771E+02  0.23950606228E+02  0.45778329054E+03  0.46870188437E+03  0.00000000000E+00 0. -1.
<scales pt_clust_5="13000.00000" pt_clust_6="13000.00000" pt_clust_7="13000.00000" pt_clust_8="13000.00000" pt_clust_9="32.37439" pt_clust_10="13000.00000"></scales>
<clustering>
<clus scale="   32.374">  2  9  1 -1</clus>
<clus scale="   80.267">  5  6 -1 -1</clus>
<clus scale="   83.484">  1  5  2 -1</clus>
<clus scale="   91.520">  7  8 -1 -1</clus>
<clus scale="   87.279">  7 10 -1 -1</clus>
<clus scale="   32.374">  2  5  1 -1</clus>
</clustering>
</event>
<event>
10    4  0.2565852E-005  0.3649604E+03  0.7546771E-02  0.1094228E+00
         21   -1    0    0  503  502  0.00000000000E+00  0.00000000000E+00  0.36076061810E+03  0.36076061810E+03  0.00000000000E+00 0. -1.
         -1   -1    0    0    0  501 -0.00000000000E+00 -0.00000000000E+00 -0.27165893096E+03  0.27165893096E+03  0.00000000000E+00 0.  1.
         24    2    1    2    0    0  0.11172771242E+03  0.30344451886E+02  0.38858480199E+02  0.14460060514E+03  0.77430523966E+02 0.  0.
         23    2    1    2    0    0 -0.15361606257E+02  0.14951063472E+02  0.15611829793E+03  0.18156967040E+03  0.90194839166E+02 0.  0.
        -11    1    3    3    0    0  0.71077709120E+02  0.51615552720E+02  0.44334597437E+02  0.98395947814E+02  0.00000000000E+00 0.  1.
         12    1    3    3    0    0  0.40650003302E+02 -0.21271100833E+02 -0.54761172374E+01  0.46204657331E+02  0.00000000000E+00 0. -1.
        -11    1    4    4    0    0  0.24516958096E+02  0.36157651494E+02  0.50961215966E+02  0.67123040222E+02  0.00000000000E+00 0.  1.
         11    1    4    4    0    0 -0.39878564353E+02 -0.21206588022E+02  0.10515708197E+03  0.11444663018E+03  0.00000000000E+00 0. -1.
         21    1    1    2  503  501 -0.72069984437E+02  0.87301921019E+02  0.27623277991E+02  0.11652790892E+03  0.00000000000E+00 0. -1.
         -2    1    1    2    0  502 -0.24296121727E+02 -0.13259743638E+03 -0.13349836898E+03  0.18972136460E+03  0.00000000000E+00 0.  1.
<scales pt_clust_5="13000.00000" pt_clust_6="13000.00000" pt_clust_7="13000.00000" pt_clust_8="13000.00000" pt_clust_9="113.20648" pt_clust_10="13000.00000"></scales>
<clustering>
<clus scale="   77.431">  5  6 -1 -1</clus>
<clus scale="   90.195">  7  8 -1 -1</clus>
<clus scale="  113.206">  1  9  2 -1</clus>
<clus scale="  127.986">  7 10 -1 -1</clus>
<clus scale="  131.376">  2  5  1 -1</clus>
<clus scale="  113.206">  1  5  2 -1</clus>
</clustering>
</event>
<event>
10    4  0.2565852E-005  0.3066277E+03  0.7546771E-02  0.1128656E+00
          2   -1    0    0  503    0 -0.00000000000E+00  0.00000000000E+00  0.20218004083E+03  0.20218004083E+03  0.00000000000E+00 0. -1.
         21   -1    0    0  501  502  0.00000000000E+00 -0.00000000000E+00 -0.29880133479E+03  0.29880133479E+03  0.00000000000E+00 0. -1.
         24    2    1    2    0    0 -0.22939232312E+02 -0.35721558031E+02  0.51315146907E+02  0.10503271339E+03  0.81218153715E+02 0.  0.
         23    2    1    2    0    0  0.11125326675E+03 -0.82803275429E+02 -0.10122808797E+02  0.16791291150E+03  0.94120150907E+02 0.  0.
        -11    1    3    3    0    0 -0.85249611434E+01  0.21061895612E+02 -0.55486551910E+01  0.23389441714E+02  0.00000000000E+00 0.  1.
         12    1    3    3    0    0 -0.14414271168E+02 -0.56783453644E+02  0.56863802098E+02  0.81643271677E+02  0.00000000000E+00 0. -1.
        -11    1    4    4    0    0  0.12501313129E+03 -0.55230237729E+02 -0.10737996048E+02  0.13709108911E+03  0.00000000000E+00 0. -1.
         11    1    4    4    0    0 -0.13759864541E+02 -0.27573037699E+02  0.61518725124E+00  0.30821822391E+02  0.00000000000E+00 0.  1.
         21    1    1    2  503  502 -0.22270521718E+02 -0.44954841727E-01 -0.75455636305E+02  0.78673573764E+02  0.00000000000E+00 0. -1.
          1    1    1    2  501    0 -0.66043512717E+02  0.11856978830E+03 -0.62357995770E+02  0.14936217696E+03  0.00000000000E+00 0. -1.
<scales pt_clust_5="13000.00000" pt_clust_6="13000.00000" pt_clust_7="13000.00000" pt_clust_8="13000.00000" pt_clust_9="22.27057" pt_clust_10="13000.00000"></scales>
<clustering>
<clus scale="   22.271">  2  9  1 -1</clus>
<clus scale="   81.218">  5  6 -1 -1</clus>
<clus scale="   92.358">  1  5  2 -1</clus>
<clus scale="   94.120">  7  8 -1 -1</clus>
<clus scale="  135.831">  7 10 -1 -1</clus>
<clus scale="   22.271">  2  5  1 -1</clus>
</clustering>
</event>
<event>
10    4  0.2565852E-005  0.4032640E+03  0.7546771E-02  0.1087223E+00
         21   -1    0    0  501  502  0.00000000000E+00  0.00000000000E+00  0.59959685616E+02  0.59959685616E+02  0.00000000000E+00 0.  1.
          2   -1    0    0  503    0 -0.00000000000E+00 -0.00000000000E+00 -0.14460559823E+04  0.14460559823E+04  0.00000000000E+00 0. -1.
         24    2    1    2    0    0 -0.11145334237E+02  0.85643890525E+02 -0.15143890471E+03  0.18679135225E+03  0.67068419977E+02 0.  0.
         23    2    1    2    0    0 -0.23927973405E+02  0.55447397765E+02 -0.82513016576E+02  0.13727704371E+03  0.91594907036E+02 0.  0.
        -13    1    3    3    0    0 -0.33763634752E+02  0.77382907086E+02 -0.12683041309E+03  0.15236157989E+03  0.00000000000E+00 0.  1.
         14    1    3    3    0    0  0.22618300515E+02  0.82609834389E+01 -0.24608491613E+02  0.34429772364E+02  0.00000000000E+00 0. -1.
        -11    1    4    4    0    0  0.28503551281E+02  0.23870215319E+02 -0.35172381694E+01  0.37344485260E+02  0.00000000000E+00 0.  1.
         11    1    4    4    0    0 -0.52431524685E+02  0.31577182445E+02 -0.78995778406E+02  0.99932558448E+02  0.00000000000E+00 0. -1.
         21    1    1    2  503  502  0.25548489691E+02  0.30371938913E+02 -0.39031196491E+02  0.55665198269E+02  0.00000000000E+00 0.  1.
          1    1    1    2  501    0  0.95248179507E+01 -0.17146322720E+03 -0.11131131789E+04  0.11262820737E+04  0.00000000000E+00 0. -1.
<scales pt_clust_5="13000.00000" pt_clust_6="13000.00000" pt_clust_7="13000.00000" pt_clust_8="13000.00000" pt_clust_9="39.68854" pt_clust_10="13000.00000"></scales>
<clustering>
<clus scale="   39.689">  1  9  2 -1</clus>
<clus scale="   67.068">  5  6 -1 -1</clus>
<clus scale="   91.595">  7  8 -1 -1</clus>
<clus scale="  117.165">  2  5  1 -1</clus>
<clus scale="   84.455">  7 10 -1 -1</clus>
<clus scale="   39.689">  1  5  2 -1</clus>
</clustering>
</event>
<event>
10    4  0.2565852E-005  0.1168739E+03  0.7546771E-02  0.1266606E+00
          2   -1    0    0  503    0 -0.00000000000E+00  0.00000000000E+00  0.49864909536E+03  0.49864909536E+03  0.00000000000E+00 0. -1.
         21   -1    0    0  501  502  0.00000000000E+00 -0.00000000000E+00 -0.22802744867E+03  0.22802744867E+03  0.00000000000E+00 0.  1.
         24    2    1    2    0    0  0.48750165897E+00  0.12869180807E+02  0.45527809084E+03  0.46254186344E+03  0.80628667101E+02 0.  0.
         23    2    1    2    0    0  0.11057950273E+02 -0.94277021033E+01 -0.40319885992E+02  0.10140755244E+03  0.91905596421E+02 0.  0.
        -13    1    3    3    0    0 -0.20483191200E+02  0.87499144243E+01  0.33538110281E+02  0.40260737269E+02  0.00000000000E+00 0.  1.
         14    1    3    3    0    0  0.20970692859E+02  0.41192663822E+01  0.42173998056E+03  0.42228112617E+03  0.00000000000E+00 0. -1.
        -11    1    4    4    0    0 -0.11620592291E+02  0.37759879534E+02 -0.25402131365E+02  0.46969297903E+02  0.00000000000E+00 0. -1.
         11    1    4    4    0    0  0.22678542564E+02 -0.47187581637E+02 -0.14917754627E+02  0.54438254534E+02  0.00000000000E+00 0.  1.
         21    1    1    2  503  502  0.30346856774E+00 -0.24004928934E+02 -0.13517024194E+03  0.13728555282E+03  0.00000000000E+00 0.  1.
          1    1    1    2  501    0 -0.11848920500E+02  0.20563450231E+02 -0.91663162213E+01  0.25441575334E+02  0.00000000000E+00 0. -1.
<scales pt_clust_5="13000.00000" pt_clust_6="13000.00000" pt_clust_7="13000.00000" pt_clust_8="13000.00000" pt_clust_9="24.00685" pt_clust_10="13000.00000"></scales>
<clustering>
<clus scale="   24.007">  2  9  1 -1</clus>
<clus scale="   80.629">  5  6 -1 -1</clus>
<clus scale="   81.506">  1  5  2 -1</clus>
<clus scale="   91.906">  7  8 -1 -1</clus>
<clus scale="   21.357">  7 10 -1 -1</clus>
<clus scale="   24.007">  2  5  1 -1</clus>
</clustering>
</event>
<event>
10    4  0.2565852E-005  0.2139187E+03  0.7546771E-02  0.1168961E+00
         21   -1    0    0  501  502  0.00000000000E+00  0.00000000000E+00  0.44575816441E+02  0.44575816441E+02  0.00000000000E+00 0.  1.
          2   -1    0    0  503    0 -0.00000000000E+00 -0.00000000000E+00 -0.12144552557E+04  0.12144552557E+04  0.00000000000E+00 0. -1.
         24    2    1    2    0    0  0.36705934138E+02  0.55948360293E+02 -0.20614964311E+03  0.23108977745E+03  0.80170226829E+02 0.  0.
         23    2    1    2    0    0 -0.38524159455E+02 -0.21185470489E+02 -0.38885808307E+03  0.40210804856E+03  0.92451819496E+02 0.  0.
        -11    1    3    3    0    0  0.28226727433E+02  0.76785254437E+02 -0.16612841389E+03  0.18517930052E+03  0.00000000000E+00 0.  1.
         12    1    3    3    0    0  0.84792067047E+01 -0.20836894144E+02 -0.40021229214E+02  0.45910476927E+02  0.00000000000E+00 0. -1.
        -13    1    4    4    0    0 -0.24210806635E+02 -0.50592246104E+02 -0.33036861736E+03  0.33509575029E+03  0.00000000000E+00 0.  1.
         13    1    4    4    0    0 -0.14313352820E+02  0.29406775615E+02 -0.58489465701E+02  0.67012298267E+02  0.00000000000E+00 0. -1.
         21    1    1    2  503  502  0.19257905010E+02  0.10364825747E+03 -0.20481515600E+03  0.23035424092E+03  0.00000000000E+00 0. -1.
          1    1    1    2  501    0 -0.17439679693E+02 -0.13841114728E+03 -0.37005655708E+03  0.39547900520E+03  0.00000000000E+00 0. -1.
<scales pt_clust_5="13000.00000" pt_clust_6="13000.00000" pt_clust_7="13000.00000" pt_clust_8="13000.00000" pt_clust_9="119.04017" pt_clust_10="13000.00000"></scales>
<clustering>
<clus scale="   80.170">  5  6 -1 -1</clus>
<clus scale="   92.452">  7  8 -1 -1</clus>
<clus scale="  104.426">  2  5  1 -1</clus>
<clus scale="  116.954">  7 10 -1 -1</clus>
<clus scale="  119.040">  1  9  2 -1</clus>
<clus scale="  119.040">  1  5  2 -1</clus>
</clustering>
</event>
<event>
10    4  0.2565852E-005  0.1645889E+03  0.7546771E-02  0.1205133E+00
         21   -1    0    0  503  502  0.00000000000E+00  0.00000000000E+00  0.68421505155E+02  0.68421505155E+02  0.00000000000E+00 0. -1.
          2   -1    0    0  502    0 -0.00000000000E+00 -0.00000000000E+00 -0.34352909205E+03  0.34352909205E+03  0.00000000000E+00 0. -1.
         24    2    1    2    0    0  0.61839103451E+02  0.19454604583E+02 -0.16048468960E+03  0.19204905481E+03  0.83216269460E+02 0.  0.
         23    2    1    2    0    0  0.31388825649E+01 -0.19103252799E+02 -0.19703643680E+02  0.94200481967E+02  0.90059482440E+02 0.  0.
        -11    1    3    3    0    0  0.45398612886E+02 -0.23413534779E+02 -0.12156239857E+03  0.13185842563E+03  0.00000000000E+00 0.  1.
         12    1    3    3    0    0  0.16440490564E+02  0.42868139362E+02 -0.38922291024E+02  0.60190629179E+02  0.00000000000E+00 0. -1.
        -13    1    4    4    0    0  0.70590443458E+01 -0.46024733619E+02  0.16069393336E+02  0.49257807645E+02  0.00000000000E+00 0. -1.
         13    1    4    4    0    0 -0.39201617809E+01  0.26921480819E+02 -0.35773037016E+02  0.44942674323E+02  0.00000000000E+00 0.  1.
         21    1    1    2  503  501 -0.13287782974E+02 -0.22213146885E+02 -0.24370590380E+02  0.35551578676E+02  0.00000000000E+00 0. -1.
          1    1    1    2  501    0 -0.51690203042E+02  0.21861795102E+02 -0.70548663234E+02  0.90149481749E+02  0.00000000000E+00 0. -1.
<scales pt_clust_5="13000.00000" pt_clust_6="13000.00000" pt_clust_7="13000.00000" pt_clust_8="13000.00000" pt_clust_9="25.88416" pt_clust_10="13000.00000"></scales>
<clustering>
<clus scale="   25.884">  1  9  2 -1</clus>
<clus scale="   83.216">  5  6 -1 -1</clus>
<clus scale="   90.059">  7  8 -1 -1</clus>
<clus scale="   56.823">  7 10 -1 -1</clus>
<clus scale="  102.664">  2  5  1 -1</clus>
<clus scale="   25.884">  1  5  2 -1</clus>
</clustering>
</event>
<event>
10    4  0.2565852E-005  0.4051672E+03  0.7546771E-02  0.1072326E+00
          2   -1    0    0  503    0 -0.00000000000E+00  0.00000000000E+00  0.13867352856E+04  0.13867352856E+04  0.00000000000E+00 0. -1.
         21   -1    0    0  501  502  0.00000000000E+00 -0.00000000000E+00 -0.77600323319E+02  0.77600323319E+02  0.00000000000E+00 0. -1.
         24    2    1    2    0    0  0.14882776578E+03 -0.36863548446E+02  0.46406442663E+03  0.49681530645E+03  0.89224613073E+02 0.  0.
         23    2    1    2    0    0  0.10059343206E+03  0.82909808251E+00  0.14394482098E+03  0.19752141323E+03  0.90414994440E+02 0.  0.
        -13    1    3    3    0    0  0.10525922007E+03  0.12540690626E+02  0.22298801514E+03  0.24690165498E+03  0.00000000000E+00 0.  1.
         14    1    3    3    0    0  0.43568545711E+02 -0.49404239072E+02  0.24107641149E+03  0.24991365147E+03  0.00000000000E+00 0. -1.
        -13    1    4    4    0    0  0.98291168764E+02  0.31844020776E+02  0.11943654278E+03  0.15792492922E+03  0.00000000000E+00 0. -1.
         13    1    4    4    0    0  0.23022632980E+01 -0.31014922694E+02  0.24508278196E+02  0.39596484012E+02  0.00000000000E+00 0.  1.
         21    1    1    2  503  502 -0.26934439674E+02 -0.19197117292E+02  0.77456756284E+00  0.33084638547E+02  0.00000000000E+00 0. -1.
          1    1    1    2  501    0 -0.22248675817E+03  0.55231567656E+02  0.70035114705E+03  0.73691425065E+03  0.00000000000E+00 0. -1.
<scales pt_clust_5="13000.00000" pt_clust_6="13000.00000" pt_clust_7="13000.00000" pt_clust_8="13000.00000" pt_clust_9="33.07557" pt_clust_10="13000.00000"></scales>
<clustering>
<clus scale="   33.076">  2  9  1 -1</clus>
<clus scale="   89.225">  5  6 -1 -1</clus>
<clus scale="   90.415">  7  8 -1 -1</clus>
<clus scale="  172.592">  1  5  2 -1</clus>
<clus scale="  114.748">  7 10 -1 -1</clus>
<clus scale="   33.076">  2  5  1 -1</clus>
</clustering>
</event>
<event>
10    4  0.2565852E-005  0.1506036E+03  0.7546771E-02  0.1227559E+00
          2   -1    0    0  503    0 -0.00000000000E+00  0.00000000000E+00  0.19371025559E+03  0.19371025559E+03  0.00000000000E+00 0. -1.
         21   -1    0    0  501  502  0.00000000000E+00 -0.00000000000E+00 -0.10999912969E+03  0.10999912969E+03  0.00000000000E+00 0.  1.
         24    2    1    2    0    0  0.78468356766E+01 -0.18897689973E+02 -0.77842448470E+01  0.83314217996E+02  0.80386372826E+02 0.  0.
         23    2    1    2    0    0 -0.56706910365E+02 -0.23768896253E+02  0.69791973389E+02  0.13008270750E+03  0.90939304645E+02 0.  0.
        -11    1    3    3    0    0  0.30562825530E+02 -0.40423940898E+02  0.14082006533E+01  0.50696788174E+02  0.00000000000E+00 0.  1.
         12    1    3    3    0    0 -0.22715989853E+02  0.21526250925E+02 -0.91924455003E+01  0.32617429822E+02  0.00000000000E+00 0. -1.
        -11    1    4    4    0    0 -0.48637550614E+02  0.21768001624E+02  0.95484096498E+01  0.54135287487E+02  0.00000000000E+00 0.  1.
         11    1    4    4    0    0 -0.80693597510E+01 -0.45536897877E+02  0.60243563739E+02  0.75947420016E+02  0.00000000000E+00 0. -1.
         21    1    1    2  503  502  0.20709586284E+02  0.13435560149E+02 -0.20260336803E+02  0.31935599069E+02  0.00000000000E+00 0.  1.
          1    1    1    2  501    0  0.28150488405E+02  0.29231026077E+02  0.41963734160E+02  0.58376860720E+02  0.00000000000E+00 0. -1.
<scales pt_clust_5="13000.00000" pt_clust_6="13000.00000" pt_clust_7="13000.00000" pt_clust_8="13000.00000" pt_clust_9="24.68605" pt_clust_10="13000.00000"></scales>
<clustering>
<clus scale="   24.686">  2  9  1 -1</clus>
<clus scale="   80.386">  5  6 -1 -1</clus>
<clus scale="   83.433">  1  5  2 -1</clus>
<clus scale="   90.939">  7  8 -1 -1</clus>
<clus scale="   45.624">  7 10 -1 -1</clus>
<clus scale="   24.686">  2  5  1 -1</clus>
</clustering>
</event>
<event>
10    4  0.2565852E-005  0.3263639E+03  0.7546771E-02  0.1118563E+00
         21   -1    0    0  501  502  0.00000000000E+00  0.00000000000E+00  0.22322360406E+03  0.22322360406E+03  0.00000000000E+00 0.  1.
          2   -1    0    0  503    0 -0.00000000000E+00 -0.00000000000E+00 -0.50390527690E+03  0.50390527690E+03  0.00000000000E+00 0. -1.
         24    2    1    2    0    0 -0.57624108941E+02 -0.17083570873E+02  0.58573143087E+02  0.11453652155E+03  0.77944950785E+02 0.  0.
         23    2    1    2    0    0  0.23605734045E+02  0.32294241000E+02  0.10043996384E+03  0.14212348383E+03  0.92253724252E+02 0.  0.
        -13    1    3    3    0    0 -0.38883318164E+02 -0.28253650159E+02 -0.40374526633E+01  0.48233621083E+02  0.00000000000E+00 0.  1.
         14    1    3    3    0    0 -0.18740790777E+02  0.11170079286E+02  0.62610595750E+02  0.66302900468E+02  0.00000000000E+00 0. -1.
        -11    1    4    4    0    0  0.20814986168E+02 -0.18859426100E+02  0.83607148567E+02  0.88199188735E+02  0.00000000000E+00 0.  1.
         11    1    4    4    0    0  0.27907478772E+01  0.51153667100E+02  0.16832815271E+02  0.53924295094E+02  0.00000000000E+00 0. -1.
         21    1    1    2  503  502  0.98620856006E+02  0.73941321259E+01 -0.26338162372E+03  0.28133721073E+03  0.00000000000E+00 0. -1.
          1    1    1    2  501    0 -0.64602481109E+02 -0.22604802253E+02 -0.17631315604E+03  0.18913166484E+03  0.00000000000E+00 0. -1.
<scales pt_clust_5="13000.00000" pt_clust_6="13000.00000" pt_clust_7="13000.00000" pt_clust_8="13000.00000" pt_clust_9="65.68724" pt_clust_10="13000.00000"></scales>
<clustering>
<clus scale="   77.945">  5  6 -1 -1</clus>
<clus scale="   92.254">  7  8 -1 -1</clus>
<clus scale="   68.443">  7 10 -1 -1</clus>
<clus scale="   98.427">  2  5  1 -1</clus>
<clus scale="   65.687">  1  9  2 -1</clus>
<clus scale="   65.687">  1  5  2 -1</clus>
</clustering>
</event>
<event>
10    4  0.2565852E-005  0.4709767E+03  0.7546771E-02  0.1056947E+00
          2   -1    0    0  503    0 -0.00000000000E+00  0.00000000000E+00  0.10959435736E+04  0.10959435736E+04  0.00000000000E+00 0. -1.
         21   -1    0    0  501  502  0.00000000000E+00 -0.00000000000E+00 -0.17976502618E+03  0.17976502618E+03  0.00000000000E+00 0. -1.
         24    2    1    2    0    0 -0.13616170889E+03 -0.60333383253E+02  0.71773414211E+03  0.73715998112E+03  0.77989812876E+02 0.  0.
         23    2    1    2    0    0  0.59438669705E+01  0.19379755668E+03  0.20018852960E+03  0.29170782405E+03  0.86169511399E+02 0.  0.
        -13    1    3    3    0    0 -0.15570729116E+02  0.14972511920E+02  0.50146306073E+02  0.54601059799E+02  0.00000000000E+00 0.  1.
         14    1    3    3    0    0 -0.12059097978E+03 -0.75305895173E+02  0.66758783604E+03  0.68255892132E+03  0.00000000000E+00 0. -1.
        -11    1    4    4    0    0 -0.16775649549E+02  0.13987043040E+03  0.90651325844E+02  0.16751961854E+03  0.00000000000E+00 0. -1.
         11    1    4    4    0    0  0.22719516520E+02  0.53927126283E+02  0.10953720376E+03  0.12418820551E+03  0.00000000000E+00 0.  1.
         21    1    1    2  503  502 -0.13416836228E+02  0.19093979525E+02  0.26613170781E+02  0.35395655206E+02  0.00000000000E+00 0. -1.
          1    1    1    2  501    0  0.14363467815E+03 -0.15255815295E+03 -0.28357295076E+02  0.21144513942E+03  0.00000000000E+00 0. -1.
<scales pt_clust_5="13000.00000" pt_clust_6="13000.00000" pt_clust_7="13000.00000" pt_clust_8="13000.00000" pt_clust_9="23.33650" pt_clust_10="13000.00000"></scales>
<clustering>
<clus scale="   23.336">  2  9  1 -1</clus>
<clus scale="   77.990">  5  6 -1 -1</clus>
<clus scale="   86.170">  7  8 -1 -1</clus>
<clus scale="  168.342">  1  5  2 -1</clus>
<clus scale="  183.514">  7 10 -1 -1</clus>
<clus scale="   23.336">  2  5  1 -1</clus>
</clustering>
</event>
<event>
10    4  0.2565852E-005  0.3349984E+03  0.7546771E-02  0.1116795E+00
         -1   -1    0    0    0  501 -0.00000000000E+00  0.00000000000E+00  0.11864399756E+04  0.11864399756E+04  0.00000000000E+00 0.  1.
         21   -1    0    0  503  502  0.00000000000E+00 -0.00000000000E+00 -0.49320747018E+02  0.49320747018E+02  0.00000000000E+00 0.  1.
         24    2    1    2    0    0  0.12463428472E+02 -0.52450297707E+02  0.18246111087E+03  0.20628083224E+03  0.79707929294E+02 0.  0.
         23    2    1    2    0    0 -0.24083244607E+02 -0.95504976135E+02  0.15640165139E+03  0.20591339564E+03  0.90761483081E+02 0.  0.
        -11    1    3    3    0    0  0.45076134648E+02 -0.17818814778E+02  0.85656598468E+02  0.98419616622E+02  0.00000000000E+00 0.  1.
         12    1    3    3    0    0 -0.32612706176E+02 -0.34631482929E+02  0.96804512400E+02  0.10786121562E+03  0.00000000000E+00 0. -1.
        -13    1    4    4    0    0 -0.28881020215E+02  0.75501689697E+01  0.45756393609E+02  0.54633011415E+02  0.00000000000E+00 0. -1.
         13    1    4    4    0    0  0.47977756083E+01 -0.10305514510E+03  0.11064525778E+03  0.15128038423E+03  0.00000000000E+00 0.  1.
         21    1    1    2  503  501  0.36703888202E+02  0.20495010256E+02  0.55972065643E+02  0.70000664189E+02  0.00000000000E+00 0.  1.
         -2    1    1    2    0  502 -0.25084072067E+02  0.12746026359E+03  0.74228440065E+03  0.75356583051E+03  0.00000000000E+00 0.  1.
<scales pt_clust_5="13000.00000" pt_clust_6="13000.00000" pt_clust_7="13000.00000" pt_clust_8="13000.00000" pt_clust_9="42.03833" pt_clust_10="13000.00000"></scales>
<clustering>
<clus scale="   42.038">  2  9  1 -1</clus>
<clus scale="   79.708">  5  6 -1 -1</clus>
<clus scale="   90.761">  7  8 -1 -1</clus>
<clus scale="   95.143">  1  5  2 -1</clus>
<clus scale="   93.131">  7 10 -1 -1</clus>
<clus scale="   42.038">  2  5  1 -1</clus>
</clustering>
</event>
<event>
10    4  0.2565852E-005  0.2668627E+03  0.7546771E-02  0.1151201E+00
         -1   -1    0    0    0  501 -0.00000000000E+00  0.00000000000E+00  0.20542523692E+03  0.20542523692E+03  0.00000000000E+00 0.  1.
         21   -1    0    0  503  502  0.00000000000E+00 -0.00000000000E+00 -0.37945750811E+03  0.37945750811E+03  0.00000000000E+00 0.  1.
         24    2    1    2    0    0  0.42717916384E+02 -0.12211664504E+02 -0.20441510580E+03  0.22439699159E+03  0.81206706795E+02 0.  0.
         23    2    1    2    0    0 -0.69150031838E+02  0.12781218641E+02 -0.81887883944E+02  0.14630166705E+03  0.98759636451E+02 0.  0.
        -13    1    3    3    0    0  0.58917180875E+02  0.73330985516E+01 -0.94614409231E+02  0.11170002225E+03  0.00000000000E+00 0.  1.
         14    1    3    3    0    0 -0.16199264491E+02 -0.19544763056E+02 -0.10980069656E+03  0.11269696934E+03  0.00000000000E+00 0. -1.
        -13    1    4    4    0    0 -0.36459796658E+02  0.43578822796E+02 -0.83916754078E+02  0.10134323946E+03  0.00000000000E+00 0.  1.
         13    1    4    4    0    0 -0.32690235180E+02 -0.30797604155E+02  0.20288701335E+01  0.44958427595E+02  0.00000000000E+00 0. -1.
         21    1    1    2  503  501 -0.76588184608E+02  0.15436035108E+02  0.46669768157E+02  0.91005980360E+02  0.00000000000E+00 0.  1.
         -2    1    1    2    0  502  0.10302030006E+03 -0.16005589245E+02  0.65600950394E+02  0.12317810603E+03  0.00000000000E+00 0.  1.
<scales pt_clust_5="13000.00000" pt_clust_6="13000.00000" pt_clust_7="13000.00000" pt_clust_8="13000.00000" pt_clust_9="78.12827" pt_clust_10="13000.00000"></scales>
<clustering>
<clus scale="   78.128">  2  9  1 -1</clus>
<clus scale="   81.207">  5  6 -1 -1</clus>
<clus scale="   81.325">  1  5  2 -1</clus>
<clus scale="   98.760">  7  8 -1 -1</clus>
<clus scale="   96.390">  7 10 -1 -1</clus>
<clus scale="   78.128">  2  5  1 -1</clus>
</clustering>
</event>
<event>
10    4  0.2565852E-005  0.3060050E+03  0.7546771E-02  0.1131072E+00
          2   -1    0    0  503    0 -0.00000000000E+00  0.00000000000E+00  0.38787388883E+03  0.38787388883E+03  0.00000000000E+00 0. -1.
         21   -1    0    0  501  502  0.00000000000E+00 -0.00000000000E+00 -0.13695169981E+03  0.13695169981E+03  0.00000000000E+00 0. -1.
         24    2    1    2    0    0 -0.40297521172E+02 -0.12152667132E+02 -0.30358751673E+02  0.89827438225E+02  0.73319419827E+02 0.  0.
         23    2    1    2    0    0 -0.57236341246E+02  0.88478640410E+02  0.26048932502E+03  0.29543396679E+03  0.91225389629E+02 0.  0.
        -13    1    3    3    0    0  0.57346607749E+01 -0.33040236784E+02 -0.75672557834E+01  0.34377419057E+02  0.00000000000E+00 0.  1.
         14    1    3    3    0    0 -0.46032181947E+02  0.20887569652E+02 -0.22791495890E+02  0.55450019167E+02  0.00000000000E+00 0. -1.
        -13    1    4    4    0    0 -0.59409506667E+02  0.11323552852E+02  0.91893969262E+02  0.11001006280E+03  0.00000000000E+00 0. -1.
         13    1    4    4    0    0  0.21731654214E+01  0.77155087558E+02  0.16859535576E+03  0.18542390398E+03  0.00000000000E+00 0.  1.
         21    1    1    2  503  502 -0.50933232700E+01 -0.20453269678E+02  0.48757411286E+01  0.21634487144E+02  0.00000000000E+00 0.  1.
          1    1    1    2  501    0  0.10262718569E+03 -0.55872703600E+02  0.15915874541E+02  0.11792969648E+03  0.00000000000E+00 0. -1.
<scales pt_clust_5="13000.00000" pt_clust_6="13000.00000" pt_clust_7="13000.00000" pt_clust_8="13000.00000" pt_clust_9="21.07791" pt_clust_10="13000.00000"></scales>
<clustering>
<clus scale="   21.078">  2  9  1 -1</clus>
<clus scale="   73.319">  5  6 -1 -1</clus>
<clus scale="   87.570">  1  5  2 -1</clus>
<clus scale="   91.225">  7  8 -1 -1</clus>
<clus scale="  114.351">  7 10 -1 -1</clus>
<clus scale="   21.078">  2  5  1 -1</clus>
</clustering>
</event>
<event>
10    4  0.2565852E-005  0.3431753E+03  0.7546771E-02  0.1072354E+00
          2   -1    0    0  502    0 -0.00000000000E+00  0.00000000000E+00  0.19102559349E+04  0.19102559349E+04  0.00000000000E+00 0. -1.
         21   -1    0    0  503  502  0.00000000000E+00 -0.00000000000E+00 -0.20593147683E+03  0.20593147683E+03  0.00000000000E+00 0.  1.
         24    2    1    2    0    0 -0.24519637040E+02 -0.27039625366E+03  0.14139864949E+04  0.14420369158E+04  0.79983198716E+02 0.  0.
         23    2    1    2    0    0  0.33520305631E+02  0.17770502752E+03  0.38583991527E+03  0.43575434962E+03  0.91141238189E+02 0.  0.
        -11    1    3    3    0    0 -0.21379880231E+02 -0.77034604200E+02  0.26183112156E+03  0.27376443476E+03  0.00000000000E+00 0.  1.
         12    1    3    3    0    0 -0.31397568091E+01 -0.19336164946E+03  0.11521553733E+04  0.11682724810E+04  0.00000000000E+00 0. -1.
        -11    1    4    4    0    0  0.57993314559E+02  0.68182596344E+02  0.15245248107E+03  0.17678758430E+03  0.00000000000E+00 0.  1.
         11    1    4    4    0    0 -0.24473008928E+02  0.10952243118E+03  0.23338743420E+03  0.25896676532E+03  0.00000000000E+00 0. -1.
         21    1    1    2  503  501  0.19513768058E+02 -0.60635664512E+01 -0.12875169152E+03  0.13036315450E+03  0.00000000000E+00 0.  1.
          1    1    1    2  501    0 -0.28514436648E+02  0.98754792591E+02  0.33249739424E+02  0.10803299185E+03  0.00000000000E+00 0. -1.
<scales pt_clust_5="13000.00000" pt_clust_6="13000.00000" pt_clust_7="13000.00000" pt_clust_8="13000.00000" pt_clust_9="20.43414" pt_clust_10="13000.00000"></scales>
<clustering>
<clus scale="   20.434">  2  9  1 -1</clus>
<clus scale="   79.983">  5  6 -1 -1</clus>
<clus scale="   91.141">  7  8 -1 -1</clus>
<clus scale="   97.645">  7 10 -1 -1</clus>
<clus scale="  283.819">  1  5  2 -1</clus>
<clus scale="   20.434">  2  5  1 -1</clus>
</clustering>
</event>
<event>
10    4  0.2565852E-005  0.7584543E+03  0.7546771E-02  0.1026464E+00
          2   -1    0    0  502    0 -0.00000000000E+00  0.00000000000E+00  0.66804792744E+03  0.66804792744E+03  0.00000000000E+00 0. -1.
         21   -1    0    0  503  502  0.00000000000E+00 -0.00000000000E+00 -0.35460257602E+03  0.35460257602E+03  0.00000000000E+00 0.  1.
         24    2    1    2    0    0 -0.53099967091E+02 -0.21415925061E+02  0.12474653903E+03  0.15878348755E+03  0.79826365109E+02 0.  0.
         23    2    1    2    0    0  0.18229107839E+03  0.41901981463E+02 -0.22082482300E+03  0.30218698249E+03  0.86991704355E+02 0.  0.
        -13    1    3    3    0    0 -0.46422758787E+02  0.23572082154E+02  0.75906775915E+02  0.92046478587E+02  0.00000000000E+00 0.  1.
         14    1    3    3    0    0 -0.66772083045E+01 -0.44988007215E+02  0.48839763119E+02  0.66737008963E+02  0.00000000000E+00 0. -1.
        -11    1    4    4    0    0  0.23991080445E+02 -0.91807747847E+01 -0.80713080266E+02  0.84702183517E+02  0.00000000000E+00 0. -1.
         11    1    4    4    0    0  0.15829999794E+03  0.51082756248E+02 -0.14011174273E+03  0.21748479898E+03  0.00000000000E+00 0.  1.
         21    1    1    2  503  501  0.21446197250E+02 -0.13032381941E+01 -0.62363704304E+02  0.65961120524E+02  0.00000000000E+00 0.  1.
          1    1    1    2  501    0 -0.15063730855E+03 -0.19182818209E+02  0.47188733969E+03  0.49571891289E+03  0.00000000000E+00 0. -1.
<scales pt_clust_5="13000.00000" pt_clust_6="13000.00000" pt_clust_7="13000.00000" pt_clust_8="13000.00000" pt_clust_9="21.48576" pt_clust_10="13000.00000"></scales>
<clustering>
<clus scale="   21.486">  2  9  1 -1</clus>
<clus scale="   79.826">  5  6 -1 -1</clus>
<clus scale="   86.992">  7  8 -1 -1</clus>
<clus scale="   97.580">  1  5  2 -1</clus>
<clus scale="  200.506">  7 10 -1 -1</clus>
<clus scale="   21.486">  2  5  1 -1</clus>
</clustering>
</event>
<event>
10    4  0.2565852E-005  0.2687863E+03  0.7546771E-02  0.1105672E+00
          2   -1    0    0  502    0 -0.00000000000E+00  0.00000000000E+00  0.12240354887E+04  0.12240354887E+04  0.00000000000E+00 0. -1.
         21   -1    0    0  503  502  0.00000000000E+00 -0.00000000000E+00 -0.11361397056E+03  0.11361397056E+03  0.00000000000E+00 0. -1.
         24    2    1    2    0    0 -0.24104326245E+03 -0.29774586318E+02  0.11601395475E+03  0.28072749032E+03  0.79751525156E+02 0.  0.
         23    2    1    2    0    0  0.92558350140E+02 -0.11347301164E+02  0.44855857872E+03  0.46656153210E+03  0.88198952735E+02 0.  0.
        -13    1    3    3    0    0 -0.69385444250E+02 -0.40826080733E+02  0.17096490868E+02  0.82300660640E+02  0.00000000000E+00 0.  1.
         14    1    3    3    0    0 -0.17165781820E+03  0.11051494415E+02  0.98917463887E+02  0.19842682968E+03  0.00000000000E+00 0. -1.
        -11    1    4    4    0    0  0.10083578313E+03 -0.29618114538E+02  0.40794090502E+03  0.42126104717E+03  0.00000000000E+00 0.  1.
         11    1    4    4    0    0 -0.82774329911E+01  0.18270813374E+02  0.40617673698E+02  0.45300484930E+02  0.00000000000E+00 0. -1.
         21    1    1    2  503  501  0.12834153334E+02  0.16999229747E+02 -0.55478498429E+01  0.22010632469E+02  0.00000000000E+00 0. -1.
          1    1    1    2  501    0  0.13565075897E+03  0.24122657735E+02  0.55139683455E+03  0.56834980442E+03  0.00000000000E+00 0. -1.
<scales pt_clust_5="13000.00000" pt_clust_6="13000.00000" pt_clust_7="13000.00000" pt_clust_8="13000.00000" pt_clust_9="21.29998" pt_clust_10="13000.00000"></scales>
<clustering>
<clus scale="   21.300">  2  9  1 -1</clus>
<clus scale="   79.752">  5  6 -1 -1</clus>
<clus scale="   88.199">  7  8 -1 -1</clus>
<clus scale="  139.110">  7 10 -1 -1</clus>
<clus scale="  244.374">  1  5  2 -1</clus>
<clus scale="   21.300">  2  5  1 -1</clus>
</clustering>
</event>
<event>
10    4  0.2565852E-005  0.4846169E+03  0.7546771E-02  0.1073126E+00
          2   -1    0    0  502    0 -0.00000000000E+00  0.00000000000E+00  0.78157342718E+03  0.78157342718E+03  0.00000000000E+00 0. -1.
         21   -1    0    0  503  502  0.00000000000E+00 -0.00000000000E+00 -0.12425552946E+03  0.12425552946E+03  0.00000000000E+00 0. -1.
         24    2    1    2    0    0  0.21336259854E+02  0.55549298298E+02  0.45624425277E+02  0.11037152072E+03  0.80989652908E+02 0.  0.
         23    2    1    2    0    0 -0.95328680501E+02  0.17524713006E+03  0.16408232290E+03  0.27083128678E+03  0.81409233449E+02 0.  0.
        -11    1    3    3    0    0 -0.75261502382E+00  0.46771634690E+02  0.64738794393E+02  0.79870293228E+02  0.00000000000E+00 0.  1.
         12    1    3    3    0    0  0.22088874878E+02  0.87776636084E+01 -0.19114369116E+02  0.30501227492E+02  0.00000000000E+00 0. -1.
        -11    1    4    4    0    0 -0.76782444073E+02  0.96520182324E+02  0.13970044344E+03  0.18635424119E+03  0.00000000000E+00 0. -1.
         11    1    4    4    0    0 -0.18546236428E+02  0.78726947734E+02  0.24381879465E+02  0.84477045589E+02  0.00000000000E+00 0.  1.
         21    1    1    2  503  501 -0.22685616811E+02 -0.45295934637E+01  0.17126893393E+02  0.28783413702E+02  0.00000000000E+00 0.  1.
          1    1    1    2  501    0  0.96678037458E+02 -0.22626683489E+03  0.43048425615E+03  0.49584273544E+03  0.00000000000E+00 0. -1.
<scales pt_clust_5="13000.00000" pt_clust_6="13000.00000" pt_clust_7="13000.00000" pt_clust_8="13000.00000" pt_clust_9="23.13341" pt_clust_10="13000.00000"></scales>
<clustering>
<clus scale="   23.133">  2  9  1 -1</clus>
<clus scale="   80.990">  5  6 -1 -1</clus>
<clus scale="   81.409">  7  8 -1 -1</clus>
<clus scale="   98.682">  1  5  2 -1</clus>
<clus scale="  216.259">  7 10 -1 -1</clus>
<clus scale="   23.133">  2  5  1 -1</clus>
</clustering>
</event>
<event>
10    4  0.2565852E-005  0.2324298E+03  0.7546771E-02  0.1158781E+00
         21   -1    0    0  503  502  0.00000000000E+00  0.00000000000E+00  0.22789875572E+03  0.22789875572E+03  0.00000000000E+00 0. -1.
          2   -1    0    0  502    0 -0.00000000000E+00 -0.00000000000E+00 -0.25987673970E+03  0.25987673970E+03  0.00000000000E+00 0. -1.
         24    2    1    2    0    0 -0.93663324754E+01 -0.46547776536E+02  0.93451416576E+02  0.13161628230E+03  0.79594313999E+02 0.  0.
         23    2    1    2    0    0 -0.42607866583E+02 -0.35363676015E+02 -0.45335667792E+02  0.11507082292E+03  0.90110774256E+02 0.  0.
        -13    1    3    3    0    0 -0.21103657327E+02  0.16944654663E+02  0.19007924547E+02  0.33072448803E+02  0.00000000000E+00 0.  1.
         14    1    3    3    0    0  0.11737324852E+02 -0.63492431199E+02  0.74443492029E+02  0.98543833494E+02  0.00000000000E+00 0. -1.
        -13    1    4    4    0    0  0.18320691757E+02 -0.35776106532E+02 -0.18916598687E+01  0.40238736587E+02  0.00000000000E+00 0.  1.
         13    1    4    4    0    0 -0.60928558340E+02  0.41243051714E+00 -0.43444007924E+02  0.74832086332E+02  0.00000000000E+00 0. -1.
         21    1    1    2  503  501 -0.24853547026E+00 -0.27545562789E+02  0.53795692676E+02  0.60438368193E+02  0.00000000000E+00 0. -1.
          1    1    1    2  501    0  0.52222734529E+02  0.10945701534E+03 -0.13388942544E+03  0.18065002201E+03  0.00000000000E+00 0. -1.
<scales pt_clust_5="13000.00000" pt_clust_6="13000.00000" pt_clust_7="13000.00000" pt_clust_8="13000.00000" pt_clust_9="27.54668" pt_clust_10="13000.00000"></scales>
<clustering>
<clus scale="   27.547">  1  9  2 -1</clus>
<clus scale="   79.594">  5  6 -1 -1</clus>
<clus scale="   90.111">  7  8 -1 -1</clus>
<clus scale="  103.014">  2  5  1 -1</clus>
<clus scale="   79.209">  7 10 -1 -1</clus>
<clus scale="   27.547">  1  5  2 -1</clus>
</clustering>
</event>
<event>
10    4  0.2565852E-005  0.2816806E+03  0.7546771E-02  0.1115364E+00
          2   -1    0    0  502    0 -0.00000000000E+00  0.00000000000E+00  0.40367431617E+03  0.40367431617E+03  0.00000000000E+00 0. -1.
         21   -1    0    0  503  502  0.00000000000E+00 -0.00000000000E+00 -0.28055874601E+03  0.28055874601E+03  0.00000000000E+00 0. -1.
         24    2    1    2    0    0  0.12055601240E+03  0.97511148599E+02  0.24580564413E+03  0.30142833448E+03  0.79977808867E+02 0.  0.
         23    2    1    2    0    0  0.69672717089E+02 -0.23938951042E+02  0.17827877550E+02  0.11672178578E+03  0.88762498697E+02 0.  0.
        -13    1    3    3    0    0  0.37543691034E+02  0.34718165775E+02  0.24152968668E+02  0.56553034107E+02  0.00000000000E+00 0.  1.
         14    1    3    3    0    0  0.83012321365E+02  0.62792982823E+02  0.22165267546E+03  0.24487530037E+03  0.00000000000E+00 0. -1.
        -13    1    4    4    0    0 -0.15851360352E+02  0.13487874044E+02 -0.31194154194E+01  0.21045643820E+02  0.00000000000E+00 0.  1.
         13    1    4    4    0    0  0.85524077441E+02 -0.37426825086E+02  0.20947292969E+02  0.95676141963E+02  0.00000000000E+00 0. -1.
         21    1    1    2  503  501 -0.62231735399E+02 -0.17115716697E+02 -0.10247644472E+03  0.12110804421E+03  0.00000000000E+00 0. -1.
          1    1    1    2  501    0 -0.12799699409E+03 -0.56456480860E+02 -0.38041506797E+02  0.14497489771E+03  0.00000000000E+00 0. -1.
<scales pt_clust_5="13000.00000" pt_clust_6="13000.00000" pt_clust_7="13000.00000" pt_clust_8="13000.00000" pt_clust_9="64.54252" pt_clust_10="13000.00000"></scales>
<clustering>
<clus scale="   64.543">  2  9  1 -1</clus>
<clus scale="   79.978">  5  6 -1 -1</clus>
<clus scale="   88.762">  7  8 -1 -1</clus>
<clus scale="  165.919">  1  5  2 -1</clus>
<clus scale="   99.222">  7 10 -1 -1</clus>
<clus scale="   64.543">  2  5  1 -1</clus>
</clustering>
</event>
<event>
10    4  0.2565852E-005  0.3229677E+03  0.7546771E-02  0.1108783E+00
         21   -1    0    0  501  502  0.00000000000E+00  0.00000000000E+00  0.42799760882E+03  0.42799760882E+03  0.00000000000E+00 0. -1.
          2   -1    0    0  503    0 -0.00000000000E+00 -0.00000000000E+00 -0.18084139271E+03  0.18084139271E+03  0.00000000000E+00 0. -1.
         24    2    1    2    0    0 -0.96540486611E+02 -0.23986438232E+02 -0.59310134083E+02  0.14208346130E+03  0.82307977714E+02 0.  0.
         23    2    1    2    0    0 -0.40669027428E+02  0.27631340245E+02 -0.18548307609E+01  0.10436867139E+03  0.92043024798E+02 0.  0.
        -13    1    3    3    0    0 -0.28380888579E+02 -0.18022419036E+02  0.18578252303E+02  0.38411377000E+02  0.00000000000E+00 0.  1.
         14    1    3    3    0    0 -0.68159598032E+02 -0.59640191953E+01 -0.77888386386E+02  0.10367208430E+03  0.00000000000E+00 0. -1.
        -13    1    4    4    0    0  0.10381775931E+02  0.28009733378E+02 -0.33042761264E+02  0.44543804365E+02  0.00000000000E+00 0.  1.
         13    1    4    4    0    0 -0.51050803358E+02 -0.37839313280E+00  0.31187930503E+02  0.59824867020E+02  0.00000000000E+00 0. -1.
         21    1    1    2  503  502 -0.16164571131E+02  0.13609017673E+02  0.44912089237E+01  0.21602538727E+02  0.00000000000E+00 0. -1.
          1    1    1    2  501    0  0.15337408517E+03 -0.17253919686E+02  0.30382997204E+03  0.34078433012E+03  0.00000000000E+00 0. -1.
<scales pt_clust_5="13000.00000" pt_clust_6="13000.00000" pt_clust_7="13000.00000" pt_clust_8="13000.00000" pt_clust_9="21.13053" pt_clust_10="13000.00000"></scales>
<clustering>
<clus scale="   21.131">  1  9  2 -1</clus>
<clus scale="   82.308">  5  6 -1 -1</clus>
<clus scale="   92.043">  7  8 -1 -1</clus>
<clus scale="  130.079">  2  5  1 -1</clus>
<clus scale="  115.318">  7 10 -1 -1</clus>
<clus scale="   21.131">  1  5  2 -1</clus>
</clustering>
</event>
<event>
10    4  0.2565852E-005  0.3051728E+03  0.7546771E-02  0.1129751E+00
         21   -1    0    0  501  502  0.00000000000E+00  0.00000000000E+00  0.86267850540E+02  0.86267850540E+02  0.00000000000E+00 0. -1.
          2   -1    0    0  503    0 -0.00000000000E+00 -0.00000000000E+00 -0.72169296959E+03  0.72169296959E+03  0.00000000000E+00 0. -1.
         24    2    1    2    0    0 -0.33714975459E+02 -0.10022796578E+02 -0.30408749044E+03  0.31708563557E+03  0.82685805432E+02 0.  0.
         23    2    1    2    0    0  0.24596052991E+01  0.11877475367E+03 -0.20111923262E+03  0.25141215110E+03  0.92981891909E+02 0.  0.
        -11    1    3    3    0    0 -0.13930562255E+02 -0.43796837925E+02 -0.11222419767E+03  0.12127033487E+03  0.00000000000E+00 0.  1.
         12    1    3    3    0    0 -0.19784413204E+02  0.33774041346E+02 -0.19186329277E+03  0.19581530069E+03  0.00000000000E+00 0. -1.
        -11    1    4    4    0    0 -0.25838945469E+02  0.13792944541E+02 -0.95262191111E+02  0.99663340690E+02  0.00000000000E+00 0.  1.
         11    1    4    4    0    0  0.28298550768E+02  0.10498180913E+03 -0.10585704151E+03  0.15174881041E+03  0.00000000000E+00 0. -1.
         21    1    1    2  503  502 -0.44972183459E+02  0.19780939135E+02 -0.48968181800E+02  0.69366170912E+02  0.00000000000E+00 0. -1.
          1    1    1    2  501    0  0.76227553619E+02 -0.12853289623E+03 -0.81250214188E+02  0.17009686255E+03  0.00000000000E+00 0. -1.
<scales pt_clust_5="13000.00000" pt_clust_6="13000.00000" pt_clust_7="13000.00000" pt_clust_8="13000.00000" pt_clust_9="49.13026" pt_clust_10="13000.00000"></scales>
<clustering>
<clus scale="   49.130">  1  9  2 -1</clus>
<clus scale="   82.686">  5  6 -1 -1</clus>
<clus scale="   91.197">  2  5  1 -1</clus>
<clus scale="   92.982">  7  8 -1 -1</clus>
<clus scale="  125.495">  7 10 -1 -1</clus>
<clus scale="   49.130">  1  5  2 -1</clus>
</clustering>
</event>
<event>
10    4  0.2565852E-005  0.2054580E+03  0.7546771E-02  0.1177314E+00
          4   -1    0    0  503    0 -0.00000000000E+00  0.00000000000E+00  0.16912569556E+03  0.16912569556E+03  0.00000000000E+00 0. -1.
         21   -1    0    0  501  502  0.00000000000E+00 -0.00000000000E+00 -0.17424231425E+03  0.17424231425E+03  0.00000000000E+00 0. -1.
         24    2    1    2    0    0 -0.47012128692E+02  0.27901031108E+02 -0.17199796353E+02  0.98378145448E+02  0.79961357706E+02 0.  0.
         23    2    1    2    0    0  0.74470765724E+01  0.73503745149E+02  0.33461497831E+02  0.11779392107E+03  0.85425268528E+02 0.  0.
        -13    1    3    3    0    0 -0.12886589048E+02  0.52069901187E+02 -0.13498292970E+01  0.53657812349E+02  0.00000000000E+00 0.  1.
         14    1    3    3    0    0 -0.34125539644E+02 -0.24168870078E+02 -0.15849967056E+02  0.44720333099E+02  0.00000000000E+00 0. -1.
        -13    1    4    4    0    0 -0.34761245583E+02  0.92014462916E+01  0.12530931117E+02  0.38079325664E+02  0.00000000000E+00 0.  1.
         13    1    4    4    0    0  0.42208322155E+02  0.64302298857E+02  0.20930566714E+02  0.79714595404E+02  0.00000000000E+00 0. -1.
         21    1    1    2  503  502 -0.16367013510E+02 -0.30187285865E+02 -0.10946916511E+02  0.36041453082E+02  0.00000000000E+00 0. -1.
          3    1    1    2  501    0  0.55932065630E+02 -0.71217490392E+02 -0.10431403652E+02  0.91154490211E+02  0.00000000000E+00 0. -1.
<scales pt_clust_5="13000.00000" pt_clust_6="13000.00000" pt_clust_7="13000.00000" pt_clust_8="13000.00000" pt_clust_9="34.33877" pt_clust_10="13000.00000"></scales>
<clustering>
<clus scale="   34.339">  2  9  1 -1</clus>
<clus scale="   79.961">  5  6 -1 -1</clus>
<clus scale="   85.425">  7  8 -1 -1</clus>
<clus scale="   95.740">  7 10 -1 -1</clus>
<clus scale="   97.467">  1  5  2 -1</clus>
<clus scale="   34.339">  2  5  1 -1</clus>
</clustering>
</event>
<event>
10    4  0.2565852E-005  0.1362806E+03  0.7546771E-02  0.1238991E+00
          2   -1    0    0  503    0 -0.00000000000E+00  0.00000000000E+00  0.64041719293E+03  0.64041719293E+03  0.00000000000E+00 0. -1.
         21   -1    0    0  501  502  0.00000000000E+00 -0.00000000000E+00 -0.49599361387E+02  0.49599361387E+02  0.00000000000E+00 0. -1.
         24    2    1    2    0    0  0.18753569279E+02  0.20415488286E+02  0.48507533232E+02  0.94066351149E+02  0.75677005197E+02 0.  0.
         23    2    1    2    0    0 -0.47632520511E+02  0.74228884685E+01  0.39587881560E+03  0.40902186838E+03  0.90856457617E+02 0.  0.
        -11    1    3    3    0    0 -0.30099560473E+01 -0.24762087133E+02  0.33413514520E+02  0.41697526871E+02  0.00000000000E+00 0.  1.
         12    1    3    3    0    0  0.21763525327E+02  0.45177575419E+02  0.15094018712E+02  0.52368824278E+02  0.00000000000E+00 0. -1.
        -11    1    4    4    0    0 -0.83212523843E+01  0.46524830542E+02  0.17143930654E+03  0.17783486420E+03  0.00000000000E+00 0. -1.
         11    1    4    4    0    0 -0.39311268127E+02 -0.39101942074E+02  0.22443950906E+03  0.23118700418E+03  0.00000000000E+00 0.  1.
         21    1    1    2  503  502  0.27649434938E+02  0.82651836724E+01 -0.66730238000E+01  0.29619820394E+02  0.00000000000E+00 0. -1.
          1    1    1    2  501    0  0.12295162930E+01 -0.36103560427E+02  0.15310450651E+03  0.15730851439E+03  0.00000000000E+00 0. -1.
<scales pt_clust_5="13000.00000" pt_clust_6="13000.00000" pt_clust_7="13000.00000" pt_clust_8="13000.00000" pt_clust_9="28.85835" pt_clust_10="13000.00000"></scales>
<clustering>
<clus scale="   28.858">  2  9  1 -1</clus>
<clus scale="   75.677">  5  6 -1 -1</clus>
<clus scale="   89.038">  1  5  2 -1</clus>
<clus scale="   90.856">  7  8 -1 -1</clus>
<clus scale="   31.403">  7 10 -1 -1</clus>
<clus scale="   28.858">  2  5  1 -1</clus>
</clustering>
</event>
<event>
10    4  0.2565852E-005  0.5074207E+03  0.7546771E-02  0.1066948E+00
         21   -1    0    0  501  502  0.00000000000E+00  0.00000000000E+00  0.52734999367E+02  0.52734999367E+02  0.00000000000E+00 0. -1.
          2   -1    0    0  503    0 -0.00000000000E+00 -0.00000000000E+00 -0.21492983899E+04  0.21492983899E+04  0.00000000000E+00 0. -1.
         24    2    1    2    0    0  0.55142096272E+02  0.16745266197E+02 -0.63071802865E+03  0.63910558814E+03  0.85613470894E+02 0.  0.
         23    2    1    2    0    0  0.19533978309E+03 -0.10607182479E+03 -0.85479840913E+03  0.88806856459E+03  0.92609893026E+02 0.  0.
        -11    1    3    3    0    0 -0.22731391207E+02  0.18328553791E+01 -0.10551837467E+03  0.10795463352E+03  0.00000000000E+00 0.  1.
         12    1    3    3    0    0  0.77873487479E+02  0.14912410818E+02 -0.52519965398E+03  0.53115095462E+03  0.00000000000E+00 0. -1.
        -11    1    4    4    0    0  0.15474493593E+03 -0.11790952766E+03 -0.63099672686E+03  0.66030714157E+03  0.00000000000E+00 0. -1.
         11    1    4    4    0    0  0.40594847156E+02  0.11837702870E+02 -0.22380168228E+03  0.22776142302E+03  0.00000000000E+00 0.  1.
         21    1    1    2  503  502 -0.22840792716E+02 -0.21193687840E+02 -0.44051769545E+02  0.53957692837E+02  0.00000000000E+00 0. -1.
          1    1    1    2  501    0 -0.22764108664E+03  0.11052024643E+03 -0.56699518319E+03  0.62090154370E+03  0.00000000000E+00 0. -1.
<scales pt_clust_5="13000.00000" pt_clust_6="13000.00000" pt_clust_7="13000.00000" pt_clust_8="13000.00000" pt_clust_9="31.15885" pt_clust_10="13000.00000"></scales>
<clustering>
<clus scale="   31.159">  1  9  2 -1</clus>
<clus scale="   85.613">  5  6 -1 -1</clus>
<clus scale="   92.610">  7  8 -1 -1</clus>
<clus scale="  101.857">  2  5  1 -1</clus>
<clus scale="  241.736">  7 10 -1 -1</clus>
<clus scale="   31.159">  1  5  2 -1</clus>
</clustering>
</event>
<event>
10    4  0.2565852E-005  0.6074838E+03  0.7546771E-02  0.1039815E+00
          2   -1    0    0  502    0 -0.00000000000E+00  0.00000000000E+00  0.71173253283E+03  0.71173253283E+03  0.00000000000E+00 0. -1.
         21   -1    0    0  503  502  0.00000000000E+00 -0.00000000000E+00 -0.41716376301E+03  0.41716376301E+03  0.00000000000E+00 0. -1.
         24    2    1    2    0    0  0.92650023347E+02  0.14192256899E+02  0.15658512718E+03  0.19925962040E+03  0.80000295548E+02 0.  0.
         23    2    1    2    0    0 -0.10295842113E+03  0.16158827688E+03 -0.80680007630E+02  0.22767037587E+03  0.92808020730E+02 0.  0.
        -11    1    3    3    0    0  0.58140663684E+02 -0.21959791867E+02  0.44204614820E+02  0.76266750316E+02  0.00000000000E+00 0.  1.
         12    1    3    3    0    0  0.34509359663E+02  0.36152048766E+02  0.11238051236E+03  0.12299287009E+03  0.00000000000E+00 0. -1.
        -11    1    4    4    0    0 -0.29053420720E+02  0.11100021255E+03 -0.13123473685E+02  0.11548754912E+03  0.00000000000E+00 0.  1.
         11    1    4    4    0    0 -0.73905000408E+02  0.50588064330E+02 -0.67556533945E+02  0.11218282675E+03  0.00000000000E+00 0. -1.
         21    1    1    2  503  501  0.53518235863E+02  0.43254840156E+02 -0.20872683000E+03  0.21977732442E+03  0.00000000000E+00 0. -1.
          1    1    1    2  501    0 -0.43209838082E+02 -0.21903537393E+03  0.42739048026E+03  0.48218897515E+03  0.00000000000E+00 0. -1.
<scales pt_clust_5="13000.00000" pt_clust_6="13000.00000" pt_clust_7="13000.00000" pt_clust_8="13000.00000" pt_clust_9="68.81266" pt_clust_10="13000.00000"></scales>
<clustering>
<clus scale="   68.813">  2  9  1 -1</clus>
<clus scale="   80.000">  5  6 -1 -1</clus>
<clus scale="   92.808">  7  8 -1 -1</clus>
<clus scale="  128.101">  1  5  2 -1</clus>
<clus scale="  202.815">  7 10 -1 -1</clus>
<clus scale="   68.813">  2  5  1 -1</clus>
</clustering>
</event>
<event>
10    4  0.2565852E-005  0.2396887E+03  0.7546771E-02  0.1149811E+00
          2   -1    0    0  502    0 -0.00000000000E+00  0.00000000000E+00  0.77647485282E+03  0.77647485282E+03  0.00000000000E+00 0. -1.
         21   -1    0    0  503  502  0.00000000000E+00 -0.00000000000E+00 -0.55141532800E+02  0.55141532800E+02  0.00000000000E+00 0. -1.
         24    2    1    2    0    0  0.96690464206E+02 -0.33853332587E+01  0.29583195786E+03  0.32103350876E+03  0.78647696113E+02 0.  0.
         23    2    1    2    0    0  0.16656967059E+02  0.16342628189E+02  0.34291464191E+03  0.35586947090E+03  0.92239322605E+02 0.  0.
        -11    1    3    3    0    0  0.36881692587E+02 -0.89496324641E+01  0.22492438832E+03  0.22810378258E+03  0.00000000000E+00 0.  1.
         12    1    3    3    0    0  0.59808771619E+02  0.55642992053E+01  0.70907569547E+02  0.92929726177E+02  0.00000000000E+00 0. -1.
        -13    1    4    4    0    0  0.55027033696E+02  0.91460569011E+01  0.21597440054E+03  0.22306179970E+03  0.00000000000E+00 0. -1.
         13    1    4    4    0    0 -0.38370066637E+02  0.71965712880E+01  0.12694024137E+03  0.13280767121E+03  0.00000000000E+00 0.  1.
         21    1    1    2  503  501 -0.44405436631E+02 -0.23498029496E+02  0.66140127984E+02  0.83057309867E+02  0.00000000000E+00 0. -1.
          1    1    1    2  501    0 -0.68941994634E+02  0.10540734566E+02  0.16446592254E+02  0.71656096084E+02  0.00000000000E+00 0. -1.
<scales pt_clust_5="13000.00000" pt_clust_6="13000.00000" pt_clust_7="13000.00000" pt_clust_8="13000.00000" pt_clust_9="50.23943" pt_clust_10="13000.00000"></scales>
<clustering>
<clus scale="   50.239">  2  9  1 -1</clus>
<clus scale="   78.648">  5  6 -1 -1</clus>
<clus scale="   92.239">  7  8 -1 -1</clus>
<clus scale="   95.259">  7 10 -1 -1</clus>
<clus scale="  115.995">  1  5  2 -1</clus>
<clus scale="   50.239">  2  5  1 -1</clus>
</clustering>
</event>
<event>
10    4  0.2565852E-005  0.5199697E+03  0.7546771E-02  0.1010100E+00
         21   -1    0    0  501  502  0.00000000000E+00  0.00000000000E+00  0.41305518096E+03  0.41305518096E+03  0.00000000000E+00 0.  1.
          2   -1    0    0  503    0 -0.00000000000E+00 -0.00000000000E+00 -0.11852245253E+04  0.11852245253E+04  0.00000000000E+00 0. -1.
         24    2    1    2    0    0 -0.48658319528E+03  0.18963909139E+02 -0.70935742124E+03  0.86447298215E+03  0.83682435560E+02 0.  0.
         23    2    1    2    0    0  0.26516421392E+03  0.29973757703E+02 -0.10109813224E+03  0.29901480734E+03  0.89322652072E+02 0.  0.
        -13    1    3    3    0    0 -0.31859290583E+03  0.42440286669E+02 -0.41724764596E+03  0.52668606934E+03  0.00000000000E+00 0.  1.
         14    1    3    3    0    0 -0.16799028944E+03 -0.23476377530E+02 -0.29210977528E+03  0.33778691281E+03  0.00000000000E+00 0. -1.
        -13    1    4    4    0    0  0.12750156238E+03 -0.82184164816E+01 -0.70212245255E+01  0.12795893237E+03  0.00000000000E+00 0.  1.
         13    1    4    4    0    0  0.13766265154E+03  0.38192174185E+02 -0.94076907718E+02  0.17105587497E+03  0.00000000000E+00 0. -1.
         21    1    1    2  503  502 -0.10791878215E+02  0.34260658313E+02  0.15699243386E+03  0.16104931429E+03  0.00000000000E+00 0.  1.
          1    1    1    2  501    0  0.23221085957E+03 -0.83198325156E+02 -0.11870622468E+03  0.27374260244E+03  0.00000000000E+00 0. -1.
<scales pt_clust_5="13000.00000" pt_clust_6="13000.00000" pt_clust_7="13000.00000" pt_clust_8="13000.00000" pt_clust_9="35.92015" pt_clust_10="13000.00000"></scales>
<clustering>
<clus scale="   35.920">  1  9  2 -1</clus>
<clus scale="   83.682">  5  6 -1 -1</clus>
<clus scale="   89.323">  7  8 -1 -1</clus>
<clus scale="  240.198">  7 10 -1 -1</clus>
<clus scale="  497.844">  2  5  1 -1</clus>
<clus scale="   35.920">  1  5  2 -1</clus>
</clustering>
</event>
<event>
10    4  0.2565852E-005  0.4641188E+03  0.7546771E-02  0.1060173E+00
          2   -1    0    0  503    0 -0.00000000000E+00  0.00000000000E+00  0.89194556904E+03  0.89194556904E+03  0.00000000000E+00 0. -1.
         21   -1    0    0  501  502  0.00000000000E+00 -0.00000000000E+00 -0.16399962909E+03  0.16399962909E+03  0.00000000000E+00 0. -1.
         24    2    1    2    0    0 -0.14296191448E+03 -0.65702523740E+02  0.82071917963E+02  0.19463335178E+03  0.79946302546E+02 0.  0.
         23    2    1    2    0    0  0.53238906458E+02  0.13416144608E+03  0.43456319079E+02  0.17542333707E+03  0.89728594918E+02 0.  0.
        -11    1    3    3    0    0 -0.16734202505E+02  0.13956915083E+02 -0.42597415048E+01  0.22203027042E+02  0.00000000000E+00 0.  1.
         12    1    3    3    0    0 -0.12622771197E+03 -0.79659438823E+02  0.86331659467E+02  0.17243032474E+03  0.00000000000E+00 0. -1.
        -11    1    4    4    0    0  0.25382230512E+02  0.32970139658E+02 -0.26462734149E+02  0.49310891631E+02  0.00000000000E+00 0.  1.
         11    1    4    4    0    0  0.27856675946E+02  0.10119130643E+03  0.69919053229E+02  0.12611244544E+03  0.00000000000E+00 0. -1.
         21    1    1    2  503  502  0.33452240774E+02  0.24393972344E+02 -0.25518900189E+02  0.48634684808E+02  0.00000000000E+00 0. -1.
          1    1    1    2  501    0  0.56270767246E+02 -0.92852894688E+02  0.62793660310E+03  0.63725382447E+03  0.00000000000E+00 0. -1.
<scales pt_clust_5="13000.00000" pt_clust_6="13000.00000" pt_clust_7="13000.00000" pt_clust_8="13000.00000" pt_clust_9="41.40191" pt_clust_10="13000.00000"></scales>
<clustering>
<clus scale="   41.402">  2  9  1 -1</clus>
<clus scale="   79.946">  5  6 -1 -1</clus>
<clus scale="   89.729">  7  8 -1 -1</clus>
<clus scale="  108.454">  7 10 -1 -1</clus>
<clus scale="  160.688">  1  5  2 -1</clus>
<clus scale="   41.402">  2  5  1 -1</clus>
</clustering>
</event>
<event>
10    4  0.2565852E-005  0.3535244E+03  0.7546771E-02  0.1071275E+00
         -3   -1    0    0    0  501 -0.00000000000E+00  0.00000000000E+00  0.12371907448E+04  0.12371907448E+04  0.00000000000E+00 0.  1.
         21   -1    0    0  501  502  0.00000000000E+00 -0.00000000000E+00 -0.11586875325E+03  0.11586875325E+03  0.00000000000E+00 0.  1.
         24    2    1    2    0    0  0.22820828632E+03  0.18791606158E+03  0.37991472915E+03  0.48828452096E+03  0.81823614205E+02 0.  0.
         23    2    1    2    0    0  0.21208839085E+02 -0.18828876975E+02  0.13658433244E+03  0.16693236333E+03  0.91688563044E+02 0.  0.
        -13    1    3    3    0    0  0.16860686820E+03  0.17870680748E+03  0.29103072294E+03  0.38087173791E+03  0.00000000000E+00 0.  1.
         14    1    3    3    0    0  0.59601418115E+02  0.92092540983E+01  0.88884006210E+02  0.10741278305E+03  0.00000000000E+00 0. -1.
        -13    1    4    4    0    0  0.45662465649E+02 -0.21860660561E+02  0.13264626937E+03  0.14197880838E+03  0.00000000000E+00 0.  1.
         13    1    4    4    0    0 -0.24453626564E+02  0.30317835865E+01  0.39380630698E+01  0.24953554949E+02  0.00000000000E+00 0. -1.
         21    1    1    2  503  502 -0.69984667132E+02 -0.25319467483E+02  0.32783166502E+02  0.81324443269E+02  0.00000000000E+00 0.  1.
         -4    1    1    2    0  503 -0.17943245827E+03 -0.14376771712E+03  0.57203976351E+03  0.61651817054E+03  0.00000000000E+00 0.  1.
<scales pt_clust_5="13000.00000" pt_clust_6="13000.00000" pt_clust_7="13000.00000" pt_clust_8="13000.00000" pt_clust_9="74.42398" pt_clust_10="13000.00000"></scales>
<clustering>
<clus scale="   74.424">  2  9  1 -1</clus>
<clus scale="   81.824">  5  6 -1 -1</clus>
<clus scale="   91.689">  7  8 -1 -1</clus>
<clus scale="  247.097">  7 10 -1 -1</clus>
<clus scale="  267.396">  1  5  2 -1</clus>
<clus scale="   74.424">  2  5  1 -1</clus>
</clustering>
</event>
<event>
10    4  0.2565852E-005  0.3136373E+03  0.7546771E-02  0.1107647E+00
          2   -1    0    0  503    0 -0.00000000000E+00  0.00000000000E+00  0.21903337909E+04  0.21903337909E+04  0.00000000000E+00 0. -1.
         21   -1    0    0  501  502  0.00000000000E+00 -0.00000000000E+00 -0.11750212213E+03  0.11750212213E+03  0.00000000000E+00 0. -1.
         24    2    1    2    0    0 -0.89264471993E+02 -0.75346355890E+02  0.16547008101E+04  0.16609402893E+04  0.83920525939E+02 0.  0.
         23    2    1    2    0    0  0.52966799411E+02  0.11756904952E+02  0.11745492778E+02  0.10355435614E+03  0.87417626493E+02 0.  0.
        -13    1    3    3    0    0 -0.42997387221E+02 -0.26117388006E+02  0.27350921097E+03  0.27809743211E+03  0.00000000000E+00 0.  1.
         14    1    3    3    0    0 -0.46267084772E+02 -0.49228967884E+02  0.13811915991E+04  0.13828428572E+04  0.00000000000E+00 0. -1.
        -11    1    4    4    0    0 -0.22589905299E+02  0.12472130460E+02  0.10840559554E+02  0.27988847620E+02  0.00000000000E+00 0.  1.
         11    1    4    4    0    0  0.75556704710E+02 -0.71522550750E+00  0.90493322413E+00  0.75565508523E+02  0.00000000000E+00 0. -1.
         21    1    1    2  503  502 -0.28331271755E+01 -0.86545576806E+02 -0.20628148114E+02  0.89015077200E+02  0.00000000000E+00 0. -1.
          1    1    1    2  501    0  0.39130799757E+02  0.15013502774E+03  0.42701351403E+03  0.45432619032E+03  0.00000000000E+00 0. -1.
<scales pt_clust_5="13000.00000" pt_clust_6="13000.00000" pt_clust_7="13000.00000" pt_clust_8="13000.00000" pt_clust_9="86.59194" pt_clust_10="13000.00000"></scales>
<clustering>
<clus scale="   83.921">  5  6 -1 -1</clus>
<clus scale="   86.592">  2  9  1 -1</clus>
<clus scale="   87.418">  7  8 -1 -1</clus>
<clus scale="  136.812">  7 10 -1 -1</clus>
<clus scale="  146.222">  1  5  2 -1</clus>
<clus scale="   86.592">  2  5  1 -1</clus>
</clustering>
</event>
<event>
10    4  0.2565852E-005  0.3495970E+03  0.7546771E-02  0.1098846E+00
          2   -1    0    0  502    0 -0.00000000000E+00  0.00000000000E+00  0.10063565831E+04  0.10063565831E+04  0.00000000000E+00 0. -1.
         21   -1    0    0  503  502  0.00000000000E+00 -0.00000000000E+00 -0.20161126993E+03  0.20161126993E+03  0.00000000000E+00 0. -1.
         24    2    1    2    0    0 -0.13832765943E+03  0.23352073987E+02  0.26545531627E+03  0.31086960352E+03  0.80582409606E+02 0.  0.
         23    2    1    2    0    0 -0.13483968874E+03 -0.13916396234E+02  0.42910772487E+03  0.45977424141E+03  0.94252351608E+02 0.  0.
        -13    1    3    3    0    0 -0.13594605313E+03  0.91241756751E+01  0.26305228935E+03  0.29624497781E+03  0.00000000000E+00 0.  1.
         14    1    3    3    0    0 -0.23816062985E+01  0.14227898311E+02  0.24030269140E+01  0.14624625714E+02  0.00000000000E+00 0. -1.
        -11    1    4    4    0    0 -0.58983655225E+02 -0.53200866141E+02  0.19423797195E+03  0.20985183699E+03  0.00000000000E+00 0.  1.
         11    1    4    4    0    0 -0.75856033511E+02  0.39284469907E+02  0.23486975292E+03  0.24992240442E+03  0.00000000000E+00 0. -1.
         21    1    1    2  503  501  0.12693356192E+03  0.64143317635E+02 -0.97832269263E+02  0.17261995032E+03  0.00000000000E+00 0. -1.
          1    1    1    2  501    0  0.14623378624E+03 -0.73578995387E+02  0.20801454126E+03  0.26470405772E+03  0.00000000000E+00 0. -1.
<scales pt_clust_5="13000.00000" pt_clust_6="13000.00000" pt_clust_7="13000.00000" pt_clust_8="13000.00000" pt_clust_9="142.21988" pt_clust_10="13000.00000"></scales>
<clustering>
<clus scale="   80.582">  5  6 -1 -1</clus>
<clus scale="   94.252">  7  8 -1 -1</clus>
<clus scale="  142.220">  2  9  1 -1</clus>
<clus scale="  132.487">  1  5  2 -1</clus>
<clus scale="  152.514">  7 10 -1 -1</clus>
<clus scale="  142.220">  2  5  1 -1</clus>
</clustering>
</event>
<event>
10    4  0.2565852E-005  0.1964854E+03  0.7546771E-02  0.1162964E+00
         21   -1    0    0  503  502  0.00000000000E+00  0.00000000000E+00  0.33599856134E+03  0.33599856134E+03  0.00000000000E+00 0. -1.
          2   -1    0    0  502    0 -0.00000000000E+00 -0.00000000000E+00 -0.26772820231E+03  0.26772820231E+03  0.00000000000E+00 0. -1.
         24    2    1    2    0    0  0.97678008061E+02  0.35101803818E+02 -0.29371362589E+01  0.13120336905E+03  0.80203287907E+02 0.  0.
         23    2    1    2    0    0 -0.14638981722E+03 -0.22696132511E+02 -0.82142329296E+02  0.19389064556E+03  0.94345785051E+02 0.  0.
        -11    1    3    3    0    0  0.84983759489E+02  0.32952450193E+02 -0.34230918169E+02  0.97364568038E+02  0.00000000000E+00 0.  1.
         12    1    3    3    0    0  0.12694248572E+02  0.21493536244E+01  0.31293781910E+02  0.33838801014E+02  0.00000000000E+00 0. -1.
        -13    1    4    4    0    0 -0.54617545893E+02  0.33560665735E+02 -0.11473652996E+02  0.65123262488E+02  0.00000000000E+00 0.  1.
         13    1    4    4    0    0 -0.91772271332E+02 -0.56256798246E+02 -0.70668676299E+02  0.12876738308E+03  0.00000000000E+00 0. -1.
         21    1    1    2  503  501  0.67814824499E+02 -0.47428325441E+02  0.20047814918E+03  0.21688657121E+03  0.00000000000E+00 0. -1.
          1    1    1    2  501    0 -0.19103015335E+02  0.35022654134E+02 -0.47128324583E+02  0.61746177821E+02  0.00000000000E+00 0. -1.
<scales pt_clust_5="13000.00000" pt_clust_6="13000.00000" pt_clust_7="13000.00000" pt_clust_8="13000.00000" pt_clust_9="82.75443" pt_clust_10="13000.00000"></scales>
<clustering>
<clus scale="   80.203">  5  6 -1 -1</clus>
<clus scale="   82.754">  1  9  2 -1</clus>
<clus scale="   94.346">  7  8 -1 -1</clus>
<clus scale="   35.702">  7 10 -1 -1</clus>
<clus scale="  154.724">  2  5  1 -1</clus>
<clus scale="   82.754">  1  5  2 -1</clus>
</clustering>
</event>
<event>
10    4  0.2565852E-005  0.2059832E+03  0.7546771E-02  0.1183305E+00
          2   -1    0    0  502    0 -0.00000000000E+00  0.00000000000E+00  0.32324592863E+03  0.32324592863E+03  0.00000000000E+00 0. -1.
         21   -1    0    0  503  502  0.00000000000E+00 -0.00000000000E+00 -0.22865445267E+03  0.22865445267E+03  0.00000000000E+00 0. -1.
         24    2    1    2    0    0 -0.17818735325E+02 -0.12392851063E+01 -0.70345317160E+02  0.10838066457E+03  0.80491376252E+02 0.  0.
         23    2    1    2    0    0 -0.20886067017E+02  0.48768056304E+02  0.20984318738E+03  0.23846053187E+03  0.10007352724E+03 0.  0.
        -11    1    3    3    0    0 -0.20774657333E+02  0.32824531024E+02 -0.11829334155E+02  0.40607503873E+02  0.00000000000E+00 0.  1.
         12    1    3    3    0    0  0.29559220086E+01 -0.34063816130E+02 -0.58515983005E+02  0.67773160700E+02  0.00000000000E+00 0. -1.
        -11    1    4    4    0    0 -0.23042705836E+02 -0.25878312963E+02  0.39976306841E+02  0.52903293684E+02  0.00000000000E+00 0.  1.
         11    1    4    4    0    0  0.21566388182E+01  0.74646369267E+02  0.16986688054E+03  0.18555723818E+03  0.00000000000E+00 0. -1.
         21    1    1    2  503  501 -0.60590461130E+01  0.20297322272E+02 -0.10300540141E+03  0.10516085798E+03  0.00000000000E+00 0. -1.
          1    1    1    2  501    0  0.44763848455E+02 -0.67826093470E+02  0.58099007135E+02  0.99898326883E+02  0.00000000000E+00 0. -1.
<scales pt_clust_5="13000.00000" pt_clust_6="13000.00000" pt_clust_7="13000.00000" pt_clust_8="13000.00000" pt_clust_9="21.18238" pt_clust_10="13000.00000"></scales>
<clustering>
<clus scale="   21.182">  2  9  1 -1</clus>
<clus scale="   80.491">  5  6 -1 -1</clus>
<clus scale="   84.544">  1  5  2 -1</clus>
<clus scale="  100.074">  7  8 -1 -1</clus>
<clus scale="   72.255">  7 10 -1 -1</clus>
<clus scale="   21.182">  2  5  1 -1</clus>
</clustering>
</event>
<event>
10    4  0.2565852E-005  0.3933561E+03  0.7546771E-02  0.1084636E+00
          2   -1    0    0  502    0 -0.00000000000E+00  0.00000000000E+00  0.12440143082E+04  0.12440143082E+04  0.00000000000E+00 0. -1.
         21   -1    0    0  503  502  0.00000000000E+00 -0.00000000000E+00 -0.14396730355E+03  0.14396730355E+03  0.00000000000E+00 0. -1.
         24    2    1    2    0    0 -0.52364901410E+02  0.94353260950E+02  0.48615644306E+03  0.50461881678E+03  0.81531848822E+02 0.  0.
         23    2    1    2    0    0 -0.99587044280E+02  0.11484273935E+03  0.43169530078E+03  0.46677429487E+03  0.91711370439E+02 0.  0.
        -13    1    3    3    0    0 -0.23347821849E+02  0.59625941941E+02  0.12315657136E+03  0.13880891472E+03  0.00000000000E+00 0.  1.
         14    1    3    3    0    0 -0.29017079561E+02  0.34727319009E+02  0.36299987170E+03  0.36580990206E+03  0.00000000000E+00 0. -1.
        -11    1    4    4    0    0 -0.10744957454E+03  0.74114779438E+02  0.27079543488E+03  0.30061367093E+03  0.00000000000E+00 0. -1.
         11    1    4    4    0    0  0.78625302628E+01  0.40727959917E+02  0.16089986590E+03  0.16616062394E+03  0.00000000000E+00 0.  1.
         21    1    1    2  503  501  0.42682730722E+02 -0.25145127821E+03  0.14643928379E+03  0.29409866482E+03  0.00000000000E+00 0. -1.
          1    1    1    2  501    0  0.10926921497E+03  0.42255277901E+02  0.35755976994E+02  0.12248983526E+03  0.00000000000E+00 0. -1.
<scales pt_clust_5="13000.00000" pt_clust_6="13000.00000" pt_clust_7="13000.00000" pt_clust_8="13000.00000" pt_clust_9="225.34641" pt_clust_10="13000.00000"></scales>
<clustering>
<clus scale="   81.532">  5  6 -1 -1</clus>
<clus scale="   91.711">  7  8 -1 -1</clus>
<clus scale="  117.155">  7 10 -1 -1</clus>
<clus scale="  135.248">  1  5  2 -1</clus>
<clus scale="  225.346">  2  9  1 -1</clus>
<clus scale="  225.346">  2  5  1 -1</clus>
</clustering>
</event>
<event>
10    4  0.2565852E-005  0.3160139E+03  0.7546771E-02  0.1122800E+00
         21   -1    0    0  501  502  0.00000000000E+00  0.00000000000E+00  0.93355887679E+02  0.93355887679E+02  0.00000000000E+00 0.  1.
          2   -1    0    0  503    0 -0.00000000000E+00 -0.00000000000E+00 -0.12671526822E+04  0.12671526822E+04  0.00000000000E+00 0. -1.
         24    2    1    2    0    0  0.74641137105E+02 -0.10177407409E+02 -0.44696000520E+02  0.11834562859E+03  0.79580628129E+02 0.  0.
         23    2    1    2    0    0  0.62895647294E+02 -0.43949614017E+02 -0.18765505752E+03  0.22184513100E+03  0.90074472048E+02 0.  0.
        -11    1    3    3    0    0  0.69816811332E+02 -0.34170692661E+02 -0.13824597022E+02  0.78950255632E+02  0.00000000000E+00 0.  1.
         12    1    3    3    0    0  0.48243257727E+01  0.23993285252E+02 -0.30871403498E+02  0.39395372956E+02  0.00000000000E+00 0. -1.
        -11    1    4    4    0    0  0.81678869493E+02 -0.36549515248E+02 -0.17850890157E+03  0.19968157834E+03  0.00000000000E+00 0.  1.
         11    1    4    4    0    0 -0.18783222200E+02 -0.74000987689E+01 -0.91461559473E+01  0.22163552662E+02  0.00000000000E+00 0. -1.
         21    1    1    2  503  502 -0.43985059834E+02 -0.33588206475E+02  0.13364578825E+02  0.56933865757E+02  0.00000000000E+00 0.  1.
          1    1    1    2  501    0 -0.93551724564E+02  0.87715227901E+02 -0.95481031533E+03  0.96338394456E+03  0.00000000000E+00 0. -1.
<scales pt_clust_5="13000.00000" pt_clust_6="13000.00000" pt_clust_7="13000.00000" pt_clust_8="13000.00000" pt_clust_9="55.34305" pt_clust_10="13000.00000"></scales>
<clustering>
<clus scale="   55.343">  1  9  2 -1</clus>
<clus scale="   79.581">  5  6 -1 -1</clus>
<clus scale="   90.074">  7  8 -1 -1</clus>
<clus scale="   97.531">  2  5  1 -1</clus>
<clus scale="   83.189">  7 10 -1 -1</clus>
<clus scale="   55.343">  1  5  2 -1</clus>
</clustering>
</event>
<event>
10    4  0.2565852E-005  0.2585301E+03  0.7546771E-02  0.1121614E+00
          2   -1    0    0  502    0 -0.00000000000E+00  0.00000000000E+00  0.13432473560E+04  0.13432473560E+04  0.00000000000E+00 0. -1.
         21   -1    0    0  503  502  0.00000000000E+00 -0.00000000000E+00 -0.20959917067E+03  0.20959917067E+03  0.00000000000E+00 0. -1.
         24    2    1    2    0    0  0.14290645735E+03  0.13444271737E+03  0.10648132444E+04  0.10857765967E+04  0.81157086178E+02 0.  0.
         23    2    1    2    0    0  0.65757127310E+02  0.72929675724E+00  0.29185965353E+02  0.12338700484E+03  0.10023971630E+03 0.  0.
        -11    1    3    3    0    0  0.78170431657E+02  0.10685799875E+03  0.52687754059E+03  0.54325794155E+03  0.00000000000E+00 0.  1.
         12    1    3    3    0    0  0.64736025696E+02  0.27584718612E+02  0.53793570379E+03  0.54251865511E+03  0.00000000000E+00 0. -1.
        -11    1    4    4    0    0  0.95400978992E+01  0.31111609417E+02 -0.23848141441E+02  0.40344510887E+02  0.00000000000E+00 0.  1.
         11    1    4    4    0    0  0.56217029411E+02 -0.30382312660E+02  0.53034106794E+02  0.83042493952E+02  0.00000000000E+00 0. -1.
         21    1    1    2  503  501 -0.17426472799E+03 -0.95178967568E+02 -0.79104714664E+02  0.21373999900E+03  0.00000000000E+00 0. -1.
          1    1    1    2  501    0 -0.34398856672E+02 -0.39993046555E+02  0.11875369021E+03  0.12994292613E+03  0.00000000000E+00 0. -1.
<scales pt_clust_5="13000.00000" pt_clust_6="13000.00000" pt_clust_7="13000.00000" pt_clust_8="13000.00000" pt_clust_9="198.56292" pt_clust_10="13000.00000"></scales>
<clustering>
<clus scale="   81.157">  5  6 -1 -1</clus>
<clus scale="  100.240">  7  8 -1 -1</clus>
<clus scale="   52.752">  7 10 -1 -1</clus>
<clus scale="  198.563">  2  9  1 -1</clus>
<clus scale="  183.465">  1  5  2 -1</clus>
<clus scale="  198.563">  2  5  1 -1</clus>
</clustering>
</event>
<event>
10    4  0.2565852E-005  0.9401090E+03  0.7546771E-02  0.9532445E-01
         21   -1    0    0  501  502  0.00000000000E+00  0.00000000000E+00  0.17128208412E+04  0.17128208412E+04  0.00000000000E+00 0. -1.
          2   -1    0    0  503    0 -0.00000000000E+00 -0.00000000000E+00 -0.43621719019E+03  0.43621719019E+03  0.00000000000E+00 0. -1.
         24    2    1    2    0    0  0.28253985822E+03 -0.44656164972E+03  0.87921927005E+02  0.54191219659E+03  0.81807610177E+02 0.  0.
         23    2    1    2    0    0  0.17260406955E+03  0.10643464937E+03  0.13212051008E+01  0.22205931790E+03  0.90488096853E+02 0.  0.
        -13    1    3    3    0    0  0.60922427891E+01 -0.29130118374E+02 -0.10688770950E+02  0.31621654654E+02  0.00000000000E+00 0.  1.
         14    1    3    3    0    0  0.27644761543E+03 -0.41743153134E+03  0.98610697955E+02  0.51029054194E+03  0.00000000000E+00 0. -1.
        -13    1    4    4    0    0  0.15947130806E+03  0.60344738988E+02  0.17677155044E+02  0.17142073220E+03  0.00000000000E+00 0. -1.
         13    1    4    4    0    0  0.13132761492E+02  0.46089910380E+02 -0.16355949944E+02  0.50638585701E+02  0.00000000000E+00 0.  1.
         21    1    1    2  503  502  0.59264171341E+02 -0.34221991875E+01  0.28449533697E+03  0.29062269390E+03  0.00000000000E+00 0. -1.
          1    1    1    2  501    0 -0.51440809911E+03  0.34354919954E+03  0.90286518190E+03  0.10944438230E+04  0.00000000000E+00 0. -1.
<scales pt_clust_5="13000.00000" pt_clust_6="13000.00000" pt_clust_7="13000.00000" pt_clust_8="13000.00000" pt_clust_9="59.36290" pt_clust_10="13000.00000"></scales>
<clustering>
<clus scale="   59.363">  1  9  2 -1</clus>
<clus scale="   81.808">  5  6 -1 -1</clus>
<clus scale="   90.488">  7  8 -1 -1</clus>
<clus scale="  542.389">  2  5  1 -1</clus>
<clus scale="  376.848">  7 10 -1 -1</clus>
<clus scale="   59.363">  1  5  2 -1</clus>
</clustering>
</event>
<event>
10    4  0.2565852E-005  0.2449512E+03  0.7546771E-02  0.1154075E+00
         21   -1    0    0  503  502  0.00000000000E+00  0.00000000000E+00  0.22654252450E+03  0.22654252450E+03  0.00000000000E+00 0. -1.
         -3   -1    0    0    0  501 -0.00000000000E+00 -0.00000000000E+00 -0.17622547545E+03  0.17622547545E+03  0.00000000000E+00 0.  1.
         24    2    1    2    0    0 -0.40381295153E+02 -0.43130165986E+02 -0.24347652860E+02  0.10282729577E+03  0.80559197738E+02 0.  0.
         23    2    1    2    0    0  0.40238666584E+02  0.51512292961E+02  0.11600682940E+03  0.16129146049E+03  0.91020240304E+02 0.  0.
        -13    1    3    3    0    0 -0.34742508255E+02  0.10489490926E+02 -0.31983770344E+02  0.48373886190E+02  0.00000000000E+00 0.  1.
         14    1    3    3    0    0 -0.56387868977E+01 -0.53619656912E+02  0.76361174840E+01  0.54453409584E+02  0.00000000000E+00 0. -1.
        -13    1    4    4    0    0  0.42506028120E+02 -0.14716157177E+02  0.37557232879E+02  0.58599261516E+02  0.00000000000E+00 0.  1.
         13    1    4    4    0    0 -0.22673615367E+01  0.66228450138E+02  0.78449596519E+02  0.10269219897E+03  0.00000000000E+00 0. -1.
         21    1    1    2  503  501 -0.16031914533E+02  0.36663732203E+02  0.31886777472E+02  0.51166572293E+02  0.00000000000E+00 0.  1.
         -4    1    1    2    0  502  0.16174543102E+02 -0.45045859178E+02 -0.73228904958E+02  0.87482671398E+02  0.00000000000E+00 0.  1.
<scales pt_clust_5="13000.00000" pt_clust_6="13000.00000" pt_clust_7="13000.00000" pt_clust_8="13000.00000" pt_clust_9="40.01564" pt_clust_10="13000.00000"></scales>
<clustering>
<clus scale="   40.016">  1  9  2 -1</clus>
<clus scale="   80.559">  5  6 -1 -1</clus>
<clus scale="   91.020">  7  8 -1 -1</clus>
<clus scale="   46.324">  7 10 -1 -1</clus>
<clus scale="   98.268">  2  5  1 -1</clus>
<clus scale="   40.016">  1  5  2 -1</clus>
</clustering>
</event>
<event>
10    4  0.2565852E-005  0.1846997E+03  0.7546771E-02  0.1188595E+00
          2   -1    0    0  503    0 -0.00000000000E+00  0.00000000000E+00  0.10272287248E+04  0.10272287248E+04  0.00000000000E+00 0. -1.
         21   -1    0    0  501  502  0.00000000000E+00 -0.00000000000E+00 -0.32204679453E+02  0.32204679453E+02  0.00000000000E+00 0. -1.
         24    2    1    2    0    0  0.73135565258E+01 -0.61991631453E+02  0.53642217258E+03  0.54620861387E+03  0.81845293999E+02 0.  0.
         23    2    1    2    0    0 -0.53969980521E+02 -0.12027929526E+02  0.17652497193E+03  0.20643536423E+03  0.91635495339E+02 0.  0.
        -11    1    3    3    0    0 -0.11589974651E+02 -0.62435749099E+02  0.21376387965E+03  0.22299674105E+03  0.00000000000E+00 0.  1.
         12    1    3    3    0    0  0.18903531177E+02  0.44411764665E+00  0.32265829293E+03  0.32321187282E+03  0.00000000000E+00 0. -1.
        -13    1    4    4    0    0  0.50918306577E+01  0.28297051377E+02  0.88315955868E+02  0.92878188596E+02  0.00000000000E+00 0.  1.
         13    1    4    4    0    0 -0.59061811178E+02 -0.40324980902E+02  0.88209016058E+02  0.11355717564E+03  0.00000000000E+00 0. -1.
         21    1    1    2  503  502  0.32412099620E+02 -0.81181465890E+01  0.11952717058E+03  0.12410960081E+03  0.00000000000E+00 0.  1.
          1    1    1    2  501    0  0.14244324375E+02  0.82137707567E+02  0.16254973030E+03  0.18267982538E+03  0.00000000000E+00 0. -1.
<scales pt_clust_5="13000.00000" pt_clust_6="13000.00000" pt_clust_7="13000.00000" pt_clust_8="13000.00000" pt_clust_9="33.41332" pt_clust_10="13000.00000"></scales>
<clustering>
<clus scale="   33.413">  2  9  1 -1</clus>
<clus scale="   81.845">  5  6 -1 -1</clus>
<clus scale="   91.635">  7  8 -1 -1</clus>
<clus scale="   83.294">  7 10 -1 -1</clus>
<clus scale="  104.246">  1  5  2 -1</clus>
<clus scale="   33.413">  2  5  1 -1</clus>
</clustering>
</event>
<event>
10    4  0.2565852E-005  0.5336336E+03  0.7546771E-02  0.1053912E+00
          2   -1    0    0  503    0 -0.00000000000E+00  0.00000000000E+00  0.93347080862E+03  0.93347080862E+03  0.00000000000E+00 0. -1.
         21   -1    0    0  501  502  0.00000000000E+00 -0.00000000000E+00 -0.17770203294E+03  0.17770203294E+03  0.00000000000E+00 0. -1.
         24    2    1    2    0    0  0.84719142293E+02  0.81606643480E+01  0.85156711219E+02  0.14566227003E+03  0.81987205895E+02 0.  0.
         23    2    1    2    0    0 -0.27971240220E+03  0.14704974354E+03  0.42824888557E+03  0.53985612856E+03  0.90470307454E+02 0.  0.
        -13    1    3    3    0    0  0.59505044305E+02  0.29117138211E+02  0.14566149515E+02  0.67829423903E+02  0.00000000000E+00 0.  1.
         14    1    3    3    0    0  0.25214097989E+02 -0.20956473863E+02  0.70590561705E+02  0.77832846125E+02  0.00000000000E+00 0. -1.
        -13    1    4    4    0    0 -0.14372630355E+02  0.17221426120E+02  0.38286017283E+01  0.22755399625E+02  0.00000000000E+00 0.  1.
         13    1    4    4    0    0 -0.26533977185E+03  0.12982831742E+03  0.42442028384E+03  0.51710072894E+03  0.00000000000E+00 0. -1.
         21    1    1    2  503  502  0.43284503377E+02 -0.78248875237E+01 -0.48848926156E+02  0.65734273282E+02  0.00000000000E+00 0. -1.
          1    1    1    2  501    0  0.15170875653E+03 -0.14738552037E+03  0.29121210505E+03  0.35992016969E+03  0.00000000000E+00 0. -1.
<scales pt_clust_5="13000.00000" pt_clust_6="13000.00000" pt_clust_7="13000.00000" pt_clust_8="13000.00000" pt_clust_9="43.98610" pt_clust_10="13000.00000"></scales>
<clustering>
<clus scale="   43.986">  2  9  1 -1</clus>
<clus scale="   81.987">  5  6 -1 -1</clus>
<clus scale="   90.470">  7  8 -1 -1</clus>
<clus scale="  126.089">  1  5  2 -1</clus>
<clus scale="  254.224">  7 10 -1 -1</clus>
<clus scale="   43.986">  2  5  1 -1</clus>
</clustering>
</event>
<event>
10    4  0.2565852E-005  0.4069635E+03  0.7546771E-02  0.1077388E+00
         21   -1    0    0  503  502  0.00000000000E+00  0.00000000000E+00  0.15117675391E+03  0.15117675391E+03  0.00000000000E+00 0. -1.
          2   -1    0    0  502    0 -0.00000000000E+00 -0.00000000000E+00 -0.82049325559E+03  0.82049325559E+03  0.00000000000E+00 0. -1.
         24    2    1    2    0    0  0.12139041522E+03 -0.58836967559E+02 -0.53499453473E+02  0.16606657565E+03  0.80737193198E+02 0.  0.
         23    2    1    2    0    0 -0.15195869017E+03  0.79333934404E+02 -0.62770761842E+03  0.65740255644E+03  0.93680042294E+02 0.  0.
        -13    1    3    3    0    0  0.39296699289E+02 -0.62381223121E+02 -0.36030488368E+02  0.82060000397E+02  0.00000000000E+00 0.  1.
         14    1    3    3    0    0  0.82093715935E+02  0.35442555617E+01 -0.17468965105E+02  0.84006575250E+02  0.00000000000E+00 0. -1.
        -11    1    4    4    0    0 -0.14117125808E+03  0.45177957818E+02 -0.57412587757E+03  0.59295100580E+03  0.00000000000E+00 0. -1.
         11    1    4    4    0    0 -0.10787432083E+02  0.34155976586E+02 -0.53581740854E+02  0.64451550645E+02  0.00000000000E+00 0.  1.
         21    1    1    2  503  501 -0.50528391645E+02 -0.39831108072E+02  0.41834174617E+01  0.64475859934E+02  0.00000000000E+00 0.  1.
          1    1    1    2  501    0  0.81096666587E+02  0.19334141228E+02  0.77071527509E+01  0.83725017480E+02  0.00000000000E+00 0. -1.
<scales pt_clust_5="13000.00000" pt_clust_6="13000.00000" pt_clust_7="13000.00000" pt_clust_8="13000.00000" pt_clust_9="64.34000" pt_clust_10="13000.00000"></scales>
<clustering>
<clus scale="   64.340">  1  9  2 -1</clus>
<clus scale="   80.737">  5  6 -1 -1</clus>
<clus scale="   93.680">  7  8 -1 -1</clus>
<clus scale="   61.442">  7 10 -1 -1</clus>
<clus scale="  148.409">  2  5  1 -1</clus>
<clus scale="   64.340">  1  5  2 -1</clus>
</clustering>
</event>
<event>
10    4  0.2565852E-005  0.4478747E+03  0.7546771E-02  0.1036903E+00
          2   -1    0    0  502    0 -0.00000000000E+00  0.00000000000E+00  0.19954620323E+04  0.19954620323E+04  0.00000000000E+00 0. -1.
         21   -1    0    0  503  502  0.00000000000E+00 -0.00000000000E+00 -0.10817335853E+03  0.10817335853E+03  0.00000000000E+00 0. -1.
         24    2    1    2    0    0  0.15076461797E+03 -0.29583294274E+03  0.11345869692E+04  0.11849055242E+04  0.80413995542E+02 0.  0.
         23    2    1    2    0    0 -0.15179624596E+02 -0.22518667310E+02  0.15669387701E+03  0.18240101455E+03  0.89328873462E+02 0.  0.
        -11    1    3    3    0    0  0.48283390320E+02 -0.15455996012E+03  0.64937356731E+03  0.66925787031E+03  0.00000000000E+00 0.  1.
         12    1    3    3    0    0  0.10248122765E+03 -0.14127298263E+03  0.48521340188E+03  0.51564765393E+03  0.00000000000E+00 0. -1.
        -13    1    4    4    0    0  0.74692271073E+01  0.32772263633E+02  0.57129790814E+02  0.66284414576E+02  0.00000000000E+00 0.  1.
         13    1    4    4    0    0 -0.22648851703E+02 -0.55290930943E+02  0.99564086199E+02  0.11611659997E+03  0.00000000000E+00 0. -1.
         21    1    1    2  503  501  0.44740156440E+02 -0.33116529433E+01  0.13393843320E+02  0.46819266145E+02  0.00000000000E+00 0. -1.
          1    1    1    2  501    0 -0.18032514981E+03  0.32166326300E+03  0.58261398426E+03  0.68950958591E+03  0.00000000000E+00 0. -1.
<scales pt_clust_5="13000.00000" pt_clust_6="13000.00000" pt_clust_7="13000.00000" pt_clust_8="13000.00000" pt_clust_9="44.86255" pt_clust_10="13000.00000"></scales>
<clustering>
<clus scale="   44.863">  2  9  1 -1</clus>
<clus scale="   80.414">  5  6 -1 -1</clus>
<clus scale="   89.329">  7  8 -1 -1</clus>
<clus scale="  348.017">  1  5  2 -1</clus>
<clus scale="   95.691">  7 10 -1 -1</clus>
<clus scale="   44.863">  2  5  1 -1</clus>
</clustering>
</event>
<event>
10    4  0.2565852E-005  0.2642264E+03  0.7546771E-02  0.1149453E+00
         21   -1    0    0  501  502  0.00000000000E+00  0.00000000000E+00  0.75693361740E+02  0.75693361740E+02  0.00000000000E+00 0.  1.
          2   -1    0    0  503    0 -0.00000000000E+00 -0.00000000000E+00 -0.60162055995E+03  0.60162055995E+03  0.00000000000E+00 0. -1.
         24    2    1    2    0    0 -0.28034187972E+02  0.54299930291E+01 -0.20541808058E+03  0.22276704464E+03  0.81321386047E+02 0.  0.
         23    2    1    2    0    0  0.18389446284E+02 -0.13164024680E+03 -0.10707838786E+03  0.19406044793E+03  0.92338236895E+02 0.  0.
        -13    1    3    3    0    0 -0.43473219268E+02  0.29857324643E+02 -0.16394816075E+03  0.17222189187E+03  0.00000000000E+00 0.  1.
         14    1    3    3    0    0  0.15439031297E+02 -0.24427331614E+02 -0.41469919835E+02  0.50545152768E+02  0.00000000000E+00 0. -1.
        -13    1    4    4    0    0  0.77123639134E+01 -0.79863476441E+02 -0.65787649287E+01  0.80504258113E+02  0.00000000000E+00 0.  1.
         13    1    4    4    0    0  0.10677082370E+02 -0.51776770354E+02 -0.10049962293E+03  0.11355618982E+03  0.00000000000E+00 0. -1.
         21    1    1    2  503  502 -0.99713213905E+01  0.46095710961E+02 -0.21996427084E+02  0.52039260407E+02  0.00000000000E+00 0. -1.
          1    1    1    2  501    0  0.19616063079E+02  0.80114542806E+02 -0.19143430269E+03  0.20844716871E+03  0.00000000000E+00 0. -1.
<scales pt_clust_5="13000.00000" pt_clust_6="13000.00000" pt_clust_7="13000.00000" pt_clust_8="13000.00000" pt_clust_9="47.16187" pt_clust_10="13000.00000"></scales>
<clustering>
<clus scale="   47.162">  1  9  2 -1</clus>
<clus scale="   81.321">  5  6 -1 -1</clus>
<clus scale="   87.324">  2  5  1 -1</clus>
<clus scale="   92.338">  7  8 -1 -1</clus>
<clus scale="   94.192">  7 10 -1 -1</clus>
<clus scale="   47.162">  1  5  2 -1</clus>
</clustering>
</event>
<event>
10    4  0.2565852E-005  0.1922126E+03  0.7546771E-02  0.1160378E+00
          2   -1    0    0  502    0 -0.00000000000E+00  0.00000000000E+00  0.11755838112E+04  0.11755838112E+04  0.00000000000E+00 0. -1.
         21   -1    0    0  503  502  0.00000000000E+00 -0.00000000000E+00 -0.67890625863E+02  0.67890625863E+02  0.00000000000E+00 0. -1.
         24    2    1    2    0    0 -0.85675680078E+02  0.13167137251E+03  0.42390141240E+03  0.45879473011E+03  0.78246561843E+02 0.  0.
         23    2    1    2    0    0 -0.15335183710E+02  0.48741395764E+02  0.64434828018E+02  0.12135689064E+03  0.89245483495E+02 0.  0.
        -13    1    3    3    0    0 -0.30335777841E+02  0.68979239118E+02  0.10584556239E+03  0.12992951137E+03  0.00000000000E+00 0.  1.
         14    1    3    3    0    0 -0.55339902236E+02  0.62692133393E+02  0.31805585001E+03  0.32886521874E+03  0.00000000000E+00 0. -1.
        -13    1    4    4    0    0  0.64966004271E+01  0.53604792469E+02  0.78246351565E+02  0.95069296442E+02  0.00000000000E+00 0. -1.
         13    1    4    4    0    0 -0.21831784137E+02 -0.48633967043E+01 -0.13811523548E+02  0.26287594200E+02  0.00000000000E+00 0.  1.
         21    1    1    2  503  501  0.41871892088E+02 -0.17251490709E+03  0.47733486930E+03  0.50927716026E+03  0.00000000000E+00 0.  1.
          1    1    1    2  501    0  0.59138971700E+02 -0.78978611846E+01  0.14202207559E+03  0.15404565602E+03  0.00000000000E+00 0. -1.
<scales pt_clust_5="13000.00000" pt_clust_6="13000.00000" pt_clust_7="13000.00000" pt_clust_8="13000.00000" pt_clust_9="85.50180" pt_clust_10="13000.00000"></scales>
<clustering>
<clus scale="   78.247">  5  6 -1 -1</clus>
<clus scale="   89.245">  7  8 -1 -1</clus>
<clus scale="   59.664">  7 10 -1 -1</clus>
<clus scale="  175.500">  1  5  2 -1</clus>
<clus scale="   85.502">  2  9  1 -1</clus>
<clus scale="   85.502">  2  5  1 -1</clus>
</clustering>
</event>
<event>
10    4  0.2565852E-005  0.1590108E+03  0.7546771E-02  0.1199199E+00
          4   -1    0    0  503    0 -0.00000000000E+00  0.00000000000E+00  0.33776962997E+03  0.33776962997E+03  0.00000000000E+00 0. -1.
         21   -1    0    0  501  502  0.00000000000E+00 -0.00000000000E+00 -0.38802829419E+03  0.38802829419E+03  0.00000000000E+00 0.  1.
         24    2    1    2    0    0  0.10367433986E+03  0.26455100324E+02  0.29483089627E+03  0.32340652385E+03  0.78856079031E+02 0.  0.
         23    2    1    2    0    0 -0.42405382344E+02  0.18098241150E+02 -0.12621447254E+03  0.16163398808E+03  0.89831454627E+02 0.  0.
        -11    1    3    3    0    0 -0.68368494121E+00  0.27963701857E+02  0.75339990667E+02  0.80365105863E+02  0.00000000000E+00 0.  1.
         12    1    3    3    0    0  0.10435802480E+03 -0.15086015332E+01  0.21949090560E+03  0.24304141799E+03  0.00000000000E+00 0. -1.
        -13    1    4    4    0    0  0.12262899489E+02  0.39047070904E+02 -0.38592326458E+02  0.56253178679E+02  0.00000000000E+00 0. -1.
         13    1    4    4    0    0 -0.54668281833E+02 -0.20948829754E+02 -0.87622146077E+02  0.10538080940E+03  0.00000000000E+00 0.  1.
         21    1    1    2  503  502 -0.55425570192E+02 -0.15872464786E+02 -0.19386927099E+03  0.20226028578E+03  0.00000000000E+00 0.  1.
          3    1    1    2  501    0 -0.58433873191E+01 -0.28680876689E+02 -0.25005816964E+02  0.38497126451E+02  0.00000000000E+00 0. -1.
<scales pt_clust_5="13000.00000" pt_clust_6="13000.00000" pt_clust_7="13000.00000" pt_clust_8="13000.00000" pt_clust_9="57.65353" pt_clust_10="13000.00000"></scales>
<clustering>
<clus scale="   57.654">  2  9  1 -1</clus>
<clus scale="   78.856">  5  6 -1 -1</clus>
<clus scale="   89.831">  7  8 -1 -1</clus>
<clus scale="   34.786">  7 10 -1 -1</clus>
<clus scale="  129.452">  1  5  2 -1</clus>
<clus scale="   57.654">  2  5  1 -1</clus>
</clustering>
</event>
<event>
10    4  0.2565852E-005  0.3050528E+03  0.7546771E-02  0.1106107E+00
          2   -1    0    0  502    0 -0.00000000000E+00  0.00000000000E+00  0.33769445552E+03  0.33769445552E+03  0.00000000000E+00 0. -1.
         21   -1    0    0  503  502  0.00000000000E+00 -0.00000000000E+00 -0.25409202431E+03  0.25409202431E+03  0.00000000000E+00 0.  1.
         24    2    1    2    0    0 -0.10440355666E+03  0.95538739985E+02 -0.95234381276E+02  0.18878962749E+03  0.80896122218E+02 0.  0.
         23    2    1    2    0    0  0.14636389840E+02  0.55047802926E+02  0.25669503741E+02  0.10968260191E+03  0.90149127699E+02 0.  0.
        -13    1    3    3    0    0 -0.11602452904E+03  0.96509990520E+02 -0.84623317972E+02  0.17302304920E+03  0.00000000000E+00 0.  1.
         14    1    3    3    0    0  0.11620972380E+02 -0.97125053451E+00 -0.10611063304E+02  0.15766578294E+02  0.00000000000E+00 0. -1.
        -13    1    4    4    0    0 -0.36095160199E+02  0.39366501414E+02  0.10195017265E+02  0.54373894475E+02  0.00000000000E+00 0.  1.
         13    1    4    4    0    0  0.50731550039E+02  0.15681301512E+02  0.15474486476E+02  0.55308707435E+02  0.00000000000E+00 0. -1.
         21    1    1    2  503  501  0.15640347984E+02  0.21051659830E+02 -0.24141912306E+02  0.35645824390E+02  0.00000000000E+00 0. -1.
          1    1    1    2  501    0  0.74126818833E+02 -0.17163820274E+03  0.17730922105E+03  0.25766842605E+03  0.00000000000E+00 0. -1.
<scales pt_clust_5="13000.00000" pt_clust_6="13000.00000" pt_clust_7="13000.00000" pt_clust_8="13000.00000" pt_clust_9="26.22581" pt_clust_10="13000.00000"></scales>
<clustering>
<clus scale="   26.226">  2  9  1 -1</clus>
<clus scale="   80.896">  5  6 -1 -1</clus>
<clus scale="   90.149">  7  8 -1 -1</clus>
<clus scale="  165.309">  1  5  2 -1</clus>
<clus scale="   86.942">  7 10 -1 -1</clus>
<clus scale="   26.226">  2  5  1 -1</clus>
</clustering>
</event>
<event>
10    4  0.2565852E-005  0.1439179E+03  0.7546771E-02  0.1226830E+00
         21   -1    0    0  503  502  0.00000000000E+00  0.00000000000E+00  0.22997901247E+03  0.22997901247E+03  0.00000000000E+00 0. -1.
         -1   -1    0    0    0  501 -0.00000000000E+00 -0.00000000000E+00 -0.34421546793E+03  0.34421546793E+03  0.00000000000E+00 0.  1.
         24    2    1    2    0    0 -0.44746957824E+02 -0.30472258536E+02 -0.26504486595E+03  0.28230258628E+03  0.80716296246E+02 0.  0.
         23    2    1    2    0    0  0.69182098376E+02  0.26646647691E+02  0.15437405231E+02  0.12126901613E+03  0.94718816627E+02 0.  0.
        -11    1    3    3    0    0 -0.65558783248E+02 -0.15597340252E+02 -0.22419574946E+03  0.23410460303E+03  0.00000000000E+00 0.  1.
         12    1    3    3    0    0  0.20811825424E+02 -0.14874918285E+02 -0.40849116489E+02  0.48197983250E+02  0.00000000000E+00 0. -1.
        -13    1    4    4    0    0  0.23886073266E+02  0.31410484850E+02 -0.35400460986E+02  0.53012788010E+02  0.00000000000E+00 0.  1.
         13    1    4    4    0    0  0.45296025110E+02 -0.47638371582E+01  0.50837866217E+02  0.68256228117E+02  0.00000000000E+00 0. -1.
         21    1    1    2  503  501 -0.10935051543E+02  0.20859245676E+02  0.14496441761E+03  0.14686512812E+03  0.00000000000E+00 0. -1.
         -2    1    1    2    0  502 -0.13500089009E+02 -0.17033634832E+02 -0.95934123537E+01  0.23757749881E+02  0.00000000000E+00 0.  1.
<scales pt_clust_5="13000.00000" pt_clust_6="13000.00000" pt_clust_7="13000.00000" pt_clust_8="13000.00000" pt_clust_9="23.55172" pt_clust_10="13000.00000"></scales>
<clustering>
<clus scale="   23.552">  1  9  2 -1</clus>
<clus scale="   80.716">  5  6 -1 -1</clus>
<clus scale="   94.719">  7  8 -1 -1</clus>
<clus scale="   21.008">  7 10 -1 -1</clus>
<clus scale="   97.066">  2  5  1 -1</clus>
<clus scale="   23.552">  1  5  2 -1</clus>
</clustering>
</event>
<event>
10    4  0.2565852E-005  0.4874010E+03  0.7546771E-02  0.1044185E+00
         21   -1    0    0  503  502  0.00000000000E+00  0.00000000000E+00  0.28219851362E+03  0.28219851362E+03  0.00000000000E+00 0. -1.
          2   -1    0    0  502    0 -0.00000000000E+00 -0.00000000000E+00 -0.62546239486E+03  0.62546239486E+03  0.00000000000E+00 0. -1.
         24    2    1    2    0    0  0.12205120762E+03 -0.16646357664E+03 -0.19358737002E+03  0.29387446447E+03  0.79243368208E+02 0.  0.
         23    2    1    2    0    0  0.64972332610E+02 -0.81348262680E+02 -0.18412102499E+03  0.23034223116E+03  0.91203331989E+02 0.  0.
        -11    1    3    3    0    0  0.26012159479E+02 -0.68212829729E+02 -0.11318071779E+03  0.13468295163E+03  0.00000000000E+00 0.  1.
         12    1    3    3    0    0  0.96039048138E+02 -0.98250746909E+02 -0.80406652231E+02  0.15919151283E+03  0.00000000000E+00 0. -1.
        -11    1    4    4    0    0 -0.46210218318E+01 -0.37870937760E+02 -0.12558823141E+02  0.40165729276E+02  0.00000000000E+00 0.  1.
         11    1    4    4    0    0  0.69593354442E+02 -0.43477324919E+02 -0.17156220185E+03  0.19017650188E+03  0.00000000000E+00 0. -1.
         21    1    1    2  503  501  0.17833540443E+02  0.27806360231E+02  0.73232352621E+02  0.80338075061E+02  0.00000000000E+00 0. -1.
          1    1    1    2  501    0 -0.20485708067E+03  0.22000547909E+03 -0.38787838845E+02  0.30310613780E+03  0.00000000000E+00 0. -1.
<scales pt_clust_5="13000.00000" pt_clust_6="13000.00000" pt_clust_7="13000.00000" pt_clust_8="13000.00000" pt_clust_9="33.03375" pt_clust_10="13000.00000"></scales>
<clustering>
<clus scale="   33.034">  1  9  2 -1</clus>
<clus scale="   79.243">  5  6 -1 -1</clus>
<clus scale="   91.203">  7  8 -1 -1</clus>
<clus scale="  218.527">  2  5  1 -1</clus>
<clus scale="  211.875">  7 10 -1 -1</clus>
<clus scale="   33.034">  1  5  2 -1</clus>
</clustering>
</event>
<event>
10    4  0.2565852E-005  0.5268544E+03  0.7546771E-02  0.1060275E+00
          2   -1    0    0  503    0 -0.00000000000E+00  0.00000000000E+00  0.48976767287E+03  0.48976767287E+03  0.00000000000E+00 0. -1.
         21   -1    0    0  501  502  0.00000000000E+00 -0.00000000000E+00 -0.23057486175E+03  0.23057486175E+03  0.00000000000E+00 0. -1.
         24    2    1    2    0    0 -0.43365734963E+00 -0.77761519847E+02  0.44454865082E+02  0.12061695244E+03  0.80778537740E+02 0.  0.
         23    2    1    2    0    0 -0.18607864006E+03 -0.14727827479E+03  0.12452360688E+03  0.28330669677E+03  0.91871678186E+02 0.  0.
        -11    1    3    3    0    0  0.25486089239E+01 -0.24941621700E+02 -0.23590570604E+02  0.34425207652E+02  0.00000000000E+00 0.  1.
         12    1    3    3    0    0 -0.29822662735E+01 -0.52819898148E+02  0.68045435686E+02  0.86191744791E+02  0.00000000000E+00 0. -1.
        -11    1    4    4    0    0 -0.39748688133E+02 -0.83456266802E+02  0.64662409834E+02  0.11281016764E+03  0.00000000000E+00 0. -1.
         11    1    4    4    0    0 -0.14632995192E+03 -0.63822007983E+02  0.59861197047E+02  0.17049652913E+03  0.00000000000E+00 0.  1.
         21    1    1    2  503  502  0.10147833958E+02  0.20916076118E+02 -0.14102398166E+02  0.27190777999E+02  0.00000000000E+00 0. -1.
          1    1    1    2  501    0  0.17636446345E+03  0.20412371852E+03  0.10431673732E+03  0.28922810741E+03  0.00000000000E+00 0. -1.
<scales pt_clust_5="13000.00000" pt_clust_6="13000.00000" pt_clust_7="13000.00000" pt_clust_8="13000.00000" pt_clust_9="23.24781" pt_clust_10="13000.00000"></scales>
<clustering>
<clus scale="   23.248">  2  9  1 -1</clus>
<clus scale="   80.779">  5  6 -1 -1</clus>
<clus scale="   91.872">  7  8 -1 -1</clus>
<clus scale="  109.537">  1  5  2 -1</clus>
<clus scale="  251.951">  7 10 -1 -1</clus>
<clus scale="   23.248">  2  5  1 -1</clus>
</clustering>
</event>
<event>
10    4  0.2565852E-005  0.3438723E+03  0.7546771E-02  0.1117189E+00
          2   -1    0    0  503    0 -0.00000000000E+00  0.00000000000E+00  0.21156006467E+03  0.21156006467E+03  0.00000000000E+00 0. -1.
         21   -1    0    0  501  502  0.00000000000E+00 -0.00000000000E+00 -0.31655912197E+03  0.31655912197E+03  0.00000000000E+00 0. -1.
         24    2    1    2    0    0  0.12524173553E+02 -0.15407262575E+02 -0.88499255278E+02  0.12202825760E+03  0.81636626608E+02 0.  0.
         23    2    1    2    0    0 -0.51272819476E+02  0.28647510292E+02  0.16715890706E+03  0.19922265896E+03  0.91093280600E+02 0.  0.
        -11    1    3    3    0    0  0.44510059071E+02  0.76229306160E+00 -0.30904542260E+02  0.54192408892E+02  0.00000000000E+00 0.  1.
         12    1    3    3    0    0 -0.31985885518E+02 -0.16169555637E+02 -0.57594713018E+02  0.67835848704E+02  0.00000000000E+00 0. -1.
        -13    1    4    4    0    0 -0.28607325218E+02 -0.52145919869E+01  0.20399015164E+01  0.29150166791E+02  0.00000000000E+00 0.  1.
         13    1    4    4    0    0 -0.22665494258E+02  0.33862102279E+02  0.16511900555E+03  0.17007249217E+03  0.00000000000E+00 0. -1.
         21    1    1    2  503  502  0.41667507369E+02  0.15427139254E+02 -0.38238179590E+02  0.58620271018E+02  0.00000000000E+00 0.  1.
          1    1    1    2  501    0 -0.29188614460E+01 -0.28667386971E+02 -0.14542052950E+03  0.14824799907E+03  0.00000000000E+00 0. -1.
<scales pt_clust_5="13000.00000" pt_clust_6="13000.00000" pt_clust_7="13000.00000" pt_clust_8="13000.00000" pt_clust_9="44.43172" pt_clust_10="13000.00000"></scales>
<clustering>
<clus scale="   44.432">  2  9  1 -1</clus>
<clus scale="   81.637">  5  6 -1 -1</clus>
<clus scale="   87.099">  1  5  2 -1</clus>
<clus scale="   91.093">  7  8 -1 -1</clus>
<clus scale="   29.523">  7 10 -1 -1</clus>
<clus scale="   44.432">  2  5  1 -1</clus>
</clustering>
</event>
<event>
10    4  0.2565852E-005  0.2527352E+03  0.7546771E-02  0.1149761E+00
         21   -1    0    0  503  502  0.00000000000E+00  0.00000000000E+00  0.14509622494E+03  0.14509622494E+03  0.00000000000E+00 0.  1.
         -1   -1    0    0    0  501 -0.00000000000E+00 -0.00000000000E+00 -0.49967757935E+03  0.49967757935E+03  0.00000000000E+00 0.  1.
         24    2    1    2    0    0  0.41875227909E+02 -0.44696464518E+02  0.34144317951E+02  0.10711457011E+03  0.80971526034E+02 0.  0.
         23    2    1    2    0    0 -0.38023783529E+02 -0.86724685545E+02 -0.30680303509E+03  0.33648089561E+03  0.10061963812E+03 0.  0.
        -13    1    3    3    0    0  0.37150792786E+02 -0.96384243860E+01  0.54227966478E+02  0.66436081895E+02  0.00000000000E+00 0.  1.
         14    1    3    3    0    0  0.47244351226E+01 -0.35058040132E+02 -0.20083648527E+02  0.40678488213E+02  0.00000000000E+00 0. -1.
        -11    1    4    4    0    0  0.25953882365E+02 -0.39278374702E+01 -0.11536440212E+03  0.11831304744E+03  0.00000000000E+00 0.  1.
         11    1    4    4    0    0 -0.63977665893E+02 -0.82796848075E+02 -0.19143863297E+03  0.21816784817E+03  0.00000000000E+00 0. -1.
         21    1    1    2  503  501  0.13594919723E+02  0.28459411685E+02  0.33169006738E+02  0.45770546902E+02  0.00000000000E+00 0.  1.
         -2    1    1    2    0  502 -0.17446364103E+02  0.10296173838E+03 -0.11509164402E+03  0.15540779167E+03  0.00000000000E+00 0.  1.
<scales pt_clust_5="13000.00000" pt_clust_6="13000.00000" pt_clust_7="13000.00000" pt_clust_8="13000.00000" pt_clust_9="31.53982" pt_clust_10="13000.00000"></scales>
<clustering>
<clus scale="   31.540">  1  9  2 -1</clus>
<clus scale="   80.972">  5  6 -1 -1</clus>
<clus scale="   99.059">  2  5  1 -1</clus>
<clus scale="  100.620">  7  8 -1 -1</clus>
<clus scale="  100.031">  7 10 -1 -1</clus>
<clus scale="   31.540">  1  5  2 -1</clus>
</clustering>
</event>
<event>
10    4  0.2565852E-005  0.2651205E+03  0.7546771E-02  0.1124346E+00
         21   -1    0    0  501  502  0.00000000000E+00  0.00000000000E+00  0.16084235068E+03  0.16084235068E+03  0.00000000000E+00 0. -1.
          2   -1    0    0  503    0 -0.00000000000E+00 -0.00000000000E+00 -0.62823774492E+03  0.62823774492E+03  0.00000000000E+00 0. -1.
         24    2    1    2    0    0  0.13573371328E+03 -0.61842221195E+01 -0.43606391969E+03  0.46394000059E+03  0.81404524245E+02 0.  0.
         23    2    1    2    0    0 -0.30503560120E+01  0.65188052460E+02 -0.74095219064E+02  0.13503984817E+03  0.92124221840E+02 0.  0.
        -13    1    3    3    0    0  0.78787888805E+02 -0.16489265325E+01 -0.12568290077E+03  0.14834568389E+03  0.00000000000E+00 0.  1.
         14    1    3    3    0    0  0.56945824473E+02 -0.45352955870E+01 -0.31038101892E+03  0.31559431670E+03  0.00000000000E+00 0. -1.
        -13    1    4    4    0    0  0.20351822152E+02  0.71694744217E+02 -0.22235771000E+02  0.77773790735E+02  0.00000000000E+00 0. -1.
         13    1    4    4    0    0 -0.23402178164E+02 -0.65066917570E+01 -0.51859448063E+02  0.57266057433E+02  0.00000000000E+00 0.  1.
         21    1    1    2  503  502  0.28514934989E+01 -0.49209867123E+02  0.94912886983E+01  0.50197874443E+02  0.00000000000E+00 0. -1.
          1    1    1    2  501    0 -0.13553485076E+03 -0.97939632175E+01  0.33272455809E+02  0.13990237240E+03  0.00000000000E+00 0. -1.
<scales pt_clust_5="13000.00000" pt_clust_6="13000.00000" pt_clust_7="13000.00000" pt_clust_8="13000.00000" pt_clust_9="49.29241" pt_clust_10="13000.00000"></scales>
<clustering>
<clus scale="   49.292">  1  9  2 -1</clus>
<clus scale="   81.405">  5  6 -1 -1</clus>
<clus scale="   92.124">  7  8 -1 -1</clus>
<clus scale="  140.191">  7 10 -1 -1</clus>
<clus scale="  158.944">  2  5  1 -1</clus>
<clus scale="   49.292">  1  5  2 -1</clus>
</clustering>
</event>
<event>
10    4  0.2565852E-005  0.3953534E+03  0.7546771E-02  0.1063381E+00
         21   -1    0    0  503  502  0.00000000000E+00  0.00000000000E+00  0.51887608041E+03  0.51887608041E+03  0.00000000000E+00 0.  1.
          2   -1    0    0  502    0 -0.00000000000E+00 -0.00000000000E+00 -0.61440225075E+03  0.61440225075E+03  0.00000000000E+00 0. -1.
         24    2    1    2    0    0 -0.18183014382E+03 -0.14356610250E+01 -0.33886385870E+02  0.20152684109E+03  0.80003238740E+02 0.  0.
         23    2    1    2    0    0 -0.30316263394E+02 -0.35302584056E+02 -0.43853799443E+02  0.10779224732E+03  0.86779401869E+02 0.  0.
        -13    1    3    3    0    0 -0.11997664836E+03 -0.39127436346E+02 -0.19874592899E+02  0.12775113256E+03  0.00000000000E+00 0.  1.
         14    1    3    3    0    0 -0.61853495460E+02  0.37691775321E+02 -0.14011792972E+02  0.73775708534E+02  0.00000000000E+00 0. -1.
        -11    1    4    4    0    0 -0.44940631873E+02  0.12810014154E+02 -0.30360819488E+02  0.55727338136E+02  0.00000000000E+00 0.  1.
         11    1    4    4    0    0  0.14624368478E+02 -0.48112598210E+02 -0.13492979954E+02  0.52064909180E+02  0.00000000000E+00 0. -1.
         21    1    1    2  503  501 -0.78416595049E+02 -0.99760752586E+02  0.32826206048E+03  0.35193373025E+03  0.00000000000E+00 0.  1.
          1    1    1    2  501    0  0.29056300227E+03  0.13649899767E+03 -0.34604804551E+03  0.47202551250E+03  0.00000000000E+00 0. -1.
<scales pt_clust_5="13000.00000" pt_clust_6="13000.00000" pt_clust_7="13000.00000" pt_clust_8="13000.00000" pt_clust_9="126.89117" pt_clust_10="13000.00000"></scales>
<clustering>
<clus scale="   80.003">  5  6 -1 -1</clus>
<clus scale="   86.779">  7  8 -1 -1</clus>
<clus scale="  126.891">  1  9  2 -1</clus>
<clus scale="  237.716">  2  5  1 -1</clus>
<clus scale="  118.861">  7 10 -1 -1</clus>
<clus scale="  126.891">  1  5  2 -1</clus>
</clustering>
</event>
<event>
10    4  0.2565852E-005  0.4841253E+03  0.7546771E-02  0.1067091E+00
          2   -1    0    0  502    0 -0.00000000000E+00  0.00000000000E+00  0.92998093112E+03  0.92998093112E+03  0.00000000000E+00 0. -1.
         21   -1    0    0  503  502  0.00000000000E+00 -0.00000000000E+00 -0.28085252899E+03  0.28085252899E+03  0.00000000000E+00 0.  1.
         24    2    1    2    0    0 -0.90406720684E+02 -0.77640070176E+01  0.75342453179E+02  0.14233429423E+03  0.79680054677E+02 0.  0.
         23    2    1    2    0    0  0.11015226978E+03 -0.13210207523E+03  0.14388156864E+03  0.24737351734E+03  0.10443787850E+03 0.  0.
        -13    1    3    3    0    0 -0.48633221175E+02 -0.43129234511E+02  0.50056266980E+02  0.82042372804E+02  0.00000000000E+00 0.  1.
         14    1    3    3    0    0 -0.41773499509E+02  0.35365227493E+02  0.25286186199E+02  0.60291921427E+02  0.00000000000E+00 0. -1.
        -13    1    4    4    0    0  0.18650378010E+02 -0.94967889653E+02  0.42043622835E+02  0.10551968009E+03  0.00000000000E+00 0. -1.
         13    1    4    4    0    0  0.91501891771E+02 -0.37134185582E+02  0.10183794580E+03  0.14185383725E+03  0.00000000000E+00 0.  1.
         21    1    1    2  503  501  0.38724968359E+02 -0.84394139792E+02 -0.16130062048E+03  0.18611793082E+03  0.00000000000E+00 0.  1.
          1    1    1    2  501    0 -0.58470517455E+02  0.22426022204E+03  0.59120500080E+03  0.63500771772E+03  0.00000000000E+00 0. -1.
<scales pt_clust_5="13000.00000" pt_clust_6="13000.00000" pt_clust_7="13000.00000" pt_clust_8="13000.00000" pt_clust_9="92.85469" pt_clust_10="13000.00000"></scales>
<clustering>
<clus scale="   79.680">  5  6 -1 -1</clus>
<clus scale="   92.855">  2  9  1 -1</clus>
<clus scale="  104.438">  7  8 -1 -1</clus>
<clus scale="  116.816">  1  5  2 -1</clus>
<clus scale="  210.767">  7 10 -1 -1</clus>
<clus scale="   92.855">  2  5  1 -1</clus>
</clustering>
</event>
<event>
10    4  0.2565852E-005  0.2013757E+03  0.7546771E-02  0.1178713E+00
         21   -1    0    0  503  502  0.00000000000E+00  0.00000000000E+00  0.27750598954E+03  0.27750598954E+03  0.00000000000E+00 0.  1.
         -3   -1    0    0    0  501 -0.00000000000E+00 -0.00000000000E+00 -0.12830952026E+03  0.12830952026E+03  0.00000000000E+00 0.  1.
         24    2    1    2    0    0  0.46192222972E+02  0.17715108038E+01  0.69146604154E+02  0.11597656380E+03  0.80823578067E+02 0.  0.
         23    2    1    2    0    0 -0.47871014304E+02  0.52978968022E+02 -0.55829691050E+02  0.12804571812E+03  0.90445267777E+02 0.  0.
        -11    1    3    3    0    0  0.67721154541E+02 -0.17126073787E+01  0.64787057126E+02  0.93736068658E+02  0.00000000000E+00 0.  1.
         12    1    3    3    0    0 -0.21528931568E+02  0.34841181826E+01  0.43595470279E+01  0.22240495144E+02  0.00000000000E+00 0. -1.
        -11    1    4    4    0    0 -0.48167262812E+02  0.73609662850E+02 -0.60659378923E+02  0.10685517265E+03  0.00000000000E+00 0.  1.
         11    1    4    4    0    0  0.29624850780E+00 -0.20630694827E+02  0.48296878731E+01  0.21190545467E+02  0.00000000000E+00 0. -1.
         21    1    1    2  503  501  0.27945973970E+02 -0.87962239096E+01  0.78196245199E+02  0.83504513528E+02  0.00000000000E+00 0. -1.
         -4    1    1    2    0  502 -0.26267182638E+02 -0.45954254917E+02  0.57683310978E+02  0.78288714347E+02  0.00000000000E+00 0.  1.
<scales pt_clust_5="13000.00000" pt_clust_6="13000.00000" pt_clust_7="13000.00000" pt_clust_8="13000.00000" pt_clust_9="29.29763" pt_clust_10="13000.00000"></scales>
<clustering>
<clus scale="   29.298">  1  9  2 -1</clus>
<clus scale="   80.824">  5  6 -1 -1</clus>
<clus scale="   90.445">  7  8 -1 -1</clus>
<clus scale="   51.733">  7 10 -1 -1</clus>
<clus scale="  100.300">  2  5  1 -1</clus>
<clus scale="   29.298">  1  5  2 -1</clus>
</clustering>
</event>
<event>
10    4  0.2565852E-005  0.9896973E+03  0.7546771E-02  0.9957768E-01
          2   -1    0    0  502    0 -0.00000000000E+00  0.00000000000E+00  0.15007472145E+04  0.15007472145E+04  0.00000000000E+00 0. -1.
         21   -1    0    0  503  502  0.00000000000E+00 -0.00000000000E+00 -0.27365483518E+03  0.27365483518E+03  0.00000000000E+00 0. -1.
         24    2    1    2    0    0  0.73749468746E+02 -0.29798185243E+02  0.53642751573E+03  0.54828466525E+03  0.80837358547E+02 0.  0.
         23    2    1    2    0    0 -0.19733018492E+03  0.33533539266E+03 -0.42614899264E+02  0.40181867420E+03  0.90847068472E+02 0.  0.
        -13    1    3    3    0    0  0.20797048423E+02 -0.51835218923E+02  0.24829620830E+03  0.25450032259E+03  0.00000000000E+00 0.  1.
         14    1    3    3    0    0  0.52952420323E+02  0.22037033680E+02  0.28813130743E+03  0.29378434266E+03  0.00000000000E+00 0. -1.
        -13    1    4    4    0    0 -0.26948327492E+02  0.55243245184E+02  0.26223119239E+02  0.66825747102E+02  0.00000000000E+00 0.  1.
         13    1    4    4    0    0 -0.17038185742E+03  0.28009214747E+03 -0.68838018502E+02  0.33499292710E+03  0.00000000000E+00 0. -1.
         21    1    1    2  503  501 -0.23411149333E+02 -0.31393496465E+01  0.81127373989E+01  0.24975066314E+02  0.00000000000E+00 0.  1.
          1    1    1    2  501    0  0.14699186550E+03 -0.30239785777E+03  0.72516702543E+03  0.79932364389E+03  0.00000000000E+00 0. -1.
<scales pt_clust_5="13000.00000" pt_clust_6="13000.00000" pt_clust_7="13000.00000" pt_clust_8="13000.00000" pt_clust_9="23.62070" pt_clust_10="13000.00000"></scales>
<clustering>
<clus scale="   23.621">  2  9  1 -1</clus>
<clus scale="   80.837">  5  6 -1 -1</clus>
<clus scale="   90.847">  7  8 -1 -1</clus>
<clus scale="  113.088">  1  5  2 -1</clus>
<clus scale="  383.756">  7 10 -1 -1</clus>
<clus scale="   23.621">  2  5  1 -1</clus>
</clustering>
</event>
<event>
10    4  0.2565852E-005  0.1720120E+03  0.7546771E-02  0.1201215E+00
         -1   -1    0    0    0  501 -0.00000000000E+00  0.00000000000E+00  0.49683587085E+03  0.49683587085E+03  0.00000000000E+00 0.  1.
         21   -1    0    0  501  502  0.00000000000E+00 -0.00000000000E+00 -0.15121268455E+03  0.15121268455E+03  0.00000000000E+00 0.  1.
         24    2    1    2    0    0  0.21419804813E+02 -0.58215032175E+02  0.13004503283E+03  0.16472034438E+03  0.79832845884E+02 0.  0.
         23    2    1    2    0    0  0.78409400117E+01  0.34603230943E+02  0.11260467560E+03  0.14881834402E+03  0.90599241812E+02 0.  0.
        -13    1    3    3    0    0  0.22337331388E+02 -0.60999582717E+02  0.14000302385E+03  0.15433972966E+03  0.00000000000E+00 0.  1.
         14    1    3    3    0    0 -0.91752657525E+00  0.27845505424E+01 -0.99579910245E+01  0.10380614721E+02  0.00000000000E+00 0. -1.
        -11    1    4    4    0    0 -0.33555670283E+02  0.38800875156E+02  0.39662254824E+02  0.64842774298E+02  0.00000000000E+00 0.  1.
         11    1    4    4    0    0  0.41396610294E+02 -0.41976442130E+01  0.72942420779E+02  0.83975569720E+02  0.00000000000E+00 0. -1.
         21    1    1    2  503  502  0.22437006402E+02  0.24800904141E+02 -0.11019526375E+03  0.11515858741E+03  0.00000000000E+00 0.  1.
         -2    1    1    2    0  503 -0.51697751226E+02 -0.11891029096E+01  0.21316874163E+03  0.21935127958E+03  0.00000000000E+00 0.  1.
<scales pt_clust_5="13000.00000" pt_clust_6="13000.00000" pt_clust_7="13000.00000" pt_clust_8="13000.00000" pt_clust_9="33.44404" pt_clust_10="13000.00000"></scales>
<clustering>
<clus scale="   33.444">  2  9  1 -1</clus>
<clus scale="   79.833">  5  6 -1 -1</clus>
<clus scale="   90.599">  7  8 -1 -1</clus>
<clus scale="   49.904">  7 10 -1 -1</clus>
<clus scale="   97.882">  1  5  2 -1</clus>
<clus scale="   33.444">  2  5  1 -1</clus>
</clustering>
</event>
<event>
10    4  0.2565852E-005  0.2156410E+03  0.7546771E-02  0.1165807E+00
          2   -1    0    0  503    0 -0.00000000000E+00  0.00000000000E+00  0.53700649955E+03  0.53700649955E+03  0.00000000000E+00 0. -1.
         21   -1    0    0  501  502  0.00000000000E+00 -0.00000000000E+00 -0.79149050308E+02  0.79149050308E+02  0.00000000000E+00 0. -1.
         24    2    1    2    0    0  0.11995426812E+02  0.71176543307E+02  0.32103233345E+03  0.33888071844E+03  0.81045614511E+02 0.  0.
         23    2    1    2    0    0 -0.11895442039E+02 -0.19735315865E+02  0.15120162349E+03  0.17966819657E+03  0.94274841177E+02 0.  0.
        -11    1    3    3    0    0  0.23811632232E+02 -0.92834785457E+01  0.10452434267E+03  0.10760350837E+03  0.00000000000E+00 0.  1.
         12    1    3    3    0    0 -0.11816205419E+02  0.80460021852E+02  0.21650799078E+03  0.23127721007E+03  0.00000000000E+00 0. -1.
        -13    1    4    4    0    0  0.27116679238E+02 -0.37769627233E+02  0.11289890703E+03  0.12209841212E+03  0.00000000000E+00 0.  1.
         13    1    4    4    0    0 -0.39012121277E+02  0.18034311367E+02  0.38302716457E+02  0.57569784445E+02  0.00000000000E+00 0. -1.
         21    1    1    2  503  502  0.17339015533E+02  0.10491290897E+02  0.16600491765E+02  0.26197041267E+02  0.00000000000E+00 0.  1.
          1    1    1    2  501    0 -0.17439000306E+02 -0.61932518338E+02 -0.30976999460E+02  0.71409593578E+02  0.00000000000E+00 0. -1.
<scales pt_clust_5="13000.00000" pt_clust_6="13000.00000" pt_clust_7="13000.00000" pt_clust_8="13000.00000" pt_clust_9="20.26595" pt_clust_10="13000.00000"></scales>
<clustering>
<clus scale="   20.266">  2  9  1 -1</clus>
<clus scale="   81.046">  5  6 -1 -1</clus>
<clus scale="   94.275">  7  8 -1 -1</clus>
<clus scale="   54.985">  7 10 -1 -1</clus>
<clus scale="  109.606">  1  5  2 -1</clus>
<clus scale="   20.266">  2  5  1 -1</clus>
</clustering>
</event>
<event>
10    4  0.2565852E-005  0.1773805E+03  0.7546771E-02  0.1190691E+00
          2   -1    0    0  503    0 -0.00000000000E+00  0.00000000000E+00  0.85157992908E+03  0.85157992908E+03  0.00000000000E+00 0. -1.
         21   -1    0    0  501  502  0.00000000000E+00 -0.00000000000E+00 -0.63417122999E+02  0.63417122999E+02  0.00000000000E+00 0. -1.
         24    2    1    2    0    0 -0.14966970903E+01  0.84881911760E+02  0.10894781564E+03  0.15920939583E+03  0.79188548047E+02 0.  0.
         23    2    1    2    0    0  0.28772478820E+02 -0.43396446865E+02  0.35711198035E+03  0.37201251592E+03  0.90295284203E+02 0.  0.
        -13    1    3    3    0    0  0.32525472276E+02  0.11471736499E+02  0.40792766511E+02  0.53418694150E+02  0.00000000000E+00 0.  1.
         14    1    3    3    0    0 -0.34022169366E+02  0.73410175261E+02  0.68155049128E+02  0.10579070168E+03  0.00000000000E+00 0. -1.
        -13    1    4    4    0    0  0.17621421778E+02  0.27114440129E+02  0.94988094074E+02  0.10034164332E+03  0.00000000000E+00 0.  1.
         13    1    4    4    0    0  0.11151057041E+02 -0.70510886994E+02  0.26212388628E+03  0.27167087259E+03  0.00000000000E+00 0. -1.
         21    1    1    2  503  502  0.38631577977E+02 -0.13397731327E+02 -0.11572642306E+02  0.42494988783E+02  0.00000000000E+00 0. -1.
          1    1    1    2  501    0 -0.65907359707E+02 -0.28087733568E+02  0.33367565240E+03  0.34128015155E+03  0.00000000000E+00 0. -1.
<scales pt_clust_5="13000.00000" pt_clust_6="13000.00000" pt_clust_7="13000.00000" pt_clust_8="13000.00000" pt_clust_9="40.88885" pt_clust_10="13000.00000"></scales>
<clustering>
<clus scale="   40.889">  2  9  1 -1</clus>
<clus scale="   79.189">  5  6 -1 -1</clus>
<clus scale="   90.295">  7  8 -1 -1</clus>
<clus scale="   68.538">  7 10 -1 -1</clus>
<clus scale="  112.360">  1  5  2 -1</clus>
<clus scale="   40.889">  2  5  1 -1</clus>
</clustering>
</event>
<event>
10    4  0.2565852E-005  0.2548047E+03  0.7546771E-02  0.1147229E+00
          2   -1    0    0  503    0 -0.00000000000E+00  0.00000000000E+00  0.57820597853E+03  0.57820597853E+03  0.00000000000E+00 0. -1.
         21   -1    0    0  501  502  0.00000000000E+00 -0.00000000000E+00 -0.24058049648E+03  0.24058049648E+03  0.00000000000E+00 0.  1.
         24    2    1    2    0    0 -0.59920390081E+02  0.43003194658E+02  0.30589166361E+03  0.32411259155E+03  0.77714440332E+02 0.  0.
         23    2    1    2    0    0 -0.10093339870E+03 -0.56924844916E+02  0.31172926417E+02  0.14944004090E+03  0.89065063525E+02 0.  0.
        -13    1    3    3    0    0 -0.30595888065E+02 -0.15737685232E+02  0.55868282802E+02  0.65612865554E+02  0.00000000000E+00 0.  1.
         14    1    3    3    0    0 -0.29324502016E+02  0.58740879890E+02  0.25002338081E+03  0.25849972600E+03  0.00000000000E+00 0. -1.
        -13    1    4    4    0    0 -0.28976423008E+02 -0.43182503522E+02 -0.24444402053E+02  0.57462078735E+02  0.00000000000E+00 0.  1.
         13    1    4    4    0    0 -0.71956975692E+02 -0.13742341394E+02  0.55617328470E+02  0.91977962165E+02  0.00000000000E+00 0. -1.
         21    1    1    2  503  502  0.93243524754E+02  0.26000829266E+02 -0.15069958643E+03  0.17911103646E+03  0.00000000000E+00 0.  1.
          1    1    1    2  501    0  0.67610264027E+02 -0.12079179008E+02  0.15126047845E+03  0.16612280610E+03  0.00000000000E+00 0. -1.
<scales pt_clust_5="13000.00000" pt_clust_6="13000.00000" pt_clust_7="13000.00000" pt_clust_8="13000.00000" pt_clust_9="96.80082" pt_clust_10="13000.00000"></scales>
<clustering>
<clus scale="   77.714">  5  6 -1 -1</clus>
<clus scale="   89.065">  7  8 -1 -1</clus>
<clus scale="   68.681">  7 10 -1 -1</clus>
<clus scale="   96.801">  2  9  1 -1</clus>
<clus scale="  102.660">  1  5  2 -1</clus>
<clus scale="   96.801">  2  5  1 -1</clus>
</clustering>
</event>
<event>
10    4  0.2565852E-005  0.1556594E+03  0.7546771E-02  0.1206934E+00
         21   -1    0    0  501  502  0.00000000000E+00  0.00000000000E+00  0.22811862961E+03  0.22811862961E+03  0.00000000000E+00 0.  1.
         -3   -1    0    0    0  501 -0.00000000000E+00 -0.00000000000E+00 -0.31077443404E+03  0.31077443404E+03  0.00000000000E+00 0.  1.
         24    2    1    2    0    0 -0.65625405312E+02  0.49682016604E+02 -0.22879171324E+03  0.25581138445E+03  0.79491004337E+02 0.  0.
         23    2    1    2    0    0  0.10084707307E+03 -0.12826014754E+01  0.56454284039E+02  0.14593678601E+03  0.89099282320E+02 0.  0.
        -13    1    3    3    0    0 -0.58572117288E+02  0.32037768340E+02 -0.22712827975E+03  0.23673691513E+03  0.00000000000E+00 0.  1.
         14    1    3    3    0    0 -0.70532880236E+01  0.17644248263E+02 -0.16634334879E+01  0.19074469316E+02  0.00000000000E+00 0. -1.
        -11    1    4    4    0    0  0.14128718494E+02  0.33886615711E+02  0.12840748806E+00  0.36714301017E+02  0.00000000000E+00 0.  1.
         11    1    4    4    0    0  0.86718354578E+02 -0.35169217187E+02  0.56325876551E+02  0.10922248499E+03  0.00000000000E+00 0. -1.
         21    1    1    2  503  502 -0.47182597148E+02 -0.84263883881E+01  0.81615422452E+02  0.94648183696E+02  0.00000000000E+00 0.  1.
         -4    1    1    2    0  503  0.11960929388E+02 -0.39973026740E+02  0.80662023142E+01  0.42496709501E+02  0.00000000000E+00 0.  1.
<scales pt_clust_5="13000.00000" pt_clust_6="13000.00000" pt_clust_7="13000.00000" pt_clust_8="13000.00000" pt_clust_9="47.92913" pt_clust_10="13000.00000"></scales>
<clustering>
<clus scale="   47.929">  1  9  2 -1</clus>
<clus scale="   79.491">  5  6 -1 -1</clus>
<clus scale="   89.099">  7  8 -1 -1</clus>
<clus scale="   41.637">  7 10 -1 -1</clus>
<clus scale="  116.756">  2  5  1 -1</clus>
<clus scale="   47.929">  1  5  2 -1</clus>
</clustering>
</event>
<event>
10    4  0.2565852E-005  0.5534183E+03  0.7546771E-02  0.1063306E+00
         -3   -1    0    0    0  501 -0.00000000000E+00  0.00000000000E+00  0.56498906806E+03  0.56498906806E+03  0.00000000000E+00 0.  1.
         21   -1    0    0  503  502  0.00000000000E+00 -0.00000000000E+00 -0.27126965589E+03  0.27126965589E+03  0.00000000000E+00 0. -1.
         24    2    1    2    0    0  0.21681456917E+02 -0.32287120307E+01  0.23609872006E+03  0.25152560689E+03  0.83916715589E+02 0.  0.
         23    2    1    2    0    0 -0.21774474048E+03 -0.41036217465E+02 -0.13895419232E+03  0.27901136895E+03  0.97171669185E+02 0.  0.
        -11    1    3    3    0    0  0.39538061762E+02  0.28829841030E+02  0.15429016633E+03  0.16186374977E+03  0.00000000000E+00 0.  1.
         12    1    3    3    0    0 -0.17856604845E+02 -0.32058553060E+02  0.81808553724E+02  0.89661857126E+02  0.00000000000E+00 0. -1.
        -11    1    4    4    0    0 -0.72206969862E+02 -0.29424621858E+02 -0.10203329329E+03  0.12841513854E+03  0.00000000000E+00 0. -1.
         11    1    4    4    0    0 -0.14553777061E+03 -0.11611595608E+02 -0.36920899030E+02  0.15059623041E+03  0.00000000000E+00 0.  1.
         21    1    1    2  503  501  0.16362289212E+02  0.11532200218E+02 -0.15872609086E+02  0.25547130354E+02  0.00000000000E+00 0. -1.
         -4    1    1    2    0  502  0.17970099435E+03  0.32732729278E+02  0.21244749351E+03  0.28017461776E+03  0.00000000000E+00 0.  1.
<scales pt_clust_5="13000.00000" pt_clust_6="13000.00000" pt_clust_7="13000.00000" pt_clust_8="13000.00000" pt_clust_9="20.01790" pt_clust_10="13000.00000"></scales>
<clustering>
<clus scale="   20.018">  2  9  1 -1</clus>
<clus scale="   83.917">  5  6 -1 -1</clus>
<clus scale="   86.847">  1  5  2 -1</clus>
<clus scale="   97.172">  7  8 -1 -1</clus>
<clus scale="  202.043">  7 10 -1 -1</clus>
<clus scale="   20.018">  2  5  1 -1</clus>
</clustering>
</event>
<event>
10    4  0.2565852E-005  0.4677610E+03  0.7546771E-02  0.1057065E+00
          2   -1    0    0  502    0 -0.00000000000E+00  0.00000000000E+00  0.11228236372E+04  0.11228236372E+04  0.00000000000E+00 0. -1.
         21   -1    0    0  503  502  0.00000000000E+00 -0.00000000000E+00 -0.28455997116E+03  0.28455997116E+03  0.00000000000E+00 0. -1.
         24    2    1    2    0    0  0.15838625198E+03 -0.69897159837E+02  0.39327870083E+03  0.43677761570E+03  0.78324525413E+02 0.  0.
         23    2    1    2    0    0  0.13540428159E+03 -0.31421106708E+02  0.47915081647E+03  0.50711621169E+03  0.90883121775E+02 0.  0.
        -11    1    3    3    0    0  0.10625884594E+03 -0.51392312607E+01  0.23639209429E+03  0.25922688186E+03  0.00000000000E+00 0.  1.
         12    1    3    3    0    0  0.52127406035E+02 -0.64757928577E+02  0.15688660654E+03  0.17755073384E+03  0.00000000000E+00 0. -1.
        -13    1    4    4    0    0  0.92915760746E+02 -0.39800063826E+02  0.42949144992E+03  0.44122589365E+03  0.00000000000E+00 0. -1.
         13    1    4    4    0    0  0.42488520842E+02  0.83789571184E+01  0.49659366545E+02  0.65890318040E+02  0.00000000000E+00 0.  1.
         21    1    1    2  503  501 -0.12005163252E+03 -0.30978785966E+02 -0.16692008806E+03  0.20792882303E+03  0.00000000000E+00 0. -1.
          1    1    1    2  501    0 -0.17373890105E+03  0.13229705251E+03  0.13275423682E+03  0.25556095796E+03  0.00000000000E+00 0. -1.
<scales pt_clust_5="13000.00000" pt_clust_6="13000.00000" pt_clust_7="13000.00000" pt_clust_8="13000.00000" pt_clust_9="123.98419" pt_clust_10="13000.00000"></scales>
<clustering>
<clus scale="   78.325">  5  6 -1 -1</clus>
<clus scale="   90.883">  7  8 -1 -1</clus>
<clus scale="  123.984">  2  9  1 -1</clus>
<clus scale="  171.266">  1  5  2 -1</clus>
<clus scale="  209.140">  7 10 -1 -1</clus>
<clus scale="  123.984">  2  5  1 -1</clus>
</clustering>
</event>
<event>
10    4  0.2565852E-005  0.2365885E+03  0.7546771E-02  0.1142701E+00
          2   -1    0    0  503    0 -0.00000000000E+00  0.00000000000E+00  0.43281550885E+03  0.43281550885E+03  0.00000000000E+00 0. -1.
         21   -1    0    0  501  502  0.00000000000E+00 -0.00000000000E+00 -0.34768722350E+03  0.34768722350E+03  0.00000000000E+00 0.  1.
         24    2    1    2    0    0  0.18966446260E+02 -0.11771443118E+03  0.20143444747E+03  0.24697816003E+03  0.78777925317E+02 0.  0.
         23    2    1    2    0    0 -0.12386126920E+03  0.61282062854E+02 -0.24385166077E+01  0.16575882063E+03  0.91503743198E+02 0.  0.
        -11    1    3    3    0    0  0.46506793128E+02 -0.47625662135E+02  0.10941082644E+03  0.12806956876E+03  0.00000000000E+00 0.  1.
         12    1    3    3    0    0 -0.27540346869E+02 -0.70088769041E+02  0.92023621025E+02  0.11890859127E+03  0.00000000000E+00 0. -1.
        -13    1    4    4    0    0 -0.91930465214E+02  0.35168666309E+02 -0.43450003290E+02  0.10759158104E+03  0.00000000000E+00 0.  1.
         13    1    4    4    0    0 -0.31930803983E+02  0.26113396546E+02  0.41011486682E+02  0.58167239594E+02  0.00000000000E+00 0. -1.
         21    1    1    2  503  502  0.13835753020E+03  0.47371900302E+02 -0.21547005586E+03  0.26041168959E+03  0.00000000000E+00 0.  1.
          1    1    1    2  501    0 -0.33462707263E+02  0.90604680196E+01  0.10160241035E+03  0.10735406209E+03  0.00000000000E+00 0. -1.
<scales pt_clust_5="13000.00000" pt_clust_6="13000.00000" pt_clust_7="13000.00000" pt_clust_8="13000.00000" pt_clust_9="144.62313" pt_clust_10="13000.00000"></scales>
<clustering>
<clus scale="   78.778">  5  6 -1 -1</clus>
<clus scale="   91.504">  7  8 -1 -1</clus>
<clus scale="   34.668">  7 10 -1 -1</clus>
<clus scale="  142.907">  1  5  2 -1</clus>
<clus scale="  144.623">  2  9  1 -1</clus>
<clus scale="  144.623">  2  5  1 -1</clus>
</clustering>
</event>
<event>
10    4  0.2565852E-005  0.1589486E+03  0.7546771E-02  0.1218827E+00
         21   -1    0    0  503  502  0.00000000000E+00  0.00000000000E+00  0.19237223756E+03  0.19237223756E+03  0.00000000000E+00 0. -1.
          2   -1    0    0  502    0 -0.00000000000E+00 -0.00000000000E+00 -0.29106744452E+03  0.29106744452E+03  0.00000000000E+00 0. -1.
         24    2    1    2    0    0 -0.23675787739E+02 -0.29785437750E+02 -0.17504315286E+02  0.92544300813E+02  0.82524731641E+02 0.  0.
         23    2    1    2    0    0  0.38828031712E+02  0.38439098208E+02 -0.16262600667E+03  0.19510034403E+03  0.92907189575E+02 0.  0.
        -13    1    3    3    0    0 -0.42163293592E+02 -0.82277243249E+01 -0.38134337957E+02  0.57442723695E+02  0.00000000000E+00 0.  1.
         14    1    3    3    0    0  0.18487505853E+02 -0.21557713425E+02  0.20630022671E+02  0.35101577118E+02  0.00000000000E+00 0. -1.
        -11    1    4    4    0    0  0.41227299636E+00 -0.25575730702E+02 -0.78804490442E+02  0.82851890044E+02  0.00000000000E+00 0.  1.
         11    1    4    4    0    0  0.38415758716E+02  0.64014828910E+02 -0.83821516230E+02  0.11224845398E+03  0.00000000000E+00 0. -1.
         21    1    1    2  503  501  0.24111450351E+02  0.18871008869E+02  0.12640275027E+03  0.13005818809E+03  0.00000000000E+00 0. -1.
          1    1    1    2  501    0 -0.39263694325E+02 -0.27524669327E+02 -0.44967635279E+02  0.65736849150E+02  0.00000000000E+00 0. -1.
<scales pt_clust_5="13000.00000" pt_clust_6="13000.00000" pt_clust_7="13000.00000" pt_clust_8="13000.00000" pt_clust_9="30.61825" pt_clust_10="13000.00000"></scales>
<clustering>
<clus scale="   30.618">  1  9  2 -1</clus>
<clus scale="   82.525">  5  6 -1 -1</clus>
<clus scale="   85.167">  2  5  1 -1</clus>
<clus scale="   92.907">  7  8 -1 -1</clus>
<clus scale="   46.566">  7 10 -1 -1</clus>
<clus scale="   30.618">  1  5  2 -1</clus>
</clustering>
</event>
<event>
10    4  0.2565852E-005  0.1777505E+03  0.7546771E-02  0.1200099E+00
          2   -1    0    0  502    0 -0.00000000000E+00  0.00000000000E+00  0.65005963788E+02  0.65005963788E+02  0.00000000000E+00 0. -1.
         21   -1    0    0  503  502  0.00000000000E+00 -0.00000000000E+00 -0.48271140649E+03  0.48271140649E+03  0.00000000000E+00 0.  1.
         24    2    1    2    0    0  0.25573199812E+02  0.50636183636E+02 -0.16439322138E+03  0.18920175909E+03  0.74526255534E+02 0.  0.
         23    2    1    2    0    0 -0.28624716662E+01  0.45990948076E+00 -0.46678088323E+01  0.93754932776E+02  0.93593769663E+02 0.  0.
        -11    1    3    3    0    0  0.13538450838E+02  0.55821695863E+02 -0.16631737367E+03  0.17595687019E+03  0.00000000000E+00 0.  1.
         12    1    3    3    0    0  0.12034748975E+02 -0.51855122263E+01  0.19241522938E+01  0.13244888900E+02  0.00000000000E+00 0. -1.
        -13    1    4    4    0    0 -0.37286331884E+02  0.11805576307E+02 -0.30205264122E+02  0.49416598000E+02  0.00000000000E+00 0.  1.
         13    1    4    4    0    0  0.34423860218E+02 -0.11345666826E+02  0.25537455289E+02  0.44338334775E+02  0.00000000000E+00 0. -1.
         21    1    1    2  503  501 -0.30110330006E+02  0.92893058729E+00 -0.14997582403E+03  0.15297137863E+03  0.00000000000E+00 0.  1.
          1    1    1    2  501    0  0.73996018596E+01 -0.52025023705E+02 -0.98668588463E+02  0.11178929979E+03  0.00000000000E+00 0. -1.
<scales pt_clust_5="13000.00000" pt_clust_6="13000.00000" pt_clust_7="13000.00000" pt_clust_8="13000.00000" pt_clust_9="30.12466" pt_clust_10="13000.00000"></scales>
<clustering>
<clus scale="   30.125">  2  9  1 -1</clus>
<clus scale="   74.526">  5  6 -1 -1</clus>
<clus scale="   90.879">  1  5  2 -1</clus>
<clus scale="   93.594">  7  8 -1 -1</clus>
<clus scale="   44.960">  7 10 -1 -1</clus>
<clus scale="   30.125">  2  5  1 -1</clus>
</clustering>
</event>
<event>
10    4  0.2565852E-005  0.3547762E+03  0.7546771E-02  0.1108867E+00
          2   -1    0    0  503    0 -0.00000000000E+00  0.00000000000E+00  0.85592439390E+03  0.85592439390E+03  0.00000000000E+00 0. -1.
         21   -1    0    0  501  502  0.00000000000E+00 -0.00000000000E+00 -0.27646077304E+03  0.27646077304E+03  0.00000000000E+00 0. -1.
         24    2    1    2    0    0  0.41342812249E+02 -0.11824942817E+02  0.68332625292E+03  0.69037607720E+03  0.88517244929E+02 0.  0.
         23    2    1    2    0    0  0.58696721845E+02 -0.15515451401E+03 -0.31459365240E+02  0.19438203491E+03  0.96314357505E+02 0.  0.
        -11    1    3    3    0    0  0.12084641378E+02  0.20123182431E+02  0.46601694337E+02  0.52179487766E+02  0.00000000000E+00 0.  1.
         12    1    3    3    0    0  0.29258170871E+02 -0.31948125248E+02  0.63672455858E+03  0.63819658944E+03  0.00000000000E+00 0. -1.
        -11    1    4    4    0    0  0.43808821439E+02 -0.53898652524E+02  0.29273832214E+02  0.75373966542E+02  0.00000000000E+00 0.  1.
         11    1    4    4    0    0  0.14887900406E+02 -0.10125586149E+03 -0.60733197454E+02  0.11900806837E+03  0.00000000000E+00 0. -1.
         21    1    1    2  503  502 -0.74654481003E+02  0.90430007132E+01 -0.97425474425E+01  0.75828653070E+02  0.00000000000E+00 0.  1.
          1    1    1    2  501    0 -0.25385053091E+02  0.15793645612E+03 -0.62660719370E+02  0.17179840175E+03  0.00000000000E+00 0. -1.
<scales pt_clust_5="13000.00000" pt_clust_6="13000.00000" pt_clust_7="13000.00000" pt_clust_8="13000.00000" pt_clust_9="75.20018" pt_clust_10="13000.00000"></scales>
<clustering>
<clus scale="   75.200">  2  9  1 -1</clus>
<clus scale="   88.517">  5  6 -1 -1</clus>
<clus scale="   96.314">  7  8 -1 -1</clus>
<clus scale="   97.925">  1  5  2 -1</clus>
<clus scale="  162.981">  7 10 -1 -1</clus>
<clus scale="   75.200">  2  5  1 -1</clus>
</clustering>
</event>
<event>
10    4  0.2565852E-005  0.1822550E+03  0.7546771E-02  0.1200903E+00
         21   -1    0    0  501  502  0.00000000000E+00  0.00000000000E+00  0.15620665008E+03  0.15620665008E+03  0.00000000000E+00 0.  1.
          2   -1    0    0  503    0 -0.00000000000E+00 -0.00000000000E+00 -0.40451857754E+03  0.40451857754E+03  0.00000000000E+00 0. -1.
         24    2    1    2    0    0  0.12111717231E+02  0.21844053284E+02 -0.19468346307E+03  0.21194631852E+03  0.79973337948E+02 0.  0.
         23    2    1    2    0    0  0.19893682707E+01 -0.34892756261E+02 -0.16841959582E+02  0.10097886590E+03  0.93228846021E+02 0.  0.
        -11    1    3    3    0    0 -0.26814267720E+02 -0.10697884422E+02 -0.41305077026E+02  0.50394038066E+02  0.00000000000E+00 0.  1.
         12    1    3    3    0    0  0.38925984950E+02  0.32541937706E+02 -0.15337838605E+03  0.16155228045E+03  0.00000000000E+00 0. -1.
        -11    1    4    4    0    0 -0.17516571306E+02  0.26855745123E+02  0.53887677224E+01  0.32513076354E+02  0.00000000000E+00 0.  1.
         11    1    4    4    0    0  0.19505939577E+02 -0.61748501383E+02 -0.22230727304E+02  0.68465789547E+02  0.00000000000E+00 0. -1.
         21    1    1    2  503  502 -0.78950552991E+02 -0.15612449710E+01  0.80639212260E+02  0.11286412121E+03  0.00000000000E+00 0.  1.
          1    1    1    2  501    0  0.64849467490E+02  0.14609947948E+02 -0.11742571707E+03  0.13493592198E+03  0.00000000000E+00 0. -1.
<scales pt_clust_5="13000.00000" pt_clust_6="13000.00000" pt_clust_7="13000.00000" pt_clust_8="13000.00000" pt_clust_9="78.96599" pt_clust_10="13000.00000"></scales>
<clustering>
<clus scale="   78.966">  1  9  2 -1</clus>
<clus scale="   79.973">  5  6 -1 -1</clus>
<clus scale="   82.846">  2  5  1 -1</clus>
<clus scale="   93.229">  7  8 -1 -1</clus>
<clus scale="   58.898">  7 10 -1 -1</clus>
<clus scale="   78.966">  1  5  2 -1</clus>
</clustering>
</event>
<event>
10    4  0.2565852E-005  0.3193418E+03  0.7546771E-02  0.1095815E+00
          2   -1    0    0  503    0 -0.00000000000E+00  0.00000000000E+00  0.68867273094E+03  0.68867273094E+03  0.00000000000E+00 0. -1.
         21   -1    0    0  501  502  0.00000000000E+00 -0.00000000000E+00 -0.11947467280E+03  0.11947467280E+03  0.00000000000E+00 0. -1.
         24    2    1    2    0    0 -0.15983240547E+03  0.49724322119E+02  0.34853818855E+03  0.39516161395E+03  0.81577731119E+02 0.  0.
         23    2    1    2    0    0 -0.42773975517E+02 -0.32536481833E+01  0.84490409848E+02  0.13574014815E+03  0.97193411589E+02 0.  0.
        -11    1    3    3    0    0 -0.22224752963E+02  0.25576984488E+01  0.13464138372E+03  0.13648730225E+03  0.00000000000E+00 0.  1.
         12    1    3    3    0    0 -0.13760765251E+03  0.47166623670E+02  0.21389680482E+03  0.25867431169E+03  0.00000000000E+00 0. -1.
        -11    1    4    4    0    0  0.58715674087E+01  0.32024649938E+02  0.64775232510E+02  0.72497477571E+02  0.00000000000E+00 0.  1.
         11    1    4    4    0    0 -0.48645542926E+02 -0.35278298121E+02  0.19715177338E+02  0.63242670582E+02  0.00000000000E+00 0. -1.
         21    1    1    2  503  502 -0.32393357796E+01  0.22332343019E+02  0.34106569297E+01  0.22822344789E+02  0.00000000000E+00 0. -1.
          1    1    1    2  501    0  0.20584571677E+03 -0.68803016954E+02  0.13275880282E+03  0.25442329685E+03  0.00000000000E+00 0. -1.
<scales pt_clust_5="13000.00000" pt_clust_6="13000.00000" pt_clust_7="13000.00000" pt_clust_8="13000.00000" pt_clust_9="22.56606" pt_clust_10="13000.00000"></scales>
<clustering>
<clus scale="   22.566">  2  9  1 -1</clus>
<clus scale="   81.578">  5  6 -1 -1</clus>
<clus scale="   97.193">  7  8 -1 -1</clus>
<clus scale="  188.118">  1  5  2 -1</clus>
<clus scale="  107.829">  7 10 -1 -1</clus>
<clus scale="   22.566">  2  5  1 -1</clus>
</clustering>
</event>
<event>
10    4  0.2565852E-005  0.1006535E+04  0.7546771E-02  0.9670593E-01
          2   -1    0    0  503    0 -0.00000000000E+00  0.00000000000E+00  0.32680433127E+04  0.32680433127E+04  0.00000000000E+00 0. -1.
         21   -1    0    0  501  502  0.00000000000E+00 -0.00000000000E+00 -0.17153480304E+03  0.17153480304E+03  0.00000000000E+00 0.  1.
         24    2    1    2    0    0 -0.27536656671E+03  0.22719133170E+02  0.20024910961E+03  0.35076180930E+03  0.81186426770E+02 0.  0.
         23    2    1    2    0    0  0.51404809319E+03 -0.23944812702E+03  0.11169330073E+04  0.12560868835E+04  0.92919688897E+02 0.  0.
        -13    1    3    3    0    0 -0.10363384335E+03  0.46987373476E+02  0.91860578881E+02  0.14624005165E+03  0.00000000000E+00 0.  1.
         14    1    3    3    0    0 -0.17173272337E+03 -0.24268240305E+02  0.10838853073E+03  0.20452175766E+03  0.00000000000E+00 0. -1.
        -11    1    4    4    0    0  0.41398183595E+03 -0.23020748105E+03  0.90160014072E+03  0.10184592572E+04  0.00000000000E+00 0.  1.
         11    1    4    4    0    0  0.10006625723E+03 -0.92406459693E+01  0.21533286655E+03  0.23762762632E+03  0.00000000000E+00 0. -1.
         21    1    1    2  503  502  0.30869167922E+02  0.24882589334E+02  0.23683410026E+02  0.46183900773E+02  0.00000000000E+00 0. -1.
          1    1    1    2  501    0 -0.26955069440E+03  0.19184640451E+03  0.17556429828E+04  0.17865455222E+04  0.00000000000E+00 0. -1.
<scales pt_clust_5="13000.00000" pt_clust_6="13000.00000" pt_clust_7="13000.00000" pt_clust_8="13000.00000" pt_clust_9="39.64907" pt_clust_10="13000.00000"></scales>
<clustering>
<clus scale="   39.649">  2  9  1 -1</clus>
<clus scale="   81.186">  5  6 -1 -1</clus>
<clus scale="   92.920">  7  8 -1 -1</clus>
<clus scale="  275.372">  1  5  2 -1</clus>
<clus scale="  471.998">  7 10 -1 -1</clus>
<clus scale="   39.649">  2  5  1 -1</clus>
</clustering>
</event>
<event>
10    4  0.2565852E-005  0.1365018E+03  0.7546771E-02  0.1231353E+00
          2   -1    0    0  502    0 -0.00000000000E+00  0.00000000000E+00  0.68415948719E+03  0.68415948719E+03  0.00000000000E+00 0. -1.
         21   -1    0    0  503  502  0.00000000000E+00 -0.00000000000E+00 -0.11003476617E+03  0.11003476617E+03  0.00000000000E+00 0. -1.
         24    2    1    2    0    0 -0.46422447869E+02 -0.57264380312E+02  0.51574618853E+03  0.52716833751E+03  0.80486471917E+02 0.  0.
         23    2    1    2    0    0  0.43962738584E+02 -0.49899960088E+00  0.85875513886E+02  0.13828736006E+03  0.99074813568E+02 0.  0.
        -11    1    3    3    0    0 -0.14893481989E+02 -0.49871399265E+02  0.12951534263E+03  0.13958222038E+03  0.00000000000E+00 0.  1.
         12    1    3    3    0    0 -0.31528965880E+02 -0.73929810471E+01  0.38623084590E+03  0.38758611712E+03  0.00000000000E+00 0. -1.
        -11    1    4    4    0    0  0.28226444642E+02  0.14680122851E+02  0.10470545472E+03  0.10943249258E+03  0.00000000000E+00 0.  1.
         11    1    4    4    0    0  0.15736293942E+02 -0.15179122452E+02 -0.18829940837E+02  0.28854867481E+02  0.00000000000E+00 0. -1.
         21    1    1    2  503  501 -0.59839340088E+01  0.80685456266E+02 -0.50344037615E+02  0.95291512961E+02  0.00000000000E+00 0. -1.
          1    1    1    2  501    0  0.84436432946E+01 -0.22922076353E+02  0.22847056218E+02  0.33447042833E+02  0.00000000000E+00 0. -1.
<scales pt_clust_5="13000.00000" pt_clust_6="13000.00000" pt_clust_7="13000.00000" pt_clust_8="13000.00000" pt_clust_9="80.90705" pt_clust_10="13000.00000"></scales>
<clustering>
<clus scale="   80.486">  5  6 -1 -1</clus>
<clus scale="   80.907">  2  9  1 -1</clus>
<clus scale="   99.075">  7  8 -1 -1</clus>
<clus scale="   13.723">  7 10 -1 -1</clus>
<clus scale="  103.604">  1  5  2 -1</clus>
<clus scale="   80.907">  2  5  1 -1</clus>
</clustering>
</event>
<event>
10    4  0.2565852E-005  0.2190055E+03  0.7546771E-02  0.1171388E+00
          2   -1    0    0  503    0 -0.00000000000E+00  0.00000000000E+00  0.77702097943E+03  0.77702097943E+03  0.00000000000E+00 0. -1.
         21   -1    0    0  501  502  0.00000000000E+00 -0.00000000000E+00 -0.14640894080E+03  0.14640894080E+03  0.00000000000E+00 0.  1.
         24    2    1    2    0    0  0.83145753465E+02 -0.28909870794E+01 -0.85039437983E+02  0.14419713033E+03  0.81483325028E+02 0.  0.
         23    2    1    2    0    0 -0.18322572314E+02  0.50067930716E+02  0.39464369912E+03  0.41805007787E+03  0.12719946545E+03 0.  0.
        -13    1    3    3    0    0  0.74895064213E+02 -0.35408576643E+02 -0.62618513363E+02  0.10384659917E+03  0.00000000000E+00 0.  1.
         14    1    3    3    0    0  0.82506892523E+01  0.32517589564E+02 -0.22420924620E+02  0.40350531161E+02  0.00000000000E+00 0. -1.
        -11    1    4    4    0    0  0.23221324257E+02 -0.15328454816E+02  0.17143975714E+02  0.32681911366E+02  0.00000000000E+00 0.  1.
         11    1    4    4    0    0 -0.41543896571E+02  0.65396385531E+02  0.37749972341E+03  0.38536816651E+03  0.00000000000E+00 0. -1.
         21    1    1    2  503  502 -0.56085604515E+02  0.32559014733E+02  0.60811277278E+02  0.88902732907E+02  0.00000000000E+00 0.  1.
          1    1    1    2  501    0 -0.87375766359E+01 -0.79735958370E+02  0.26019650021E+03  0.27227997911E+03  0.00000000000E+00 0. -1.
<scales pt_clust_5="13000.00000" pt_clust_6="13000.00000" pt_clust_7="13000.00000" pt_clust_8="13000.00000" pt_clust_9="64.85128" pt_clust_10="13000.00000"></scales>
<clustering>
<clus scale="   64.851">  2  9  1 -1</clus>
<clus scale="   81.483">  5  6 -1 -1</clus>
<clus scale="   92.062">  1  5  2 -1</clus>
<clus scale="  127.199">  7  8 -1 -1</clus>
<clus scale="   68.636">  7 10 -1 -1</clus>
<clus scale="   64.851">  2  5  1 -1</clus>
</clustering>
</event>
<event>
10    4  0.2565852E-005  0.3083541E+03  0.7546771E-02  0.1125590E+00
         21   -1    0    0  501  502  0.00000000000E+00  0.00000000000E+00  0.10165342170E+03  0.10165342170E+03  0.00000000000E+00 0. -1.
          2   -1    0    0  503    0 -0.00000000000E+00 -0.00000000000E+00 -0.55975837456E+03  0.55975837456E+03  0.00000000000E+00 0. -1.
         24    2    1    2    0    0  0.38311569840E+02  0.42348505232E+02 -0.26193228640E+03  0.28003561712E+03  0.80933626608E+02 0.  0.
         23    2    1    2    0    0  0.89582604553E+02 -0.63520533172E+02 -0.10236330173E+02  0.14794079640E+03  0.98599166382E+02 0.  0.
        -13    1    3    3    0    0 -0.21158037601E+02  0.13381064957E+02 -0.13068043509E+03  0.13305672313E+03  0.00000000000E+00 0.  1.
         14    1    3    3    0    0  0.59469607442E+02  0.28967440275E+02 -0.13125185131E+03  0.14697889399E+03  0.00000000000E+00 0. -1.
        -11    1    4    4    0    0  0.34379634266E+01 -0.38055298075E+02 -0.38029434896E+02  0.53909769268E+02  0.00000000000E+00 0.  1.
         11    1    4    4    0    0  0.86144641127E+02 -0.25465235098E+02  0.27793104723E+02  0.94031027132E+02  0.00000000000E+00 0. -1.
         21    1    1    2  503  502 -0.18259898261E+02 -0.10623254710E+02 -0.92044351196E+01  0.23043416652E+02  0.00000000000E+00 0.  1.
          1    1    1    2  501    0 -0.10963427613E+03  0.31795282650E+02 -0.17673190117E+03  0.21039196608E+03  0.00000000000E+00 0. -1.
<scales pt_clust_5="13000.00000" pt_clust_6="13000.00000" pt_clust_7="13000.00000" pt_clust_8="13000.00000" pt_clust_9="21.12528" pt_clust_10="13000.00000"></scales>
<clustering>
<clus scale="   21.125">  1  9  2 -1</clus>
<clus scale="   80.934">  5  6 -1 -1</clus>
<clus scale="   97.958">  2  5  1 -1</clus>
<clus scale="   98.599">  7  8 -1 -1</clus>
<clus scale="  105.257">  7 10 -1 -1</clus>
<clus scale="   21.125">  1  5  2 -1</clus>
</clustering>
</event>
<event>
10    4  0.2565852E-005  0.2562997E+03  0.7546771E-02  0.1125093E+00
          2   -1    0    0  502    0 -0.00000000000E+00  0.00000000000E+00  0.13884710299E+04  0.13884710299E+04  0.00000000000E+00 0. -1.
         21   -1    0    0  503  502  0.00000000000E+00 -0.00000000000E+00 -0.64847033829E+02  0.64847033829E+02  0.00000000000E+00 0. -1.
         24    2    1    2    0    0  0.49464055866E+02 -0.16822714340E+03  0.62881536403E+03  0.65868367286E+03  0.87797233738E+02 0.  0.
         23    2    1    2    0    0  0.22169669683E+02 -0.21529634431E+02  0.20368995541E+03  0.22240499101E+03  0.83781636890E+02 0.  0.
        -13    1    3    3    0    0  0.15444757454E+02 -0.14791532454E+03  0.40618198085E+03  0.43255206084E+03  0.00000000000E+00 0.  1.
         14    1    3    3    0    0  0.34019298413E+02 -0.20311818860E+02  0.22263338318E+03  0.22613161203E+03  0.00000000000E+00 0. -1.
        -13    1    4    4    0    0  0.43690248384E+02 -0.38450311705E+02  0.16535618520E+03  0.17529955008E+03  0.00000000000E+00 0.  1.
         13    1    4    4    0    0 -0.21520578702E+02  0.16920677274E+02  0.38333770209E+02  0.47105440933E+02  0.00000000000E+00 0. -1.
         21    1    1    2  503  501  0.16765793978E+02  0.72707678729E+02  0.17807684752E+02  0.76711224929E+02  0.00000000000E+00 0. -1.
          1    1    1    2  501    0 -0.88399519527E+02  0.11704909910E+03  0.47331099191E+03  0.49551817496E+03  0.00000000000E+00 0. -1.
<scales pt_clust_5="13000.00000" pt_clust_6="13000.00000" pt_clust_7="13000.00000" pt_clust_8="13000.00000" pt_clust_9="74.61567" pt_clust_10="13000.00000"></scales>
<clustering>
<clus scale="   74.616">  2  9  1 -1</clus>
<clus scale="   83.782">  7  8 -1 -1</clus>
<clus scale="   87.797">  5  6 -1 -1</clus>
<clus scale="  162.704">  7 10 -1 -1</clus>
<clus scale="  172.699">  1  5  2 -1</clus>
<clus scale="   74.616">  2  5  1 -1</clus>
</clustering>
</event>
<event>
10    4  0.2565852E-005  0.1857985E+03  0.7546771E-02  0.1196305E+00
          2   -1    0    0  503    0 -0.00000000000E+00  0.00000000000E+00  0.78015321310E+03  0.78015321310E+03  0.00000000000E+00 0. -1.
         21   -1    0    0  501  502  0.00000000000E+00 -0.00000000000E+00 -0.12313622869E+03  0.12313622869E+03  0.00000000000E+00 0. -1.
         24    2    1    2    0    0  0.30873044260E+02  0.81557184696E+01  0.47660124878E+03  0.48437467739E+03  0.80314489078E+02 0.  0.
         23    2    1    2    0    0  0.39251659161E+02 -0.71387000767E+02  0.11119031423E+03  0.16475529586E+03  0.90245359495E+02 0.  0.
        -13    1    3    3    0    0 -0.24068306165E+02  0.17251102448E+02  0.13015369594E+03  0.13347984292E+03  0.00000000000E+00 0.  1.
         14    1    3    3    0    0  0.54941350425E+02 -0.90953839779E+01  0.34644755283E+03  0.35089483447E+03  0.00000000000E+00 0. -1.
        -13    1    4    4    0    0  0.61890584922E+02 -0.74788909705E+02  0.78490486026E+02  0.12483822297E+03  0.00000000000E+00 0. -1.
         13    1    4    4    0    0 -0.22638925760E+02  0.34019089374E+01  0.32699828201E+02  0.39917072893E+02  0.00000000000E+00 0.  1.
         21    1    1    2  503  502 -0.26306489130E+02  0.10032764800E+03 -0.54933933801E+02  0.11736867302E+03  0.00000000000E+00 0. -1.
          1    1    1    2  501    0 -0.43818214292E+02 -0.37096365702E+02  0.12415935521E+03  0.13679079552E+03  0.00000000000E+00 0. -1.
<scales pt_clust_5="13000.00000" pt_clust_6="13000.00000" pt_clust_7="13000.00000" pt_clust_8="13000.00000" pt_clust_9="103.77862" pt_clust_10="13000.00000"></scales>
<clustering>
<clus scale="   80.314">  5  6 -1 -1</clus>
<clus scale="   86.430">  1  5  2 -1</clus>
<clus scale="   90.245">  7  8 -1 -1</clus>
<clus scale="   45.255">  7 10 -1 -1</clus>
<clus scale="  103.779">  2  9  1 -1</clus>
<clus scale="  103.779">  2  5  1 -1</clus>
</clustering>
</event>
<event>
10    4  0.2565852E-005  0.5902235E+03  0.7546771E-02  0.1056171E+00
          2   -1    0    0  502    0 -0.00000000000E+00  0.00000000000E+00  0.13756337869E+04  0.13756337869E+04  0.00000000000E+00 0. -1.
         21   -1    0    0  503  502  0.00000000000E+00 -0.00000000000E+00 -0.21573331803E+03  0.21573331803E+03  0.00000000000E+00 0. -1.
         24    2    1    2    0    0  0.28306022187E+02 -0.21598630754E+02  0.15770701372E+03  0.18031771116E+03  0.79845119052E+02 0.  0.
         23    2    1    2    0    0  0.27879636149E+03  0.63083752539E+02  0.88653849828E+03  0.93597093668E+03  0.91564809635E+02 0.  0.
        -11    1    3    3    0    0  0.39289995548E+02  0.19379072481E+02  0.65259012836E+02  0.78600196925E+02  0.00000000000E+00 0.  1.
         12    1    3    3    0    0 -0.10983973361E+02 -0.40977703235E+02  0.92448000889E+02  0.10171751423E+03  0.00000000000E+00 0. -1.
        -11    1    4    4    0    0  0.24984808814E+03  0.80493424560E+02  0.82522955316E+03  0.86597175125E+03  0.00000000000E+00 0. -1.
         11    1    4    4    0    0  0.28948273354E+02 -0.17409672022E+02  0.61308945115E+02  0.69999185432E+02  0.00000000000E+00 0.  1.
         21    1    1    2  503  501 -0.76294412600E+02 -0.62688297161E+02 -0.11260731697E+03  0.14977004984E+03  0.00000000000E+00 0. -1.
          1    1    1    2  501    0 -0.23080797108E+03  0.21203175377E+02  0.22826227379E+03  0.32530840720E+03  0.00000000000E+00 0. -1.
<scales pt_clust_5="13000.00000" pt_clust_6="13000.00000" pt_clust_7="13000.00000" pt_clust_8="13000.00000" pt_clust_9="98.62124" pt_clust_10="13000.00000"></scales>
<clustering>
<clus scale="   79.845">  5  6 -1 -1</clus>
<clus scale="   87.424">  1  5  2 -1</clus>
<clus scale="   91.565">  7  8 -1 -1</clus>
<clus scale="   98.621">  2  9  1 -1</clus>
<clus scale="  269.505">  7 10 -1 -1</clus>
<clus scale="   98.621">  2  5  1 -1</clus>
</clustering>
</event>
<event>
10    4  0.2565852E-005  0.3751601E+03  0.7546771E-02  0.1099973E+00
         21   -1    0    0  501  502  0.00000000000E+00  0.00000000000E+00  0.27392619209E+03  0.27392619209E+03  0.00000000000E+00 0.  1.
          2   -1    0    0  503    0 -0.00000000000E+00 -0.00000000000E+00 -0.11302421491E+04  0.11302421491E+04  0.00000000000E+00 0. -1.
         24    2    1    2    0    0 -0.33073264781E+02  0.58144616306E+02 -0.38652170120E+03  0.40029867487E+03  0.79783246085E+02 0.  0.
         23    2    1    2    0    0 -0.45186383818E+02  0.13696078741E+03 -0.45637708790E+03  0.48689501522E+03  0.89368019504E+02 0.  0.
        -11    1    3    3    0    0 -0.51631911824E+02  0.17685873237E+02 -0.27219014621E+03  0.27760785313E+03  0.00000000000E+00 0.  1.
         12    1    3    3    0    0  0.18558647043E+02  0.40458743069E+02 -0.11433155500E+03  0.12269082174E+03  0.00000000000E+00 0. -1.
        -13    1    4    4    0    0 -0.13146526675E+02  0.10047206669E+03 -0.18247065222E+03  0.20871752746E+03  0.00000000000E+00 0. -1.
         13    1    4    4    0    0 -0.32039857143E+02  0.36488720724E+02 -0.27390643568E+03  0.27817748776E+03  0.00000000000E+00 0.  1.
         21    1    1    2  503  502 -0.89518999814E+02 -0.15794276275E+03  0.18178020310E+03  0.25691167718E+03  0.00000000000E+00 0.  1.
          1    1    1    2  501    0  0.16777864841E+03 -0.37162640965E+02 -0.19519737097E+03  0.26006297388E+03  0.00000000000E+00 0. -1.
<scales pt_clust_5="13000.00000" pt_clust_6="13000.00000" pt_clust_7="13000.00000" pt_clust_8="13000.00000" pt_clust_9="179.82403" pt_clust_10="13000.00000"></scales>
<clustering>
<clus scale="   79.783">  5  6 -1 -1</clus>
<clus scale="   89.368">  7  8 -1 -1</clus>
<clus scale="  104.115">  2  5  1 -1</clus>
<clus scale="  158.727">  7 10 -1 -1</clus>
<clus scale="  179.824">  1  9  2 -1</clus>
<clus scale="  179.824">  1  5  2 -1</clus>
</clustering>
</event>
<event>
10    4  0.2565852E-005  0.2026248E+03  0.7546771E-02  0.1182487E+00
         21   -1    0    0  503  502  0.00000000000E+00  0.00000000000E+00  0.39338950832E+03  0.39338950832E+03  0.00000000000E+00 0. -1.
          2   -1    0    0  502    0 -0.00000000000E+00 -0.00000000000E+00 -0.59024384404E+03  0.59024384404E+03  0.00000000000E+00 0. -1.
         24    2    1    2    0    0  0.34772377878E+02  0.16973711036E+02 -0.19799659914E+03  0.21768126983E+03  0.81763419913E+02 0.  0.
         23    2    1    2    0    0  0.41415580919E+02 -0.89713113855E+02 -0.19595742438E+03  0.23796466170E+03  0.92000950599E+02 0.  0.
        -13    1    3    3    0    0  0.50654421471E+01  0.28227117361E+02 -0.15812803937E+02  0.32748643132E+02  0.00000000000E+00 0.  1.
         14    1    3    3    0    0  0.29706935731E+02 -0.11253406324E+02 -0.18218379520E+03  0.18493262670E+03  0.00000000000E+00 0. -1.
        -13    1    4    4    0    0 -0.18327362390E+02 -0.54506834708E+02 -0.13048746034E+03  0.14259686023E+03  0.00000000000E+00 0. -1.
         13    1    4    4    0    0  0.59742943309E+02 -0.35206279147E+02 -0.65469964036E+02  0.95367801471E+02  0.00000000000E+00 0.  1.
         21    1    1    2  503  501 -0.10164427304E+03  0.33116951060E+02  0.35106474732E+03  0.36698058191E+03  0.00000000000E+00 0. -1.
          1    1    1    2  501    0  0.25456314243E+02  0.39622451758E+02 -0.15396505953E+03  0.16100683890E+03  0.00000000000E+00 0. -1.
<scales pt_clust_5="13000.00000" pt_clust_6="13000.00000" pt_clust_7="13000.00000" pt_clust_8="13000.00000" pt_clust_9="106.32606" pt_clust_10="13000.00000"></scales>
<clustering>
<clus scale="   81.763">  5  6 -1 -1</clus>
<clus scale="   90.457">  2  5  1 -1</clus>
<clus scale="   92.001">  7  8 -1 -1</clus>
<clus scale="   61.278">  7 10 -1 -1</clus>
<clus scale="  106.326">  1  9  2 -1</clus>
<clus scale="  106.326">  1  5  2 -1</clus>
</clustering>
</event>
<event>
10    4  0.2565852E-005  0.3122311E+03  0.7546771E-02  0.1128943E+00
         21   -1    0    0  501  502  0.00000000000E+00  0.00000000000E+00  0.91371367126E+02  0.91371367126E+02  0.00000000000E+00 0. -1.
          2   -1    0    0  503    0 -0.00000000000E+00 -0.00000000000E+00 -0.13517169760E+04  0.13517169760E+04  0.00000000000E+00 0. -1.
         24    2    1    2    0    0  0.19853418863E+02 -0.28864652782E+02 -0.97266241414E+03  0.97653832388E+03  0.79546211160E+02 0.  0.
         23    2    1    2    0    0  0.43440752037E+02 -0.12236430458E+03 -0.12897072461E+03  0.20480646385E+03  0.91935400445E+02 0.  0.
        -11    1    3    3    0    0 -0.19737809131E+02 -0.11267920228E+02 -0.90416893816E+02  0.93229618807E+02  0.00000000000E+00 0.  1.
         12    1    3    3    0    0  0.39591227994E+02 -0.17596732554E+02 -0.88224552032E+03  0.88330870507E+03  0.00000000000E+00 0. -1.
        -11    1    4    4    0    0 -0.25016822645E+02 -0.23927281935E+02 -0.10320795480E+02  0.36123054347E+02  0.00000000000E+00 0.  1.
         11    1    4    4    0    0  0.68457574682E+02 -0.98437022642E+02 -0.11864992913E+03  0.16868340950E+03  0.00000000000E+00 0. -1.
         21    1    1    2  503  502  0.31457133978E+02  0.29052004301E+02 -0.39818615070E+01  0.43004946844E+02  0.00000000000E+00 0.  1.
          1    1    1    2  501    0 -0.94751304878E+02  0.12217695306E+03 -0.15473060866E+03  0.21873860860E+03  0.00000000000E+00 0. -1.
<scales pt_clust_5="13000.00000" pt_clust_6="13000.00000" pt_clust_7="13000.00000" pt_clust_8="13000.00000" pt_clust_9="42.82021" pt_clust_10="13000.00000"></scales>
<clustering>
<clus scale="   42.820">  1  9  2 -1</clus>
<clus scale="   79.546">  5  6 -1 -1</clus>
<clus scale="   86.860">  2  5  1 -1</clus>
<clus scale="   91.935">  7  8 -1 -1</clus>
<clus scale="  138.638">  7 10 -1 -1</clus>
<clus scale="   42.820">  1  5  2 -1</clus>
</clustering>
</event>
<event>
10    4  0.3201158E-005  0.6102153E+03  0.7546771E-02  0.1017493E+00
          2   -1    0    0  503    0 -0.00000000000E+00  0.00000000000E+00  0.64244694909E+03  0.64244694909E+03  0.00000000000E+00 0. -1.
         21   -1    0    0  501  502  0.00000000000E+00 -0.00000000000E+00 -0.14869850822E+04  0.14869850822E+04  0.00000000000E+00 0. -1.
         24    2    1    2    0    0 -0.22791561852E+03 -0.38306652990E+02 -0.76854735425E+03  0.80682744770E+03  0.83021477964E+02 0.  0.
         23    2    1    2    0    0  0.35958839772E+02  0.26443089784E+02 -0.10621691524E+03  0.14687292129E+03  0.91089773135E+02 0.  0.
        -11    1    3    3    0    0 -0.16848383352E+03  0.93926382537E+01 -0.50217200549E+03  0.52976574720E+03  0.00000000000E+00 0.  1.
         12    1    3    3    0    0 -0.59431784993E+02 -0.47699291244E+02 -0.26637534876E+03  0.27706170050E+03  0.00000000000E+00 0. -1.
        -11    1    4    4    0    0 -0.71895201174E+00 -0.32201538705E+02 -0.36090533379E+02  0.48373366500E+02  0.00000000000E+00 0.  1.
         11    1    4    4    0    0  0.36677791783E+02  0.58644628489E+02 -0.70126381865E+02  0.98499554792E+02  0.00000000000E+00 0. -1.
         21    1    1    2  503  502  0.17062787927E+03  0.20072084959E+03 -0.52580793069E+03  0.58811284004E+03  0.00000000000E+00 0. -1.
          1    1    1    2  501    0  0.21328899478E+02 -0.18885728639E+03  0.55603406706E+03  0.58761882228E+03  0.00000000000E+00 0. -1.
<scales pt_clust_5="13000.00000" pt_clust_6="13000.00000" pt_clust_7="13000.00000" pt_clust_8="13000.00000" pt_clust_9="254.71614" pt_clust_10="13000.00000"></scales>
<clustering>
<clus scale="   83.021">  5  6 -1 -1</clus>
<clus scale="   91.090">  7  8 -1 -1</clus>
<clus scale="  190.058">  7 10 -1 -1</clus>
<clus scale="  245.572">  1  5  2 -1</clus>
<clus scale="  254.716">  2  9  1 -1</clus>
<clus scale="  254.716">  2  5  1 -1</clus>
</clustering>
</event>
<event>
10    4  0.2565852E-005  0.1518818E+03  0.7546771E-02  0.1213977E+00
          2   -1    0    0  502    0 -0.00000000000E+00  0.00000000000E+00  0.81298327592E+02  0.81298327592E+02  0.00000000000E+00 0. -1.
         21   -1    0    0  503  502  0.00000000000E+00 -0.00000000000E+00 -0.51116678298E+03  0.51116678298E+03  0.00000000000E+00 0.  1.
         24    2    1    2    0    0  0.37878091123E+02  0.57502228651E+02 -0.29930172464E+03  0.31737190485E+03  0.80013420904E+02 0.  0.
         23    2    1    2    0    0  0.30207961054E+02 -0.62413752430E+02  0.61709098990E+01  0.11561535956E+03  0.92308362745E+02 0.  0.
        -11    1    3    3    0    0  0.13639690220E+02  0.66446743607E+02 -0.26961508986E+03  0.27801709941E+03  0.00000000000E+00 0.  1.
         12    1    3    3    0    0  0.24238400904E+02 -0.89445149565E+01 -0.29686634790E+02  0.39354805441E+02  0.00000000000E+00 0. -1.
        -13    1    4    4    0    0 -0.53333800907E+01 -0.28276800371E+02  0.44631410300E+02  0.53103532535E+02  0.00000000000E+00 0.  1.
         13    1    4    4    0    0  0.35541341145E+02 -0.34136952059E+02 -0.38460500401E+02  0.62511827020E+02  0.00000000000E+00 0. -1.
         21    1    1    2  503  501 -0.42117096545E+02  0.19365277891E+02 -0.11051347850E+03  0.11984194900E+03  0.00000000000E+00 0.  1.
          1    1    1    2  501    0 -0.25968955633E+02 -0.14453754111E+02 -0.26224162140E+02  0.39635897171E+02  0.00000000000E+00 0. -1.
<scales pt_clust_5="13000.00000" pt_clust_6="13000.00000" pt_clust_7="13000.00000" pt_clust_8="13000.00000" pt_clust_9="46.35584" pt_clust_10="13000.00000"></scales>
<clustering>
<clus scale="   46.356">  2  9  1 -1</clus>
<clus scale="   80.013">  5  6 -1 -1</clus>
<clus scale="   92.308">  7  8 -1 -1</clus>
<clus scale="   32.148">  7 10 -1 -1</clus>
<clus scale="  108.148">  1  5  2 -1</clus>
<clus scale="   46.356">  2  5  1 -1</clus>
</clustering>
</event>
<event>
10    4  0.2565852E-005  0.3412118E+03  0.7546771E-02  0.1071779E+00
          2   -1    0    0  503    0 -0.00000000000E+00  0.00000000000E+00  0.11453396678E+04  0.11453396678E+04  0.00000000000E+00 0. -1.
         21   -1    0    0  501  502  0.00000000000E+00 -0.00000000000E+00 -0.28587155855E+03  0.28587155855E+03  0.00000000000E+00 0. -1.
         24    2    1    2    0    0  0.25199174912E+03  0.53075445246E+02 -0.42405216111E+01  0.27000555016E+03  0.81044250779E+02 0.  0.
         23    2    1    2    0    0 -0.28853573401E+03 -0.50977088452E+02  0.82015823746E+03  0.87562600685E+03  0.90608145608E+02 0.  0.
        -11    1    3    3    0    0  0.15902244377E+03 -0.57064216653E+01  0.80444012619E+01  0.15932800527E+03  0.00000000000E+00 0.  1.
         12    1    3    3    0    0  0.92969305347E+02  0.58781866911E+02 -0.12284922873E+02  0.11067754490E+03  0.00000000000E+00 0. -1.
        -13    1    4    4    0    0 -0.27296608817E+03 -0.26770748817E+02  0.77473141855E+03  0.82184909148E+03  0.00000000000E+00 0. -1.
         13    1    4    4    0    0 -0.15569645842E+02 -0.24206339635E+02  0.45426818910E+02  0.53776915367E+02  0.00000000000E+00 0.  1.
         21    1    1    2  503  502  0.23105736092E+02  0.29922303567E+02 -0.11614985547E+03  0.12214748551E+03  0.00000000000E+00 0. -1.
          1    1    1    2  501    0  0.13438248807E+02 -0.32020660361E+02  0.15970024882E+03  0.16343218378E+03  0.00000000000E+00 0. -1.
<scales pt_clust_5="13000.00000" pt_clust_6="13000.00000" pt_clust_7="13000.00000" pt_clust_8="13000.00000" pt_clust_9="37.80502" pt_clust_10="13000.00000"></scales>
<clustering>
<clus scale="   37.805">  2  9  1 -1</clus>
<clus scale="   81.044">  5  6 -1 -1</clus>
<clus scale="   90.608">  7  8 -1 -1</clus>
<clus scale="   34.519">  7 10 -1 -1</clus>
<clus scale="  293.329">  1  5  2 -1</clus>
<clus scale="   37.805">  2  5  1 -1</clus>
</clustering>
</event>
<event>
10    4  0.2565852E-005  0.5354360E+03  0.7546771E-02  0.1061403E+00
         21   -1    0    0  503  502  0.00000000000E+00  0.00000000000E+00  0.10534466426E+03  0.10534466426E+03  0.00000000000E+00 0. -1.
          2   -1    0    0  502    0 -0.00000000000E+00 -0.00000000000E+00 -0.11158626071E+04  0.11158626071E+04  0.00000000000E+00 0. -1.
         24    2    1    2    0    0 -0.37168185607E+02  0.40416455738E+02 -0.21340213989E+03  0.23518696283E+03  0.82203833621E+02 0.  0.
         23    2    1    2    0    0  0.15640044223E+03 -0.26036746611E+03 -0.39802034529E+03  0.50988856103E+03  0.96508205149E+02 0.  0.
        -11    1    3    3    0    0 -0.23057704648E+02  0.56275014708E+02 -0.20227595850E+03  0.21122049714E+03  0.00000000000E+00 0.  1.
         12    1    3    3    0    0 -0.14110480960E+02 -0.15858558970E+02 -0.11126181383E+02  0.23966465690E+02  0.00000000000E+00 0. -1.
        -13    1    4    4    0    0  0.36761520424E+02 -0.42648390761E+02 -0.24744666019E+02  0.61502789488E+02  0.00000000000E+00 0.  1.
         13    1    4    4    0    0  0.11963892181E+03 -0.21771907535E+03 -0.37327567927E+03  0.44838577154E+03  0.00000000000E+00 0. -1.
         21    1    1    2  503  501 -0.22103835227E+02  0.27021446497E+02 -0.21149801768E+02  0.40817302916E+02  0.00000000000E+00 0. -1.
          1    1    1    2  501    0 -0.97128421396E+02  0.19292956388E+03 -0.37794565594E+03  0.43531444463E+03  0.00000000000E+00 0. -1.
<scales pt_clust_5="13000.00000" pt_clust_6="13000.00000" pt_clust_7="13000.00000" pt_clust_8="13000.00000" pt_clust_9="34.91043" pt_clust_10="13000.00000"></scales>
<clustering>
<clus scale="   34.910">  1  9  2 -1</clus>
<clus scale="   82.204">  5  6 -1 -1</clus>
<clus scale="   96.508">  7  8 -1 -1</clus>
<clus scale="  101.118">  2  5  1 -1</clus>
<clus scale="  256.142">  7 10 -1 -1</clus>
<clus scale="   34.910">  1  5  2 -1</clus>
</clustering>
</event>
<event>
10    4  0.2565852E-005  0.2355683E+03  0.7546771E-02  0.1167862E+00
         21   -1    0    0  503  502  0.00000000000E+00  0.00000000000E+00  0.26118438081E+03  0.26118438081E+03  0.00000000000E+00 0.  1.
          2   -1    0    0  502    0 -0.00000000000E+00 -0.00000000000E+00 -0.40391359748E+03  0.40391359748E+03  0.00000000000E+00 0. -1.
         24    2    1    2    0    0 -0.77677694654E+01 -0.20239331722E+02 -0.49868415714E+02  0.96075046820E+02  0.79205977961E+02 0.  0.
         23    2    1    2    0    0  0.19586117307E+02 -0.48848181995E+02 -0.25604185980E+02  0.10394417165E+03  0.85901429588E+02 0.  0.
        -11    1    3    3    0    0 -0.11265407263E+02  0.26708143591E+02 -0.21873553526E+01  0.29069208078E+02  0.00000000000E+00 0.  1.
         12    1    3    3    0    0  0.34976377972E+01 -0.46947475312E+02 -0.47681060361E+02  0.67005838742E+02  0.00000000000E+00 0. -1.
        -13    1    4    4    0    0 -0.33754063935E+02 -0.12748935055E+02 -0.56835960777E+01  0.36526366388E+02  0.00000000000E+00 0. -1.
         13    1    4    4    0    0  0.53340181242E+02 -0.36099246940E+02 -0.19920589902E+02  0.67417805264E+02  0.00000000000E+00 0.  1.
         21    1    1    2  503  501  0.15938804811E+02  0.22134119043E+02  0.19515829461E+03  0.19705513107E+03  0.00000000000E+00 0.  1.
          1    1    1    2  501    0 -0.27757152652E+02  0.46953394674E+02 -0.26241490959E+03  0.26802362875E+03  0.00000000000E+00 0. -1.
<scales pt_clust_5="13000.00000" pt_clust_6="13000.00000" pt_clust_7="13000.00000" pt_clust_8="13000.00000" pt_clust_9="27.27572" pt_clust_10="13000.00000"></scales>
<clustering>
<clus scale="   27.276">  1  9  2 -1</clus>
<clus scale="   79.206">  5  6 -1 -1</clus>
<clus scale="   80.196">  2  5  1 -1</clus>
<clus scale="   85.901">  7  8 -1 -1</clus>
<clus scale="   47.562">  7 10 -1 -1</clus>
<clus scale="   27.276">  1  5  2 -1</clus>
</clustering>
</event>
<event>
10    4  0.2565852E-005  0.1357439E+04  0.7546771E-02  0.9269731E-01
          2   -1    0    0  503    0 -0.00000000000E+00  0.00000000000E+00  0.31884916154E+04  0.31884916154E+04  0.00000000000E+00 0. -1.
         21   -1    0    0  501  502  0.00000000000E+00 -0.00000000000E+00 -0.32261251313E+03  0.32261251313E+03  0.00000000000E+00 0. -1.
         24    2    1    2    0    0  0.24638170960E+03  0.35786300880E+03  0.60037154447E+03  0.74529290034E+03  0.79029336301E+02 0.  0.
         23    2    1    2    0    0 -0.20867592474E+03  0.22180305608E+03  0.15037189488E+02  0.31872544636E+03  0.92830791404E+02 0.  0.
        -13    1    3    3    0    0  0.80227046652E+02  0.13656698687E+03  0.28223638892E+03  0.32364224099E+03  0.00000000000E+00 0.  1.
         14    1    3    3    0    0  0.16615466294E+03  0.22129602192E+03  0.31813515555E+03  0.42165065935E+03  0.00000000000E+00 0. -1.
        -11    1    4    4    0    0 -0.27137897882E+02  0.54220920215E+02 -0.29907994361E+02  0.67608149044E+02  0.00000000000E+00 0.  1.
         11    1    4    4    0    0 -0.18153802686E+03  0.16758213587E+03  0.44945183849E+02  0.25111729731E+03  0.00000000000E+00 0. -1.
         21    1    1    2  503  502  0.10448085081E+03  0.12530238207E+02 -0.10287824387E+02  0.10573123657E+03  0.00000000000E+00 0.  1.
          1    1    1    2  501    0 -0.14218663567E+03 -0.59219630309E+03  0.22607581927E+04  0.23413545453E+04  0.00000000000E+00 0. -1.
<scales pt_clust_5="13000.00000" pt_clust_6="13000.00000" pt_clust_7="13000.00000" pt_clust_8="13000.00000" pt_clust_9="105.22954" pt_clust_10="13000.00000"></scales>
<clustering>
<clus scale="   79.029">  5  6 -1 -1</clus>
<clus scale="   92.831">  7  8 -1 -1</clus>
<clus scale="  105.230">  2  9  1 -1</clus>
<clus scale="  460.870">  1  5  2 -1</clus>
<clus scale="  285.516">  7 10 -1 -1</clus>
<clus scale="  105.230">  2  5  1 -1</clus>
</clustering>
</event>
<event>
10    4  0.2565852E-005  0.1921050E+03  0.7546771E-02  0.1188430E+00
         21   -1    0    0  503  502  0.00000000000E+00  0.00000000000E+00  0.67659642285E+02  0.67659642285E+02  0.00000000000E+00 0.  1.
          2   -1    0    0  502    0 -0.00000000000E+00 -0.00000000000E+00 -0.10758153863E+04  0.10758153863E+04  0.00000000000E+00 0. -1.
         24    2    1    2    0    0 -0.41131860439E+02  0.50436533931E+02 -0.13439190386E+03  0.16956474480E+03  0.80345161384E+02 0.  0.
         23    2    1    2    0    0 -0.30032593622E+02 -0.98009516298E+02 -0.69593048264E+03  0.70935822627E+03  0.91444160856E+02 0.  0.
        -13    1    3    3    0    0 -0.41522888500E+02 -0.10042660810E+02 -0.50524505552E+02  0.66164423724E+02  0.00000000000E+00 0.  1.
         14    1    3    3    0    0  0.39102806067E+00  0.60479194741E+02 -0.83867398310E+02  0.10340032108E+03  0.00000000000E+00 0. -1.
        -11    1    4    4    0    0 -0.43614402956E+02 -0.64358797862E+01 -0.25936018407E+03  0.26308048536E+03  0.00000000000E+00 0. -1.
         11    1    4    4    0    0  0.13581809335E+02 -0.91573636512E+02 -0.43657029857E+03  0.44627774092E+03  0.00000000000E+00 0.  1.
         21    1    1    2  503  501  0.66670792937E+02 -0.57827958684E+01  0.11403535683E+02  0.67885756864E+02  0.00000000000E+00 0.  1.
          1    1    1    2  501    0  0.44936611242E+01  0.53355778236E+02 -0.18923689315E+03  0.19666630060E+03  0.00000000000E+00 0. -1.
<scales pt_clust_5="13000.00000" pt_clust_6="13000.00000" pt_clust_7="13000.00000" pt_clust_8="13000.00000" pt_clust_9="66.92111" pt_clust_10="13000.00000"></scales>
<clustering>
<clus scale="   66.921">  1  9  2 -1</clus>
<clus scale="   80.345">  5  6 -1 -1</clus>
<clus scale="   91.444">  7  8 -1 -1</clus>
<clus scale="   54.253">  7 10 -1 -1</clus>
<clus scale="   92.988">  2  5  1 -1</clus>
<clus scale="   66.921">  1  5  2 -1</clus>
</clustering>
</event>
<event>
10    4  0.2565852E-005  0.3911767E+03  0.7546771E-02  0.1048301E+00
          2   -1    0    0  502    0 -0.00000000000E+00  0.00000000000E+00  0.21631018432E+04  0.21631018432E+04  0.00000000000E+00 0. -1.
         21   -1    0    0  503  502  0.00000000000E+00 -0.00000000000E+00 -0.29015635314E+03  0.29015635314E+03  0.00000000000E+00 0.  1.
         24    2    1    2    0    0 -0.70066683511E+02  0.37786714152E+03  0.18640705335E+04  0.19050333127E+04  0.81853844547E+02 0.  0.
         23    2    1    2    0    0 -0.15773969915E+02 -0.21367324159E+03  0.13393866308E+03  0.26888250597E+03  0.91941091206E+02 0.  0.
        -11    1    3    3    0    0 -0.79710646811E+02  0.25994783685E+03  0.11908081085E+04  0.12214543038E+04  0.00000000000E+00 0.  1.
         12    1    3    3    0    0  0.96439633000E+01  0.11791930467E+03  0.67326242504E+03  0.68357900890E+03  0.00000000000E+00 0. -1.
        -11    1    4    4    0    0 -0.34828347983E+02 -0.19386293872E+03  0.88856519507E+02  0.21608177593E+03  0.00000000000E+00 0.  1.
         11    1    4    4    0    0  0.19054378067E+02 -0.19810302869E+02  0.45082143574E+02  0.52800730037E+02  0.00000000000E+00 0. -1.
         21    1    1    2  503  501  0.42454548527E+02 -0.94192942395E+02 -0.15953056291E+03  0.19006498781E+03  0.00000000000E+00 0.  1.
          1    1    1    2  501    0  0.43386104899E+02 -0.70000957535E+02  0.34466856400E+02  0.89277389882E+02  0.00000000000E+00 0. -1.
<scales pt_clust_5="13000.00000" pt_clust_6="13000.00000" pt_clust_7="13000.00000" pt_clust_8="13000.00000" pt_clust_9="103.31844" pt_clust_10="13000.00000"></scales>
<clustering>
<clus scale="   81.854">  5  6 -1 -1</clus>
<clus scale="   91.941">  7  8 -1 -1</clus>
<clus scale="   82.356">  7 10 -1 -1</clus>
<clus scale="  103.318">  2  9  1 -1</clus>
<clus scale="  375.546">  1  5  2 -1</clus>
<clus scale="  103.318">  2  5  1 -1</clus>
</clustering>
</event>
<event>
10    4  0.2565852E-005  0.1574478E+03  0.7546771E-02  0.1217159E+00
         21   -1    0    0  503  502  0.00000000000E+00  0.00000000000E+00  0.36093505150E+03  0.36093505150E+03  0.00000000000E+00 0. -1.
          2   -1    0    0  502    0 -0.00000000000E+00 -0.00000000000E+00 -0.42250564614E+03  0.42250564614E+03  0.00000000000E+00 0. -1.
         24    2    1    2    0    0 -0.31527806976E+02  0.55027377691E+02 -0.15928729025E+03  0.18921203576E+03  0.80042106005E+02 0.  0.
         23    2    1    2    0    0  0.21978376586E+02 -0.17457201843E+02 -0.82841367455E+02  0.12832700296E+03  0.93900610189E+02 0.  0.
        -13    1    3    3    0    0  0.41930166873E+01  0.64605429758E+02 -0.10923103868E+03  0.12697583532E+03  0.00000000000E+00 0.  1.
         14    1    3    3    0    0 -0.35720823664E+02 -0.95780520680E+01 -0.50056251571E+02  0.62236200446E+02  0.00000000000E+00 0. -1.
        -11    1    4    4    0    0  0.47995854349E+02 -0.27896593164E+01 -0.85760987679E+02  0.98317502213E+02  0.00000000000E+00 0.  1.
         11    1    4    4    0    0 -0.26017477763E+02 -0.14667542527E+02  0.29196202244E+01  0.30009500749E+02  0.00000000000E+00 0. -1.
         21    1    1    2  503  501  0.15931999397E+00 -0.68965516738E+02  0.31759726603E+03  0.32499890965E+03  0.00000000000E+00 0. -1.
          1    1    1    2  501    0  0.93901103964E+01  0.31395340891E+02 -0.13703920296E+03  0.14090274927E+03  0.00000000000E+00 0. -1.
<scales pt_clust_5="13000.00000" pt_clust_6="13000.00000" pt_clust_7="13000.00000" pt_clust_8="13000.00000" pt_clust_9="68.96570" pt_clust_10="13000.00000"></scales>
<clustering>
<clus scale="   68.966">  1  9  2 -1</clus>
<clus scale="   80.042">  5  6 -1 -1</clus>
<clus scale="   90.761">  2  5  1 -1</clus>
<clus scale="   93.901">  7  8 -1 -1</clus>
<clus scale="   40.689">  7 10 -1 -1</clus>
<clus scale="   68.966">  1  5  2 -1</clus>
</clustering>
</event>
<event>
10    4  0.2565852E-005  0.3676205E+03  0.7546771E-02  0.1072000E+00
         21   -1    0    0  503  502  0.00000000000E+00  0.00000000000E+00  0.64334587486E+02  0.64334587486E+02  0.00000000000E+00 0.  1.
         -3   -1    0    0    0  501 -0.00000000000E+00 -0.00000000000E+00 -0.16988271277E+04  0.16988271277E+04  0.00000000000E+00 0.  1.
         24    2    1    2    0    0 -0.18702037106E+03 -0.10571074753E+03 -0.90564803465E+03  0.93462278102E+03  0.84675845438E+02 0.  0.
         23    2    1    2    0    0  0.61476068950E+02 -0.71485918411E+02 -0.33320564640E+03  0.35791639727E+03  0.90490889382E+02 0.  0.
        -11    1    3    3    0    0 -0.16353937156E+03 -0.11158988809E+03 -0.86451925890E+03  0.88689964380E+03  0.00000000000E+00 0.  1.
         12    1    3    3    0    0 -0.23480999493E+02  0.58791405532E+01 -0.41128775758E+02  0.47723137221E+02  0.00000000000E+00 0. -1.
        -13    1    4    4    0    0  0.83991310965E+02 -0.48348701884E+02 -0.27144952038E+03  0.28823077457E+03  0.00000000000E+00 0.  1.
         13    1    4    4    0    0 -0.22515242015E+02 -0.23137216526E+02 -0.61756126013E+02  0.69685622705E+02  0.00000000000E+00 0. -1.
         21    1    1    2  503  501  0.37465976169E+00 -0.20570215517E+02 -0.26697896254E+02  0.33705367536E+02  0.00000000000E+00 0.  1.
         -4    1    1    2    0  502  0.12516964234E+03  0.19776688146E+03 -0.36894096294E+03  0.43691716938E+03  0.00000000000E+00 0.  1.
<scales pt_clust_5="13000.00000" pt_clust_6="13000.00000" pt_clust_7="13000.00000" pt_clust_8="13000.00000" pt_clust_9="20.57363" pt_clust_10="13000.00000"></scales>
<clustering>
<clus scale="   20.574">  1  9  2 -1</clus>
<clus scale="   84.676">  5  6 -1 -1</clus>
<clus scale="   90.491">  7  8 -1 -1</clus>
<clus scale="  224.539">  7 10 -1 -1</clus>
<clus scale="  233.126">  2  5  1 -1</clus>
<clus scale="   20.574">  1  5  2 -1</clus>
</clustering>
</event>
<event>
10    4  0.2565852E-005  0.3253500E+03  0.7546771E-02  0.1113473E+00
          2   -1    0    0  503    0 -0.00000000000E+00  0.00000000000E+00  0.96127579520E+03  0.96127579520E+03  0.00000000000E+00 0. -1.
         21   -1    0    0  501  502  0.00000000000E+00 -0.00000000000E+00 -0.85767797480E+02  0.85767797480E+02  0.00000000000E+00 0. -1.
         24    2    1    2    0    0  0.67564843408E+02  0.34832446996E+02  0.50126779506E+03  0.51370730759E+03  0.82749550361E+02 0.  0.
         23    2    1    2    0    0  0.92151259409E+02 -0.31141195949E+02  0.17619538192E+03  0.22159632290E+03  0.92728037923E+02 0.  0.
        -11    1    3    3    0    0  0.35987163070E+02 -0.19005466413E+02  0.10604109590E+03  0.11358255887E+03  0.00000000000E+00 0.  1.
         12    1    3    3    0    0  0.31577680337E+02  0.53837913408E+02  0.39522669915E+03  0.40012474872E+03  0.00000000000E+00 0. -1.
        -13    1    4    4    0    0  0.30123014986E+02 -0.55196056169E+02  0.11566003669E+03  0.13164818546E+03  0.00000000000E+00 0.  1.
         13    1    4    4    0    0  0.62028244423E+02  0.24054860219E+02  0.60535345229E+02  0.89948137437E+02  0.00000000000E+00 0. -1.
         21    1    1    2  503  502  0.29554402353E+02 -0.38097331881E+02  0.35222300519E+02  0.59711639140E+02  0.00000000000E+00 0.  1.
          1    1    1    2  501    0 -0.18927050517E+03  0.34406080835E+02  0.16282252023E+03  0.25202832305E+03  0.00000000000E+00 0. -1.
<scales pt_clust_5="13000.00000" pt_clust_6="13000.00000" pt_clust_7="13000.00000" pt_clust_8="13000.00000" pt_clust_9="48.21690" pt_clust_10="13000.00000"></scales>
<clustering>
<clus scale="   48.217">  2  9  1 -1</clus>
<clus scale="   82.750">  5  6 -1 -1</clus>
<clus scale="   92.728">  7  8 -1 -1</clus>
<clus scale="  112.941">  1  5  2 -1</clus>
<clus scale="  143.358">  7 10 -1 -1</clus>
<clus scale="   48.217">  2  5  1 -1</clus>
</clustering>
</event>
<event>
10    4  0.2565852E-005  0.3081057E+03  0.7546771E-02  0.1126650E+00
         21   -1    0    0  501  502  0.00000000000E+00  0.00000000000E+00  0.33906862240E+03  0.33906862240E+03  0.00000000000E+00 0.  1.
         -1   -1    0    0    0  501 -0.00000000000E+00 -0.00000000000E+00 -0.23197180926E+03  0.23197180926E+03  0.00000000000E+00 0.  1.
         24    2    1    2    0    0 -0.32303206092E+02 -0.30186830538E+02  0.20299624796E+01  0.90002474529E+02  0.78368251301E+02 0.  0.
         23    2    1    2    0    0 -0.84675799003E+02  0.14620855420E+02  0.40131467166E+02  0.13182432129E+03  0.91560672103E+02 0.  0.
        -11    1    3    3    0    0 -0.34264151647E+02  0.19938025362E+02 -0.18776451088E+01  0.39687308987E+02  0.00000000000E+00 0.  1.
         12    1    3    3    0    0  0.19609455554E+01 -0.50124855900E+02  0.39076075884E+01  0.50315165542E+02  0.00000000000E+00 0. -1.
        -11    1    4    4    0    0 -0.22846912737E+02 -0.28552269253E+02 -0.13830039748E+02  0.39095824592E+02  0.00000000000E+00 0.  1.
         11    1    4    4    0    0 -0.61828886267E+02  0.43173124673E+02  0.53961506914E+02  0.92728496696E+02  0.00000000000E+00 0. -1.
         21    1    1    2  503  502 -0.46034690042E+02 -0.10070212836E+02  0.15445152616E+03  0.16148026445E+03  0.00000000000E+00 0.  1.
         -2    1    1    2    0  503  0.16301369514E+03  0.25636187954E+02 -0.89516142665E+02  0.18773337139E+03  0.00000000000E+00 0.  1.
<scales pt_clust_5="13000.00000" pt_clust_6="13000.00000" pt_clust_7="13000.00000" pt_clust_8="13000.00000" pt_clust_9="47.12326" pt_clust_10="13000.00000"></scales>
<clustering>
<clus scale="   47.123">  1  9  2 -1</clus>
<clus scale="   78.368">  5  6 -1 -1</clus>
<clus scale="   91.561">  7  8 -1 -1</clus>
<clus scale="   95.655">  2  5  1 -1</clus>
<clus scale="  121.479">  7 10 -1 -1</clus>
<clus scale="   47.123">  1  5  2 -1</clus>
</clustering>
</event>
<event>
10    4  0.2565852E-005  0.1375342E+03  0.7546771E-02  0.1235137E+00
         21   -1    0    0  501  502  0.00000000000E+00  0.00000000000E+00  0.50143247839E+02  0.50143247839E+02  0.00000000000E+00 0.  1.
         -1   -1    0    0    0  501 -0.00000000000E+00 -0.00000000000E+00 -0.71987686608E+03  0.71987686608E+03  0.00000000000E+00 0.  1.
         24    2    1    2    0    0  0.32140609173E+01  0.30999561538E+02 -0.26198538580E+03  0.27557444141E+03  0.79584090022E+02 0.  0.
         23    2    1    2    0    0 -0.20480448049E+02 -0.56337830774E+02 -0.21892145384E+03  0.24511377819E+03  0.92524382606E+02 0.  0.
        -13    1    3    3    0    0  0.20819061292E+02 -0.20862966814E+02 -0.70566824717E+02  0.76474658862E+02  0.00000000000E+00 0.  1.
         14    1    3    3    0    0 -0.17605000375E+02  0.51862528352E+02 -0.19141856108E+03  0.19909978255E+03  0.00000000000E+00 0. -1.
        -11    1    4    4    0    0 -0.43268921700E+02 -0.24283393007E+02 -0.18979509120E+03  0.19617354410E+03  0.00000000000E+00 0.  1.
         11    1    4    4    0    0  0.22788473651E+02 -0.32054437767E+02 -0.29126362643E+02  0.48940234089E+02  0.00000000000E+00 0. -1.
         21    1    1    2  503  502  0.12665617443E+02  0.55823285556E+02  0.76755682262E+00  0.57247237653E+02  0.00000000000E+00 0.  1.
         -2    1    1    2    0  503  0.46007696891E+01 -0.30485016319E+02 -0.18959433543E+03  0.19208465667E+03  0.00000000000E+00 0.  1.
<scales pt_clust_5="13000.00000" pt_clust_6="13000.00000" pt_clust_7="13000.00000" pt_clust_8="13000.00000" pt_clust_9="57.24209" pt_clust_10="13000.00000"></scales>
<clustering>
<clus scale="   57.242">  1  9  2 -1</clus>
<clus scale="   79.584">  5  6 -1 -1</clus>
<clus scale="   92.524">  7  8 -1 -1</clus>
<clus scale="   27.717">  7 10 -1 -1</clus>
<clus scale="   93.714">  2  5  1 -1</clus>
<clus scale="   57.242">  1  5  2 -1</clus>
</clustering>
</event>
<event>
10    4  0.2565852E-005  0.6770266E+03  0.7546771E-02  0.1024699E+00
          2   -1    0    0  503    0 -0.00000000000E+00  0.00000000000E+00  0.17476346720E+04  0.17476346720E+04  0.00000000000E+00 0. -1.
         21   -1    0    0  501  502  0.00000000000E+00 -0.00000000000E+00 -0.18469037212E+03  0.18469037212E+03  0.00000000000E+00 0.  1.
         24    2    1    2    0    0  0.50004331946E+02 -0.10795758833E+03  0.30302191627E+01  0.14466994899E+03  0.82249242075E+02 0.  0.
         23    2    1    2    0    0  0.15130549616E+03 -0.30642918614E+03  0.70550742499E+03  0.79342752453E+03  0.12245125838E+03 0.  0.
        -13    1    3    3    0    0  0.46674713430E+02 -0.12007422374E+03  0.11770416446E+02  0.12936340589E+03  0.00000000000E+00 0.  1.
         14    1    3    3    0    0  0.33296185159E+01  0.12116635411E+02 -0.87401972836E+01  0.15306543101E+02  0.00000000000E+00 0. -1.
        -11    1    4    4    0    0  0.60725001655E+02 -0.64647872687E+02  0.29880639102E+03  0.31169236850E+03  0.00000000000E+00 0. -1.
         11    1    4    4    0    0  0.90580494505E+02 -0.24178131345E+03  0.40670103397E+03  0.48173515603E+03  0.00000000000E+00 0.  1.
         21    1    1    2  503  502 -0.19550332255E+02  0.18124199199E+03  0.17238719095E+03  0.25089483605E+03  0.00000000000E+00 0.  1.
          1    1    1    2  501    0 -0.18175949585E+03  0.23314478247E+03  0.68201946472E+03  0.74333273450E+03  0.00000000000E+00 0. -1.
<scales pt_clust_5="13000.00000" pt_clust_6="13000.00000" pt_clust_7="13000.00000" pt_clust_8="13000.00000" pt_clust_9="168.11254" pt_clust_10="13000.00000"></scales>
<clustering>
<clus scale="   82.249">  5  6 -1 -1</clus>
<clus scale="  122.451">  7  8 -1 -1</clus>
<clus scale="  144.638">  1  5  2 -1</clus>
<clus scale="  168.113">  2  9  1 -1</clus>
<clus scale="  306.188">  7 10 -1 -1</clus>
<clus scale="  168.113">  2  5  1 -1</clus>
</clustering>
</event>
<event>
10    4  0.2565852E-005  0.3062915E+03  0.7546771E-02  0.1108965E+00
          2   -1    0    0  502    0 -0.00000000000E+00  0.00000000000E+00  0.11982314519E+04  0.11982314519E+04  0.00000000000E+00 0. -1.
         21   -1    0    0  503  502  0.00000000000E+00 -0.00000000000E+00 -0.54208234498E+02  0.54208234498E+02  0.00000000000E+00 0. -1.
         24    2    1    2    0    0  0.74351816513E+02 -0.10303778589E+03  0.39539791338E+03  0.42301873682E+03  0.80376388654E+02 0.  0.
         23    2    1    2    0    0  0.62041074342E+01  0.20047533983E+03  0.48632517983E+03  0.53325348968E+03  0.87282592138E+02 0.  0.
        -11    1    3    3    0    0  0.74373073860E+01 -0.37274986529E+02  0.38920034800E+02  0.54401353575E+02  0.00000000000E+00 0.  1.
         12    1    3    3    0    0  0.66914509127E+02 -0.65762799358E+02  0.35647787858E+03  0.36861738325E+03  0.00000000000E+00 0. -1.
        -13    1    4    4    0    0  0.12792733668E+02  0.91219165342E+02  0.32862955718E+03  0.34129455902E+03  0.00000000000E+00 0.  1.
         13    1    4    4    0    0 -0.65886262335E+01  0.10925617449E+03  0.15769562265E+03  0.19195893066E+03  0.00000000000E+00 0. -1.
         21    1    1    2  503  501 -0.27222197502E+02 -0.24699688234E+02  0.31640092891E+02  0.48499671276E+02  0.00000000000E+00 0. -1.
          1    1    1    2  501    0 -0.53333726445E+02 -0.72737865707E+02  0.23066003131E+03  0.24766778863E+03  0.00000000000E+00 0. -1.
<scales pt_clust_5="13000.00000" pt_clust_6="13000.00000" pt_clust_7="13000.00000" pt_clust_8="13000.00000" pt_clust_9="36.75762" pt_clust_10="13000.00000"></scales>
<clustering>
<clus scale="   36.758">  2  9  1 -1</clus>
<clus scale="   80.376">  5  6 -1 -1</clus>
<clus scale="   87.283">  7  8 -1 -1</clus>
<clus scale="   96.896">  7 10 -1 -1</clus>
<clus scale="  151.798">  1  5  2 -1</clus>
<clus scale="   36.758">  2  5  1 -1</clus>
</clustering>
</event>
<event>
10    4  0.2565852E-005  0.2182431E+03  0.7546771E-02  0.1164378E+00
         21   -1    0    0  503  502  0.00000000000E+00  0.00000000000E+00  0.34375474711E+02  0.34375474711E+02  0.00000000000E+00 0. -1.
          2   -1    0    0  502    0 -0.00000000000E+00 -0.00000000000E+00 -0.11954001167E+04  0.11954001167E+04  0.00000000000E+00 0. -1.
         24    2    1    2    0    0  0.79287943973E+01  0.85112579079E+02 -0.44712638073E+03  0.46181403497E+03  0.77737929270E+02 0.  0.
         23    2    1    2    0    0  0.69971385825E+02 -0.60482898708E+02 -0.33721828994E+03  0.36159386878E+03  0.92085693775E+02 0.  0.
        -11    1    3    3    0    0  0.39692682664E+02  0.47349470709E+02 -0.18388513233E+03  0.19398768860E+03  0.00000000000E+00 0.  1.
         12    1    3    3    0    0 -0.31763888267E+02  0.37763108370E+02 -0.26324124840E+03  0.26782634637E+03  0.00000000000E+00 0. -1.
        -11    1    4    4    0    0  0.55058627966E+02  0.61313304505E+00 -0.82216045519E+02  0.98951031255E+02  0.00000000000E+00 0. -1.
         11    1    4    4    0    0  0.14912757859E+02 -0.61096031753E+02 -0.25500224442E+03  0.26264283752E+03  0.00000000000E+00 0.  1.
         21    1    1    2  503  501 -0.65788279686E+01 -0.26638716549E+02 -0.49869906713E+01  0.27888568855E+02  0.00000000000E+00 0. -1.
          1    1    1    2  501    0 -0.71321352254E+02  0.20090361780E+01 -0.37169298063E+03  0.37847911880E+03  0.00000000000E+00 0. -1.
<scales pt_clust_5="13000.00000" pt_clust_6="13000.00000" pt_clust_7="13000.00000" pt_clust_8="13000.00000" pt_clust_9="27.43906" pt_clust_10="13000.00000"></scales>
<clustering>
<clus scale="   27.439">  1  9  2 -1</clus>
<clus scale="   77.738">  5  6 -1 -1</clus>
<clus scale="   92.086">  7  8 -1 -1</clus>
<clus scale="   72.321">  7 10 -1 -1</clus>
<clus scale="  109.277">  2  5  1 -1</clus>
<clus scale="   27.439">  1  5  2 -1</clus>
</clustering>
</event>
<event>
10    4  0.2565852E-005  0.5158842E+03  0.7546771E-02  0.1016897E+00
          2   -1    0    0  503    0 -0.00000000000E+00  0.00000000000E+00  0.27004060441E+04  0.27004060441E+04  0.00000000000E+00 0. -1.
         21   -1    0    0  501  502  0.00000000000E+00 -0.00000000000E+00 -0.11598252341E+03  0.11598252341E+03  0.00000000000E+00 0. -1.
         24    2    1    2    0    0  0.36404904719E+03  0.14411769947E+03  0.10319977185E+04  0.11066964772E+04  0.80350367290E+02 0.  0.
         23    2    1    2    0    0 -0.33399113493E+03  0.25821223541E+02  0.88901323707E+03  0.95442335326E+03  0.91447185695E+02 0.  0.
        -13    1    3    3    0    0  0.90756388736E+02  0.39062215021E+02  0.17372758252E+03  0.19985957987E+03  0.00000000000E+00 0.  1.
         14    1    3    3    0    0  0.27329265845E+03  0.10505548445E+03  0.85827013602E+03  0.90683689733E+03  0.00000000000E+00 0. -1.
        -11    1    4    4    0    0 -0.31993102660E+03  0.44865183570E+02  0.84031178882E+03  0.90027365223E+03  0.00000000000E+00 0.  1.
         11    1    4    4    0    0 -0.14060108333E+02 -0.19043960029E+02  0.48701448244E+02  0.54149701024E+02  0.00000000000E+00 0. -1.
         21    1    1    2  503  502  0.37979061478E+02 -0.12263457731E+02 -0.24107628604E+02  0.46625950534E+02  0.00000000000E+00 0. -1.
          1    1    1    2  501    0 -0.68036973739E+02 -0.15767546528E+03  0.68752019369E+03  0.70864278652E+03  0.00000000000E+00 0. -1.
<scales pt_clust_5="13000.00000" pt_clust_6="13000.00000" pt_clust_7="13000.00000" pt_clust_8="13000.00000" pt_clust_9="39.90992" pt_clust_10="13000.00000"></scales>
<clustering>
<clus scale="   39.910">  2  9  1 -1</clus>
<clus scale="   80.350">  5  6 -1 -1</clus>
<clus scale="   91.447">  7  8 -1 -1</clus>
<clus scale="  171.311">  7 10 -1 -1</clus>
<clus scale="  413.852">  1  5  2 -1</clus>
<clus scale="   39.910">  2  5  1 -1</clus>
</clustering>
</event>
<event>
10    4  0.2565852E-005  0.3256827E+03  0.7546771E-02  0.1119266E+00
         21   -1    0    0  503  502  0.00000000000E+00  0.00000000000E+00  0.79747442247E+02  0.79747442247E+02  0.00000000000E+00 0. -1.
          2   -1    0    0  502    0 -0.00000000000E+00 -0.00000000000E+00 -0.74976442516E+03  0.74976442516E+03  0.00000000000E+00 0. -1.
         24    2    1    2    0    0 -0.53521785471E+02 -0.25263760120E+02 -0.76344529260E+02  0.12521977354E+03  0.79678513052E+02 0.  0.
         23    2    1    2    0    0  0.16011119559E+03 -0.46247428940E+02 -0.48129764421E+03  0.51761497180E+03  0.92213974392E+02 0.  0.
        -13    1    3    3    0    0  0.14371881354E+02  0.14587369968E+02 -0.14147206584E+02  0.24889471477E+02  0.00000000000E+00 0.  1.
         14    1    3    3    0    0 -0.67893666825E+02 -0.39851130088E+02 -0.62197322676E+02  0.10033030206E+03  0.00000000000E+00 0. -1.
        -11    1    4    4    0    0 -0.83708173627E+00 -0.24599462329E+02 -0.10360826080E+03  0.10649181169E+03  0.00000000000E+00 0.  1.
         11    1    4    4    0    0  0.16094827732E+03 -0.21647966611E+02 -0.37768938342E+03  0.41112316011E+03  0.00000000000E+00 0. -1.
         21    1    1    2  503  501 -0.21788584246E+01  0.33234901976E+02 -0.82036199574E+01  0.34301683833E+02  0.00000000000E+00 0. -1.
          1    1    1    2  501    0 -0.10441055169E+03  0.38276287084E+02 -0.10417118948E+03  0.15237543823E+03  0.00000000000E+00 0. -1.
<scales pt_clust_5="13000.00000" pt_clust_6="13000.00000" pt_clust_7="13000.00000" pt_clust_8="13000.00000" pt_clust_9="33.30625" pt_clust_10="13000.00000"></scales>
<clustering>
<clus scale="   33.306">  1  9  2 -1</clus>
<clus scale="   79.679">  5  6 -1 -1</clus>
<clus scale="   92.214">  7  8 -1 -1</clus>
<clus scale="   97.317">  2  5  1 -1</clus>
<clus scale="  127.108">  7 10 -1 -1</clus>
<clus scale="   33.306">  1  5  2 -1</clus>
</clustering>
</event>
<event>
10    4  0.2565852E-005  0.2898301E+03  0.7546771E-02  0.1121820E+00
         21   -1    0    0  503  502  0.00000000000E+00  0.00000000000E+00  0.94031988583E+02  0.94031988583E+02  0.00000000000E+00 0. -1.
          2   -1    0    0  502    0 -0.00000000000E+00 -0.00000000000E+00 -0.85487684728E+03  0.85487684728E+03  0.00000000000E+00 0. -1.
         24    2    1    2    0    0  0.37654788144E+02 -0.10513055198E+03 -0.67012682197E+02  0.15313722567E+03  0.80560500750E+02 0.  0.
         23    2    1    2    0    0 -0.11960808323E+03 -0.77519869907E+01 -0.24574179543E+03  0.28858566362E+03  0.92338877793E+02 0.  0.
        -13    1    3    3    0    0 -0.21047292362E+02 -0.54657820750E+01 -0.14289279428E+02  0.26020122905E+02  0.00000000000E+00 0.  1.
         14    1    3    3    0    0  0.58702080506E+02 -0.99664769903E+02 -0.52723402769E+02  0.12711710276E+03  0.00000000000E+00 0. -1.
        -13    1    4    4    0    0 -0.60819478262E+01 -0.30207652745E+02 -0.26354527997E+02  0.40546929843E+02  0.00000000000E+00 0.  1.
         13    1    4    4    0    0 -0.11352613540E+03  0.22455665755E+02 -0.21938726743E+03  0.24803873378E+03  0.00000000000E+00 0. -1.
         21    1    1    2  503  501  0.13325076524E+02  0.24071627465E+02  0.14551199521E+02  0.31124561373E+02  0.00000000000E+00 0. -1.
          1    1    1    2  501    0  0.68628218559E+02  0.88810911504E+02 -0.46264158059E+03  0.47606138520E+03  0.00000000000E+00 0. -1.
<scales pt_clust_5="13000.00000" pt_clust_6="13000.00000" pt_clust_7="13000.00000" pt_clust_8="13000.00000" pt_clust_9="27.51365" pt_clust_10="13000.00000"></scales>
<clustering>
<clus scale="   27.514">  1  9  2 -1</clus>
<clus scale="   80.561">  5  6 -1 -1</clus>
<clus scale="   92.339">  7  8 -1 -1</clus>
<clus scale="  114.801">  7 10 -1 -1</clus>
<clus scale="  129.549">  2  5  1 -1</clus>
<clus scale="   27.514">  1  5  2 -1</clus>
</clustering>
</event>
<event>
10    4  0.2565852E-005  0.2971979E+03  0.7546771E-02  0.1098212E+00
         21   -1    0    0  501  502  0.00000000000E+00  0.00000000000E+00  0.73410211926E+02  0.73410211926E+02  0.00000000000E+00 0.  1.
          2   -1    0    0  503    0 -0.00000000000E+00 -0.00000000000E+00 -0.12593023105E+04  0.12593023105E+04  0.00000000000E+00 0. -1.
         24    2    1    2    0    0  0.66317345679E+02  0.15801165676E+03 -0.25775954428E+03  0.31980607257E+03  0.80437972227E+02 0.  0.
         23    2    1    2    0    0  0.11351258868E+02 -0.86142245050E+02 -0.46837984323E+03  0.48469045830E+03  0.89419379136E+02 0.  0.
        -11    1    3    3    0    0  0.79842154677E+02  0.11826801373E+03 -0.16602176064E+03  0.21891851850E+03  0.00000000000E+00 0.  1.
         12    1    3    3    0    0 -0.13524808998E+02  0.39743643029E+02 -0.91737783641E+02  0.10088755407E+03  0.00000000000E+00 0. -1.
        -13    1    4    4    0    0 -0.35572864089E+02 -0.22327184879E+02 -0.22043857281E+03  0.22440386857E+03  0.00000000000E+00 0.  1.
         13    1    4    4    0    0  0.46924122957E+02 -0.63815060171E+02 -0.24794127042E+03  0.26028658974E+03  0.00000000000E+00 0. -1.
         21    1    1    2  503  502  0.65890730651E+02  0.39666497282E+02 -0.11287026921E+03  0.13658227214E+03  0.00000000000E+00 0. -1.
          1    1    1    2  501    0 -0.14355933520E+03 -0.11153590899E+03 -0.34688244190E+03  0.39163371946E+03  0.00000000000E+00 0. -1.
<scales pt_clust_5="13000.00000" pt_clust_6="13000.00000" pt_clust_7="13000.00000" pt_clust_8="13000.00000" pt_clust_9="76.90916" pt_clust_10="13000.00000"></scales>
<clustering>
<clus scale="   76.909">  1  9  2 -1</clus>
<clus scale="   80.438">  5  6 -1 -1</clus>
<clus scale="   89.419">  7  8 -1 -1</clus>
<clus scale="  154.070">  7 10 -1 -1</clus>
<clus scale="  219.228">  2  5  1 -1</clus>
<clus scale="   76.909">  1  5  2 -1</clus>
</clustering>
</event>
<event>
10    4  0.2565852E-005  0.2900096E+03  0.7546771E-02  0.1102653E+00
         21   -1    0    0  501  502  0.00000000000E+00  0.00000000000E+00  0.29580932515E+03  0.29580932515E+03  0.00000000000E+00 0. -1.
          2   -1    0    0  503    0 -0.00000000000E+00 -0.00000000000E+00 -0.36656656086E+03  0.36656656086E+03  0.00000000000E+00 0. -1.
         24    2    1    2    0    0 -0.17294776216E+03 -0.10772776577E+02 -0.10755748696E+03  0.21906580701E+03  0.79963952181E+02 0.  0.
         23    2    1    2    0    0  0.10668762554E+03  0.10495330620E+03  0.78359436177E+01  0.17631158476E+03  0.92881252055E+02 0.  0.
        -13    1    3    3    0    0 -0.50421994537E+02  0.31086368535E+02 -0.49378803276E+02  0.77116833797E+02  0.00000000000E+00 0.  1.
         14    1    3    3    0    0 -0.12252576763E+03 -0.41859145113E+02 -0.58178683685E+02  0.14194897322E+03  0.00000000000E+00 0. -1.
        -13    1    4    4    0    0  0.25490841100E+02  0.58150592937E+02  0.42481036400E+02  0.76393146895E+02  0.00000000000E+00 0. -1.
         13    1    4    4    0    0  0.81196784436E+02  0.46802713264E+02 -0.34645092782E+02  0.99918437866E+02  0.00000000000E+00 0.  1.
         21    1    1    2  503  502 -0.75451827934E+02 -0.38421719285E+02  0.69350595674E+02  0.10944730226E+03  0.00000000000E+00 0. -1.
          1    1    1    2  501    0  0.14171196456E+03 -0.55758810339E+02 -0.40386288041E+02  0.15755119197E+03  0.00000000000E+00 0. -1.
<scales pt_clust_5="13000.00000" pt_clust_6="13000.00000" pt_clust_7="13000.00000" pt_clust_8="13000.00000" pt_clust_9="84.67117" pt_clust_10="13000.00000"></scales>
<clustering>
<clus scale="   79.964">  5  6 -1 -1</clus>
<clus scale="   84.671">  1  9  2 -1</clus>
<clus scale="   92.881">  7  8 -1 -1</clus>
<clus scale="  137.534">  7 10 -1 -1</clus>
<clus scale="  210.279">  2  5  1 -1</clus>
<clus scale="   84.671">  1  5  2 -1</clus>
</clustering>
</event>
<event>
10    4  0.2565852E-005  0.2983990E+03  0.7546771E-02  0.1112604E+00
          2   -1    0    0  502    0 -0.00000000000E+00  0.00000000000E+00  0.11132522814E+04  0.11132522814E+04  0.00000000000E+00 0. -1.
         21   -1    0    0  503  502  0.00000000000E+00 -0.00000000000E+00 -0.78127714243E+02  0.78127714243E+02  0.00000000000E+00 0.  1.
         24    2    1    2    0    0 -0.53335135115E+02 -0.15895282877E+03  0.34736797952E+03  0.39417934373E+03  0.81253944011E+02 0.  0.
         23    2    1    2    0    0 -0.73949464010E+02  0.11409305627E+03  0.15594730521E+03  0.22591556496E+03  0.90733300249E+02 0.  0.
        -13    1    3    3    0    0  0.21824641819E+02 -0.40961403487E+02  0.87752055194E+02  0.99270210823E+02  0.00000000000E+00 0.  1.
         14    1    3    3    0    0 -0.75159776934E+02 -0.11799142528E+03  0.25961592432E+03  0.29490913290E+03  0.00000000000E+00 0. -1.
        -11    1    4    4    0    0 -0.46490886943E+02  0.87182533134E+02  0.15916070369E+03  0.18733479722E+03  0.00000000000E+00 0.  1.
         11    1    4    4    0    0 -0.27458577067E+02  0.26910523132E+02 -0.32133984722E+01  0.38580767742E+02  0.00000000000E+00 0. -1.
         21    1    1    2  503  501  0.79843825560E+02  0.94071150186E+02  0.22161437072E+03  0.25364807724E+03  0.00000000000E+00 0. -1.
          1    1    1    2  501    0  0.47440773566E+02 -0.49211377687E+02  0.31019491170E+03  0.31763700971E+03  0.00000000000E+00 0. -1.
<scales pt_clust_5="13000.00000" pt_clust_6="13000.00000" pt_clust_7="13000.00000" pt_clust_8="13000.00000" pt_clust_9="123.38733" pt_clust_10="13000.00000"></scales>
<clustering>
<clus scale="   81.254">  5  6 -1 -1</clus>
<clus scale="   90.733">  7  8 -1 -1</clus>
<clus scale="   68.355">  7 10 -1 -1</clus>
<clus scale="  123.387">  2  9  1 -1</clus>
<clus scale="  149.652">  1  5  2 -1</clus>
<clus scale="  123.387">  2  5  1 -1</clus>
</clustering>
</event>
<event>
10    4  0.2565852E-005  0.2911783E+03  0.7546771E-02  0.1107500E+00
         -1   -1    0    0    0  501 -0.00000000000E+00  0.00000000000E+00  0.31892314759E+03  0.31892314759E+03  0.00000000000E+00 0.  1.
         21   -1    0    0  501  502  0.00000000000E+00 -0.00000000000E+00 -0.30471305052E+03  0.30471305052E+03  0.00000000000E+00 0. -1.
         24    2    1    2    0    0 -0.46125749946E+02 -0.17265503275E+03  0.20156098907E+02  0.19732931590E+03  0.81211116530E+02 0.  0.
         23    2    1    2    0    0  0.37642202136E+02  0.47231948031E+02  0.15537771911E+03  0.18896105596E+03  0.88973326209E+02 0.  0.
        -11    1    3    3    0    0 -0.34565415469E+02 -0.16060515214E+03  0.42256051550E+02  0.16963005846E+03  0.00000000000E+00 0.  1.
         12    1    3    3    0    0 -0.11560334477E+02 -0.12049880612E+02 -0.22099952643E+02  0.27699257442E+02  0.00000000000E+00 0. -1.
        -13    1    4    4    0    0 -0.28116194653E+02  0.16174804140E+02  0.30914602962E+02  0.44809121471E+02  0.00000000000E+00 0. -1.
         13    1    4    4    0    0  0.65758396790E+02  0.31057143891E+02  0.12446311615E+03  0.14415193449E+03  0.00000000000E+00 0.  1.
         21    1    1    2  503  502 -0.51638952369E+02  0.51585646614E+02 -0.10104540795E+03  0.12465085160E+03  0.00000000000E+00 0. -1.
         -2    1    1    2    0  503  0.60122500179E+02  0.73837438105E+02 -0.60278312997E+02  0.11269497465E+03  0.00000000000E+00 0.  1.
<scales pt_clust_5="13000.00000" pt_clust_6="13000.00000" pt_clust_7="13000.00000" pt_clust_8="13000.00000" pt_clust_9="72.99082" pt_clust_10="13000.00000"></scales>
<clustering>
<clus scale="   72.991">  2  9  1 -1</clus>
<clus scale="   81.211">  5  6 -1 -1</clus>
<clus scale="   88.973">  7  8 -1 -1</clus>
<clus scale="  103.847">  7 10 -1 -1</clus>
<clus scale="  183.421">  1  5  2 -1</clus>
<clus scale="   72.991">  2  5  1 -1</clus>
</clustering>
</event>
<event>
10    4  0.2565852E-005  0.3295179E+03  0.7546771E-02  0.1094291E+00
         21   -1    0    0  501  502  0.00000000000E+00  0.00000000000E+00  0.83098206964E+02  0.83098206964E+02  0.00000000000E+00 0.  1.
         -1   -1    0    0    0  501 -0.00000000000E+00 -0.00000000000E+00 -0.98186995057E+03  0.98186995057E+03  0.00000000000E+00 0.  1.
         24    2    1    2    0    0  0.15107488196E+03 -0.92279953406E+01 -0.25246693374E+03  0.30666932334E+03  0.86010147022E+02 0.  0.
         23    2    1    2    0    0 -0.10035937152E+03 -0.11411861273E+03 -0.37131106731E+03  0.41124285654E+03  0.90297935361E+02 0.  0.
        -13    1    3    3    0    0  0.30711213433E+02  0.77427044073E+01 -0.65376396631E+01  0.32339895399E+02  0.00000000000E+00 0.  1.
         14    1    3    3    0    0  0.12036366852E+03 -0.16970699748E+02 -0.24592929408E+03  0.27432942794E+03  0.00000000000E+00 0. -1.
        -11    1    4    4    0    0 -0.35747820753E+02 -0.82046730853E+02 -0.28519433366E+03  0.29890697664E+03  0.00000000000E+00 0.  1.
         11    1    4    4    0    0 -0.64611550768E+02 -0.32071881879E+02 -0.86116733646E+02  0.11233587990E+03  0.00000000000E+00 0. -1.
         21    1    1    2  503  502  0.99447984179E+01 -0.20085847014E+02  0.82007617639E+01  0.23866142532E+02  0.00000000000E+00 0.  1.
         -2    1    1    2    0  503 -0.60660308854E+02  0.14343245509E+03 -0.28319450433E+03  0.32318983512E+03  0.00000000000E+00 0.  1.
<scales pt_clust_5="13000.00000" pt_clust_6="13000.00000" pt_clust_7="13000.00000" pt_clust_8="13000.00000" pt_clust_9="22.41295" pt_clust_10="13000.00000"></scales>
<clustering>
<clus scale="   22.413">  1  9  2 -1</clus>
<clus scale="   86.010">  5  6 -1 -1</clus>
<clus scale="   90.298">  7  8 -1 -1</clus>
<clus scale="  149.062">  7 10 -1 -1</clus>
<clus scale="  178.193">  2  5  1 -1</clus>
<clus scale="   22.413">  1  5  2 -1</clus>
</clustering>
</event>
<event>
10    4  0.2565852E-005  0.3109404E+03  0.7546771E-02  0.1130788E+00
         21   -1    0    0  501  502  0.00000000000E+00  0.00000000000E+00  0.19039117136E+03  0.19039117136E+03  0.00000000000E+00 0. -1.
          2   -1    0    0  503    0 -0.00000000000E+00 -0.00000000000E+00 -0.10706609506E+04  0.10706609506E+04  0.00000000000E+00 0. -1.
         24    2    1    2    0    0 -0.89488837897E-01 -0.32033215226E+02 -0.33563159845E+03  0.34662468964E+03  0.80460988712E+02 0.  0.
         23    2    1    2    0    0 -0.10993491538E+03 -0.72561801522E+02 -0.22553307174E+03  0.27655560735E+03  0.90922697105E+02 0.  0.
        -13    1    3    3    0    0 -0.37502396611E+02 -0.30929854326E+02 -0.20889814065E+03  0.21447964660E+03  0.00000000000E+00 0.  1.
         14    1    3    3    0    0  0.37412907774E+02 -0.11033609005E+01 -0.12673345780E+03  0.13214504304E+03  0.00000000000E+00 0. -1.
        -13    1    4    4    0    0 -0.20990710293E+02  0.90728077453E+01 -0.25782602781E+01  0.23012457171E+02  0.00000000000E+00 0.  1.
         13    1    4    4    0    0 -0.88944205089E+02 -0.81634609267E+02 -0.22295481146E+03  0.25354315018E+03  0.00000000000E+00 0. -1.
         21    1    1    2  503  502 -0.96921059606E+00  0.54665889516E+02  0.14663279328E+03  0.15649432868E+03  0.00000000000E+00 0. -1.
          1    1    1    2  501    0  0.11099361482E+03  0.49929127232E+02 -0.46573790236E+03  0.48137749633E+03  0.00000000000E+00 0. -1.
<scales pt_clust_5="13000.00000" pt_clust_6="13000.00000" pt_clust_7="13000.00000" pt_clust_8="13000.00000" pt_clust_9="54.67448" pt_clust_10="13000.00000"></scales>
<clustering>
<clus scale="   54.674">  1  9  2 -1</clus>
<clus scale="   80.461">  5  6 -1 -1</clus>
<clus scale="   84.049">  2  5  1 -1</clus>
<clus scale="   90.923">  7  8 -1 -1</clus>
<clus scale="  119.124">  7 10 -1 -1</clus>
<clus scale="   54.674">  1  5  2 -1</clus>
</clustering>
</event>
<event>
10    4  0.2565852E-005  0.3329971E+03  0.7546771E-02  0.1091691E+00
         21   -1    0    0  501  502  0.00000000000E+00  0.00000000000E+00  0.14292532273E+04  0.14292532273E+04  0.00000000000E+00 0. -1.
          2   -1    0    0  503    0 -0.00000000000E+00 -0.00000000000E+00 -0.10689438157E+03  0.10689438157E+03  0.00000000000E+00 0. -1.
         24    2    1    2    0    0  0.13039881116E+03  0.54352229887E+02  0.11840837331E+03  0.20717271781E+03  0.94562028778E+02 0.  0.
         23    2    1    2    0    0  0.26562782156E+02  0.18807353448E+02  0.62891111286E+02  0.11378684720E+03  0.89066586195E+02 0.  0.
        -13    1    3    3    0    0  0.22644255727E+02  0.56238702419E+02  0.56573526922E+02  0.82922360769E+02  0.00000000000E+00 0.  1.
         14    1    3    3    0    0  0.10775455544E+03 -0.18864725325E+01  0.61834846393E+02  0.12425035704E+03  0.00000000000E+00 0. -1.
        -13    1    4    4    0    0  0.34191094365E+02 -0.25249890684E+02  0.84464944302E+01  0.43335103341E+02  0.00000000000E+00 0.  1.
         13    1    4    4    0    0 -0.76283122088E+01  0.44057244132E+02  0.54444616856E+02  0.70451743855E+02  0.00000000000E+00 0. -1.
         21    1    1    2  503  502  0.53875968997E+02  0.72563810680E+02  0.69410207433E+03  0.69996129625E+03  0.00000000000E+00 0.  1.
          1    1    1    2  501    0 -0.21083756232E+03 -0.14572339402E+03  0.44695728683E+03  0.51522674765E+03  0.00000000000E+00 0. -1.
<scales pt_clust_5="13000.00000" pt_clust_6="13000.00000" pt_clust_7="13000.00000" pt_clust_8="13000.00000" pt_clust_9="90.37769" pt_clust_10="13000.00000"></scales>
<clustering>
<clus scale="   89.067">  7  8 -1 -1</clus>
<clus scale="   90.378">  1  9  2 -1</clus>
<clus scale="   94.562">  5  6 -1 -1</clus>
<clus scale="  184.882">  2  5  1 -1</clus>
<clus scale="  131.783">  7 10 -1 -1</clus>
<clus scale="   90.378">  1  5  2 -1</clus>
</clustering>
</event>
<event>
10    4  0.2565852E-005  0.2305628E+03  0.7546771E-02  0.1142710E+00
         21   -1    0    0  501  502  0.00000000000E+00  0.00000000000E+00  0.18493204931E+03  0.18493204931E+03  0.00000000000E+00 0. -1.
          2   -1    0    0  503    0 -0.00000000000E+00 -0.00000000000E+00 -0.76157284488E+03  0.76157284488E+03  0.00000000000E+00 0. -1.
         24    2    1    2    0    0 -0.58443257350E+02 -0.13649569872E+03 -0.37770651271E+03  0.41228313343E+03  0.72584311491E+02 0.  0.
         23    2    1    2    0    0  0.33742268269E+02  0.11135703791E+02 -0.94891888993E+02  0.13688486586E+03  0.92035054939E+02 0.  0.
        -11    1    3    3    0    0 -0.63560119936E+01 -0.20594812243E+02 -0.11025573628E+02  0.24209676859E+02  0.00000000000E+00 0.  1.
         12    1    3    3    0    0 -0.52087245356E+02 -0.11590088647E+03 -0.36668093908E+03  0.38807345658E+03  0.00000000000E+00 0. -1.
        -13    1    4    4    0    0  0.45581720580E+02 -0.26023847495E+02 -0.78833219076E+02  0.94708026689E+02  0.00000000000E+00 0. -1.
         13    1    4    4    0    0 -0.11839452311E+02  0.37159551286E+02 -0.16058669918E+02  0.42176839170E+02  0.00000000000E+00 0.  1.
         21    1    1    2  503  502  0.55630635261E+02  0.18109036473E+02  0.12750653837E+03  0.14028764062E+03  0.00000000000E+00 0. -1.
          1    1    1    2  501    0 -0.30929646180E+02  0.10725095845E+03 -0.23154893224E+03  0.25704925428E+03  0.00000000000E+00 0. -1.
<scales pt_clust_5="13000.00000" pt_clust_6="13000.00000" pt_clust_7="13000.00000" pt_clust_8="13000.00000" pt_clust_9="58.50389" pt_clust_10="13000.00000"></scales>
<clustering>
<clus scale="   58.504">  1  9  2 -1</clus>
<clus scale="   72.584">  5  6 -1 -1</clus>
<clus scale="   92.035">  7  8 -1 -1</clus>
<clus scale="  113.065">  7 10 -1 -1</clus>
<clus scale="  154.371">  2  5  1 -1</clus>
<clus scale="   58.504">  1  5  2 -1</clus>
</clustering>
</event>
<event>
10    4  0.2565852E-005  0.1655983E+03  0.7546771E-02  0.1215245E+00
         21   -1    0    0  501  502  0.00000000000E+00  0.00000000000E+00  0.85133969550E+02  0.85133969550E+02  0.00000000000E+00 0. -1.
          2   -1    0    0  503    0 -0.00000000000E+00 -0.00000000000E+00 -0.41810573145E+03  0.41810573145E+03  0.00000000000E+00 0. -1.
         24    2    1    2    0    0  0.58233654836E+01 -0.55835731658E+01 -0.18160052891E+03  0.19888391374E+03  0.80690589114E+02 0.  0.
         23    2    1    2    0    0  0.38675470537E+02 -0.38143277123E+02 -0.13306629266E+03  0.17608311098E+03  0.10172473702E+03 0.  0.
        -11    1    3    3    0    0 -0.26486154148E+02  0.23742833318E+02 -0.60751113186E+02  0.70398410840E+02  0.00000000000E+00 0.  1.
         12    1    3    3    0    0  0.32309519631E+02 -0.29326406484E+02 -0.12084941572E+03  0.12848550290E+03  0.00000000000E+00 0. -1.
        -11    1    4    4    0    0 -0.34477885404E+02 -0.76568640338E+01 -0.50619755546E+02  0.61722862865E+02  0.00000000000E+00 0.  1.
         11    1    4    4    0    0  0.73153355941E+02 -0.30486413089E+02 -0.82446537110E+02  0.11436024812E+03  0.00000000000E+00 0. -1.
         21    1    1    2  503  502  0.10254764406E+02  0.55332099503E+02  0.20799673684E+02  0.59995231925E+02  0.00000000000E+00 0. -1.
          1    1    1    2  501    0 -0.54753600427E+02 -0.11605249214E+02 -0.39104614022E+02  0.68277444349E+02  0.00000000000E+00 0. -1.
<scales pt_clust_5="13000.00000" pt_clust_6="13000.00000" pt_clust_7="13000.00000" pt_clust_8="13000.00000" pt_clust_9="56.27434" pt_clust_10="13000.00000"></scales>
<clustering>
<clus scale="   56.274">  1  9  2 -1</clus>
<clus scale="   80.691">  5  6 -1 -1</clus>
<clus scale="   81.228">  2  5  1 -1</clus>
<clus scale="  101.725">  7  8 -1 -1</clus>
<clus scale="   49.978">  7 10 -1 -1</clus>
<clus scale="   56.274">  1  5  2 -1</clus>
</clustering>
</event>
<event>
10    4  0.2565852E-005  0.2533978E+03  0.7546771E-02  0.1150583E+00
         21   -1    0    0  503  502  0.00000000000E+00  0.00000000000E+00  0.15314362450E+03  0.15314362450E+03  0.00000000000E+00 0.  1.
          2   -1    0    0  502    0 -0.00000000000E+00 -0.00000000000E+00 -0.11013307609E+04  0.11013307609E+04  0.00000000000E+00 0. -1.
         24    2    1    2    0    0 -0.36913421256E+02 -0.26317608906E+02 -0.82136043137E+03  0.82707396173E+03  0.85808873378E+02 0.  0.
         23    2    1    2    0    0 -0.36697579995E+02  0.16250026308E+02 -0.20922931808E+02  0.12250124081E+03  0.11383325170E+03 0.  0.
        -13    1    3    3    0    0 -0.11476933235E+02  0.30135236309E+02 -0.19359302626E+03  0.19626031764E+03  0.00000000000E+00 0.  1.
         14    1    3    3    0    0 -0.25436488020E+02 -0.56452845214E+02 -0.62776740511E+03  0.63081364409E+03  0.00000000000E+00 0. -1.
        -13    1    4    4    0    0 -0.52951688787E+02 -0.11187783966E+02 -0.54071054071E+02  0.76503115909E+02  0.00000000000E+00 0. -1.
         13    1    4    4    0    0  0.16254108792E+02  0.27437810273E+02  0.33148122263E+02  0.45998124905E+02  0.00000000000E+00 0.  1.
         21    1    1    2  503  501  0.20413483105E+01  0.52338968864E+02  0.83210768029E+02  0.98323784918E+02  0.00000000000E+00 0.  1.
          1    1    1    2  501    0  0.71569652940E+02 -0.42271386266E+02 -0.18911454126E+03  0.20657539794E+03  0.00000000000E+00 0. -1.
<scales pt_clust_5="13000.00000" pt_clust_6="13000.00000" pt_clust_7="13000.00000" pt_clust_8="13000.00000" pt_clust_9="52.37876" pt_clust_10="13000.00000"></scales>
<clustering>
<clus scale="   52.379">  1  9  2 -1</clus>
<clus scale="   85.809">  5  6 -1 -1</clus>
<clus scale="   96.390">  2  5  1 -1</clus>
<clus scale="  113.833">  7  8 -1 -1</clus>
<clus scale="   69.662">  7 10 -1 -1</clus>
<clus scale="   52.379">  1  5  2 -1</clus>
</clustering>
</event>
<event>
10    4  0.2565852E-005  0.1026381E+04  0.7546771E-02  0.9634861E-01
         21   -1    0    0  501  502  0.00000000000E+00  0.00000000000E+00  0.62559575959E+03  0.62559575959E+03  0.00000000000E+00 0. -1.
          2   -1    0    0  503    0 -0.00000000000E+00 -0.00000000000E+00 -0.81824026212E+03  0.81824026212E+03  0.00000000000E+00 0. -1.
         24    2    1    2    0    0  0.23756931466E+03 -0.14123381812E+03 -0.18224705803E+03  0.34085795172E+03  0.81141742903E+02 0.  0.
         23    2    1    2    0    0  0.29911826932E+03 -0.16048017978E+02  0.22711883223E+03  0.38761422560E+03  0.94512147446E+02 0.  0.
        -13    1    3    3    0    0  0.16640266019E+03 -0.53602279689E+02 -0.10268953597E+03  0.20275154871E+03  0.00000000000E+00 0.  1.
         14    1    3    3    0    0  0.71166654468E+02 -0.87631538431E+02 -0.79557522059E+02  0.13810640301E+03  0.00000000000E+00 0. -1.
        -13    1    4    4    0    0  0.20740243564E+03  0.25028931025E+02  0.18352712948E+03  0.27807269724E+03  0.00000000000E+00 0. -1.
         13    1    4    4    0    0  0.91715833678E+02 -0.41076949002E+02  0.43591702756E+02  0.10954152836E+03  0.00000000000E+00 0.  1.
         21    1    1    2  503  502  0.13701005361E+02 -0.51070290275E+02  0.38439279584E+02  0.65371785287E+02  0.00000000000E+00 0.  1.
          1    1    1    2  501    0 -0.55038858934E+03  0.20835212637E+03 -0.27595555631E+03  0.64999205910E+03  0.00000000000E+00 0. -1.
<scales pt_clust_5="13000.00000" pt_clust_6="13000.00000" pt_clust_7="13000.00000" pt_clust_8="13000.00000" pt_clust_9="52.87620" pt_clust_10="13000.00000"></scales>
<clustering>
<clus scale="   52.876">  1  9  2 -1</clus>
<clus scale="   81.142">  5  6 -1 -1</clus>
<clus scale="   94.512">  7  8 -1 -1</clus>
<clus scale="  293.117">  2  5  1 -1</clus>
<clus scale="  355.115">  7 10 -1 -1</clus>
<clus scale="   52.876">  1  5  2 -1</clus>
</clustering>
</event>
<event>
10    4  0.2565852E-005  0.3067832E+03  0.7546771E-02  0.1124931E+00
         21   -1    0    0  501  502  0.00000000000E+00  0.00000000000E+00  0.65543282613E+03  0.65543282613E+03  0.00000000000E+00 0. -1.
          2   -1    0    0  503    0 -0.00000000000E+00 -0.00000000000E+00 -0.14775638528E+04  0.14775638528E+04  0.00000000000E+00 0. -1.
         24    2    1    2    0    0 -0.98661744166E+01  0.63121657047E+02 -0.13090884175E+04  0.13129871693E+04  0.78365407567E+02 0.  0.
         23    2    1    2    0    0 -0.84453700876E+02  0.75899392501E+02 -0.11402408325E+03  0.18467003617E+03  0.90600139759E+02 0.  0.
        -11    1    3    3    0    0 -0.12236955694E+02  0.25595789219E+02 -0.12014044039E+03  0.12344477684E+03  0.00000000000E+00 0.  1.
         12    1    3    3    0    0  0.23707812776E+01  0.37525867828E+02 -0.11889479771E+04  0.11895423925E+04  0.00000000000E+00 0. -1.
        -13    1    4    4    0    0 -0.40558926346E+02  0.12796089797E+01  0.11398028938E+01  0.40595111234E+02  0.00000000000E+00 0.  1.
         13    1    4    4    0    0 -0.43894774531E+02  0.74619783521E+02 -0.11516388614E+03  0.14407492493E+03  0.00000000000E+00 0. -1.
         21    1    1    2  503  502  0.39014021671E+02 -0.13092012420E+03  0.51480882462E+03  0.53262585246E+03  0.00000000000E+00 0. -1.
          1    1    1    2  501    0  0.55305853622E+02 -0.81009253436E+01  0.86172649389E+02  0.10271362100E+03  0.00000000000E+00 0. -1.
<scales pt_clust_5="13000.00000" pt_clust_6="13000.00000" pt_clust_7="13000.00000" pt_clust_8="13000.00000" pt_clust_9="133.22348" pt_clust_10="13000.00000"></scales>
<clustering>
<clus scale="   78.365">  5  6 -1 -1</clus>
<clus scale="   90.600">  7  8 -1 -1</clus>
<clus scale="   55.896">  7 10 -1 -1</clus>
<clus scale="  101.108">  2  5  1 -1</clus>
<clus scale="  133.223">  1  9  2 -1</clus>
<clus scale="  133.223">  1  5  2 -1</clus>
</clustering>
</event>
<event>
10    4  0.2565852E-005  0.3146502E+03  0.7546771E-02  0.1123139E+00
          2   -1    0    0  503    0 -0.00000000000E+00  0.00000000000E+00  0.70811974390E+03  0.70811974390E+03  0.00000000000E+00 0. -1.
         21   -1    0    0  501  502  0.00000000000E+00 -0.00000000000E+00 -0.13132136386E+03  0.13132136386E+03  0.00000000000E+00 0. -1.
         24    2    1    2    0    0  0.55881433639E+02 -0.34835719483E+01  0.30463866705E+03  0.31997788928E+03  0.80288618546E+02 0.  0.
         23    2    1    2    0    0  0.48376900122E+02 -0.19287103875E+02  0.29853476901E+03  0.31746359902E+03  0.94592872645E+02 0.  0.
        -13    1    3    3    0    0  0.39519965761E+02  0.33051738373E+02  0.22525805145E+03  0.23107452228E+03  0.00000000000E+00 0.  1.
         14    1    3    3    0    0  0.16361467878E+02 -0.36535310321E+02  0.79380615598E+02  0.88903367001E+02  0.00000000000E+00 0. -1.
        -13    1    4    4    0    0 -0.28698157849E+02 -0.90536901994E+01  0.90675214809E+02  0.95538202573E+02  0.00000000000E+00 0.  1.
         13    1    4    4    0    0  0.77075057972E+02 -0.10233413676E+02  0.20785955420E+03  0.22192539645E+03  0.00000000000E+00 0. -1.
         21    1    1    2  503  502 -0.54799298433E+01 -0.60049501701E+02 -0.40025975504E+02  0.72374380831E+02  0.00000000000E+00 0. -1.
          1    1    1    2  501    0 -0.98778403918E+02  0.82820177524E+02  0.13650919493E+02  0.12962523863E+03  0.00000000000E+00 0. -1.
<scales pt_clust_5="13000.00000" pt_clust_6="13000.00000" pt_clust_7="13000.00000" pt_clust_8="13000.00000" pt_clust_9="60.29902" pt_clust_10="13000.00000"></scales>
<clustering>
<clus scale="   60.299">  2  9  1 -1</clus>
<clus scale="   80.289">  5  6 -1 -1</clus>
<clus scale="   94.593">  7  8 -1 -1</clus>
<clus scale="   97.976">  1  5  2 -1</clus>
<clus scale="   99.316">  7 10 -1 -1</clus>
<clus scale="   60.299">  2  5  1 -1</clus>
</clustering>
</event>
<event>
10    4  0.2565852E-005  0.1363302E+03  0.7546771E-02  0.1237013E+00
          2   -1    0    0  503    0 -0.00000000000E+00  0.00000000000E+00  0.15595340930E+04  0.15595340930E+04  0.00000000000E+00 0. -1.
         21   -1    0    0  501  502  0.00000000000E+00 -0.00000000000E+00 -0.47001897616E+02  0.47001897616E+02  0.00000000000E+00 0.  1.
         24    2    1    2    0    0 -0.42075979641E+02  0.79218425454E+01  0.13072650199E+04  0.13104820840E+04  0.81168445486E+02 0.  0.
         23    2    1    2    0    0  0.72765973179E+02 -0.88568720728E+01  0.16629027070E+03  0.20357421655E+03  0.91742446450E+02 0.  0.
        -11    1    3    3    0    0  0.93656750297E+01 -0.17963819165E+02  0.11112039401E+03  0.11295201031E+03  0.00000000000E+00 0.  1.
         12    1    3    3    0    0 -0.51441654670E+02  0.25885661710E+02  0.11961446259E+04  0.11975300737E+04  0.00000000000E+00 0. -1.
        -13    1    4    4    0    0  0.79659653428E+02  0.23397469461E+02  0.10385364094E+03  0.13296119997E+03  0.00000000000E+00 0.  1.
         13    1    4    4    0    0 -0.68936802486E+01 -0.32254341534E+02  0.62436629758E+02  0.70613016581E+02  0.00000000000E+00 0. -1.
         21    1    1    2  503  502 -0.21717619619E+02  0.31193553083E+02 -0.50139783967E+01  0.38338397662E+02  0.00000000000E+00 0.  1.
          1    1    1    2  501    0 -0.89723739189E+01 -0.30258523556E+02  0.43990883195E+02  0.54141292428E+02  0.00000000000E+00 0. -1.
<scales pt_clust_5="13000.00000" pt_clust_6="13000.00000" pt_clust_7="13000.00000" pt_clust_8="13000.00000" pt_clust_9="38.00911" pt_clust_10="13000.00000"></scales>
<clustering>
<clus scale="   38.009">  2  9  1 -1</clus>
<clus scale="   81.168">  5  6 -1 -1</clus>
<clus scale="   91.742">  7  8 -1 -1</clus>
<clus scale="   27.457">  7 10 -1 -1</clus>
<clus scale="   92.600">  1  5  2 -1</clus>
<clus scale="   38.009">  2  5  1 -1</clus>
</clustering>
</event>
<event>
10    4  0.2565852E-005  0.2280736E+03  0.7546771E-02  0.1144749E+00
         21   -1    0    0  501  502  0.00000000000E+00  0.00000000000E+00  0.17243862494E+03  0.17243862494E+03  0.00000000000E+00 0. -1.
          2   -1    0    0  503    0 -0.00000000000E+00 -0.00000000000E+00 -0.28997636781E+03  0.28997636781E+03  0.00000000000E+00 0. -1.
         24    2    1    2    0    0 -0.15169532781E+02  0.11760826375E+03  0.91287119547E+01  0.14547967873E+03  0.83780577184E+02 0.  0.
         23    2    1    2    0    0  0.72140016259E+02 -0.25846469005E+02 -0.10362813086E+03  0.15773933667E+03  0.90943317083E+02 0.  0.
        -11    1    3    3    0    0 -0.17097087206E+02  0.17696743539E+02 -0.29436160655E+02  0.38366296106E+02  0.00000000000E+00 0.  1.
         12    1    3    3    0    0  0.19275544250E+01  0.99911520211E+02  0.38564872609E+02  0.10711338262E+03  0.00000000000E+00 0. -1.
        -11    1    4    4    0    0  0.24131541846E+01  0.26978010516E+02 -0.82361823040E+01  0.28310264278E+02  0.00000000000E+00 0.  1.
         11    1    4    4    0    0  0.69726862074E+02 -0.52824479521E+02 -0.95391948552E+02  0.12942907239E+03  0.00000000000E+00 0. -1.
         21    1    1    2  503  502 -0.19045463736E+02  0.11550966802E+02  0.29727351471E+02  0.37146600766E+02  0.00000000000E+00 0.  1.
          1    1    1    2  501    0 -0.37925019742E+02 -0.10331276155E+03 -0.52765675439E+02  0.12204937659E+03  0.00000000000E+00 0. -1.
<scales pt_clust_5="13000.00000" pt_clust_6="13000.00000" pt_clust_7="13000.00000" pt_clust_8="13000.00000" pt_clust_9="22.27453" pt_clust_10="13000.00000"></scales>
<clustering>
<clus scale="   22.275">  1  9  2 -1</clus>
<clus scale="   83.781">  5  6 -1 -1</clus>
<clus scale="   90.943">  7  8 -1 -1</clus>
<clus scale="  109.123">  7 10 -1 -1</clus>
<clus scale="  151.878">  2  5  1 -1</clus>
<clus scale="   22.275">  1  5  2 -1</clus>
</clustering>
</event>
<event>
10    4  0.2565852E-005  0.2918841E+03  0.7546771E-02  0.1124100E+00
          2   -1    0    0  503    0 -0.00000000000E+00  0.00000000000E+00  0.18187896455E+04  0.18187896455E+04  0.00000000000E+00 0. -1.
         21   -1    0    0  501  502  0.00000000000E+00 -0.00000000000E+00 -0.44839302622E+02  0.44839302622E+02  0.00000000000E+00 0.  1.
         24    2    1    2    0    0  0.35656149035E+02  0.81953868416E+02  0.71429431699E+03  0.72418898038E+03  0.79028542363E+02 0.  0.
         23    2    1    2    0    0  0.10463182378E+03 -0.99808076538E+02  0.72849123675E+03  0.74764588953E+03  0.85822045038E+02 0.  0.
        -13    1    3    3    0    0  0.22155222134E+02  0.66842149967E+02  0.25777919677E+03  0.26722432742E+03  0.00000000000E+00 0.  1.
         14    1    3    3    0    0  0.13500926901E+02  0.15111718448E+02  0.45651512022E+03  0.45696465296E+03  0.00000000000E+00 0. -1.
        -13    1    4    4    0    0  0.23064998501E+02 -0.72885221970E+02  0.44173828832E+03  0.44830454505E+03  0.00000000000E+00 0.  1.
         13    1    4    4    0    0  0.81566825281E+02 -0.26922854568E+02  0.28675294843E+03  0.29934134448E+03  0.00000000000E+00 0. -1.
         21    1    1    2  503  502 -0.20530897714E+02  0.12128904031E+02 -0.13129545414E+02  0.27221554635E+02  0.00000000000E+00 0.  1.
          1    1    1    2  501    0 -0.11975707510E+03  0.57253040914E+01  0.34429433455E+03  0.36457252357E+03  0.00000000000E+00 0. -1.
<scales pt_clust_5="13000.00000" pt_clust_6="13000.00000" pt_clust_7="13000.00000" pt_clust_8="13000.00000" pt_clust_9="23.84592" pt_clust_10="13000.00000"></scales>
<clustering>
<clus scale="   23.846">  2  9  1 -1</clus>
<clus scale="   79.029">  5  6 -1 -1</clus>
<clus scale="   85.822">  7  8 -1 -1</clus>
<clus scale="  119.839">  1  5  2 -1</clus>
<clus scale="  123.837">  7 10 -1 -1</clus>
<clus scale="   23.846">  2  5  1 -1</clus>
</clustering>
</event>
<event>
10    4  0.2565852E-005  0.5312825E+03  0.7546771E-02  0.1019924E+00
         -3   -1    0    0    0  501 -0.00000000000E+00  0.00000000000E+00  0.17464572869E+03  0.17464572869E+03  0.00000000000E+00 0.  1.
         21   -1    0    0  503  502  0.00000000000E+00 -0.00000000000E+00 -0.12907713881E+04  0.12907713881E+04  0.00000000000E+00 0. -1.
         24    2    1    2    0    0 -0.10920024190E+03  0.31636943409E+03 -0.53313703713E+03  0.63467492092E+03  0.81011377161E+02 0.  0.
         23    2    1    2    0    0 -0.75429201019E+02 -0.38229284324E+02 -0.32181176092E+03  0.34892240274E+03  0.10503804605E+03 0.  0.
        -13    1    3    3    0    0 -0.32626362243E+02  0.16508410923E+03 -0.32701828727E+03  0.36777466313E+03  0.00000000000E+00 0.  1.
         14    1    3    3    0    0 -0.76573879657E+02  0.15128532486E+03 -0.20611874986E+03  0.26690025779E+03  0.00000000000E+00 0. -1.
        -13    1    4    4    0    0 -0.87963176929E+02 -0.62013081596E+02 -0.26690550730E+03  0.28778758245E+03  0.00000000000E+00 0.  1.
         13    1    4    4    0    0  0.12533975910E+02  0.23783797273E+02 -0.54906253627E+02  0.61134820292E+02  0.00000000000E+00 0. -1.
         21    1    1    2  503  501  0.33901807085E+02  0.13452218426E+02 -0.11835790172E+03  0.12385026283E+03  0.00000000000E+00 0. -1.
         -4    1    1    2    0  502  0.15072763583E+03 -0.29159236819E+03 -0.14281895966E+03  0.35796953031E+03  0.00000000000E+00 0.  1.
<scales pt_clust_5="13000.00000" pt_clust_6="13000.00000" pt_clust_7="13000.00000" pt_clust_8="13000.00000" pt_clust_9="36.47321" pt_clust_10="13000.00000"></scales>
<clustering>
<clus scale="   36.473">  2  9  1 -1</clus>
<clus scale="   81.011">  5  6 -1 -1</clus>
<clus scale="  105.038">  7  8 -1 -1</clus>
<clus scale="  329.111">  7 10 -1 -1</clus>
<clus scale="  345.632">  1  5  2 -1</clus>
<clus scale="   36.473">  2  5  1 -1</clus>
</clustering>
</event>
<event>
10    4  0.2565852E-005  0.3376068E+03  0.7546771E-02  0.1115205E+00
         21   -1    0    0  501  502  0.00000000000E+00  0.00000000000E+00  0.33473260067E+03  0.33473260067E+03  0.00000000000E+00 0.  1.
         -1   -1    0    0    0  501 -0.00000000000E+00 -0.00000000000E+00 -0.44394221311E+03  0.44394221311E+03  0.00000000000E+00 0.  1.
         24    2    1    2    0    0  0.22470714736E+02  0.44542734550E+02 -0.77670997196E+02  0.12407414929E+03  0.82901281625E+02 0.  0.
         23    2    1    2    0    0  0.35043387725E+02  0.11351300655E+03 -0.81550137628E+02  0.17003604371E+03  0.90269538229E+02 0.  0.
        -13    1    3    3    0    0  0.25350795406E+02  0.66267154606E+02 -0.42713976053E+02  0.82815954728E+02  0.00000000000E+00 0.  1.
         14    1    3    3    0    0 -0.28800806704E+01 -0.21724420055E+02 -0.34957021143E+02  0.41258194563E+02  0.00000000000E+00 0. -1.
        -13    1    4    4    0    0  0.63498229889E+02  0.58387142100E+02 -0.38126052912E+02  0.94311608365E+02  0.00000000000E+00 0. -1.
         13    1    4    4    0    0 -0.28454842164E+02  0.55125864454E+02 -0.43424084716E+02  0.75724435342E+02  0.00000000000E+00 0.  1.
         21    1    1    2  503  502 -0.12207348651E+03  0.13413334827E+02  0.20871677723E+03  0.24216636174E+03  0.00000000000E+00 0.  1.
         -2    1    1    2    0  503  0.64559384050E+02 -0.17146907593E+03 -0.15870525485E+03  0.24239825904E+03  0.00000000000E+00 0.  1.
<scales pt_clust_5="13000.00000" pt_clust_6="13000.00000" pt_clust_7="13000.00000" pt_clust_8="13000.00000" pt_clust_9="121.97774" pt_clust_10="13000.00000"></scales>
<clustering>
<clus scale="   82.901">  5  6 -1 -1</clus>
<clus scale="   90.270">  7  8 -1 -1</clus>
<clus scale="   96.755">  2  5  1 -1</clus>
<clus scale="  121.978">  1  9  2 -1</clus>
<clus scale="  141.453">  7 10 -1 -1</clus>
<clus scale="  121.978">  1  5  2 -1</clus>
</clustering>
</event>
<event>
10    4  0.2565852E-005  0.2895114E+03  0.7546771E-02  0.1131999E+00
         21   -1    0    0  501  502  0.00000000000E+00  0.00000000000E+00  0.19982968411E+03  0.19982968411E+03  0.00000000000E+00 0.  1.
         -1   -1    0    0    0  501 -0.00000000000E+00 -0.00000000000E+00 -0.25024884932E+03  0.25024884932E+03  0.00000000000E+00 0.  1.
         24    2    1    2    0    0  0.51123898732E+02 -0.42520518514E+02 -0.59230298718E+02  0.11966022127E+03  0.79929298458E+02 0.  0.
         23    2    1    2    0    0  0.66292098499E+02 -0.70208998058E+02 -0.64022482789E+02  0.14419698747E+03  0.85848396389E+02 0.  0.
        -13    1    3    3    0    0  0.31660597003E+02 -0.10352237558E+02 -0.72502494025E+02  0.79788306567E+02  0.00000000000E+00 0.  1.
         14    1    3    3    0    0  0.19463301729E+02 -0.32168280955E+02  0.13272195307E+02  0.39871914703E+02  0.00000000000E+00 0. -1.
        -13    1    4    4    0    0  0.66254639571E+02 -0.39736831795E+02 -0.45726509022E+01  0.77392520324E+02  0.00000000000E+00 0.  1.
         13    1    4    4    0    0  0.37458927519E-01 -0.30472166263E+02 -0.59449831886E+02  0.66804467150E+02  0.00000000000E+00 0. -1.
         21    1    1    2  503  502 -0.12576281157E+02  0.23632214145E+02  0.33973964072E+02  0.43253608265E+02  0.00000000000E+00 0.  1.
         -2    1    1    2    0  503 -0.10483971607E+03  0.89097302426E+02  0.38859652226E+02  0.14296771642E+03  0.00000000000E+00 0.  1.
<scales pt_clust_5="13000.00000" pt_clust_6="13000.00000" pt_clust_7="13000.00000" pt_clust_8="13000.00000" pt_clust_9="26.77021" pt_clust_10="13000.00000"></scales>
<clustering>
<clus scale="   26.770">  1  9  2 -1</clus>
<clus scale="   79.929">  5  6 -1 -1</clus>
<clus scale="   85.848">  7  8 -1 -1</clus>
<clus scale="  101.083">  2  5  1 -1</clus>
<clus scale="  127.118">  7 10 -1 -1</clus>
<clus scale="   26.770">  1  5  2 -1</clus>
</clustering>
</event>
<event>
10    4  0.2899874E-005  0.2245349E+03  0.7546771E-02  0.1173059E+00
         21   -1    0    0  501  502  0.00000000000E+00  0.00000000000E+00  0.18961018009E+03  0.18961018009E+03  0.00000000000E+00 0.  1.
          2   -1    0    0  503    0 -0.00000000000E+00 -0.00000000000E+00 -0.81621571948E+03  0.81621571948E+03  0.00000000000E+00 0. -1.
         24    2    1    2    0    0  0.13785479192E+02  0.39023052953E+02 -0.11897020125E+03  0.14462622943E+03  0.71063347465E+02 0.  0.
         23    2    1    2    0    0  0.15100030471E+02  0.31415582459E+02 -0.83581074026E+02  0.11084756863E+03  0.63925251624E+02 0.  0.
        -13    1    3    3    0    0  0.26330392268E+02  0.19687631082E+02 -0.11682757169E+02  0.34890961433E+02  0.00000000000E+00 0.  1.
         14    1    3    3    0    0 -0.12544913077E+02  0.19335421871E+02 -0.10728744409E+03  0.10973526799E+03  0.00000000000E+00 0. -1.
        -11    1    4    4    0    0 -0.23456885556E+02  0.10671132572E+01 -0.22763525160E+02  0.32703857393E+02  0.00000000000E+00 0.  1.
         11    1    4    4    0    0  0.38556916027E+02  0.30348469202E+02 -0.60817548866E+02  0.78143711241E+02  0.00000000000E+00 0. -1.
         21    1    1    2  503  502  0.41952763859E+02 -0.11699954374E+03  0.13581307491E+03  0.18410355495E+03  0.00000000000E+00 0.  1.
          1    1    1    2  501    0 -0.70838273522E+02  0.46560908324E+02 -0.55986733902E+03  0.56624854656E+03  0.00000000000E+00 0. -1.
<scales pt_clust_5="13000.00000" pt_clust_6="13000.00000" pt_clust_7="13000.00000" pt_clust_8="13000.00000" pt_clust_9="123.16544" pt_clust_10="13000.00000"></scales>
<clustering>
<clus scale="   63.925">  7  8 -1 -1</clus>
<clus scale="   71.063">  5  6 -1 -1</clus>
<clus scale="   82.236">  2  5  1 -1</clus>
<clus scale="   98.631">  7 10 -1 -1</clus>
<clus scale="  123.165">  1  9  2 -1</clus>
<clus scale="  123.165">  1  5  2 -1</clus>
</clustering>
</event>
<event>
10    4  0.2565852E-005  0.7721311E+03  0.7546771E-02  0.9683948E-01
          2   -1    0    0  502    0 -0.00000000000E+00  0.00000000000E+00  0.24198727828E+04  0.24198727828E+04  0.00000000000E+00 0. -1.
         21   -1    0    0  503  502  0.00000000000E+00 -0.00000000000E+00 -0.22043850620E+03  0.22043850620E+03  0.00000000000E+00 0. -1.
         24    2    1    2    0    0 -0.51957878632E+03  0.22833466910E+03  0.55959563269E+03  0.80112286978E+03  0.80942844308E+02 0.  0.
         23    2    1    2    0    0  0.14606710306E+03  0.47798181201E+02  0.11073912336E+03  0.21245553441E+03  0.96197380094E+02 0.  0.
        -13    1    3    3    0    0 -0.29754948731E+03  0.16101462133E+03  0.29154895250E+03  0.44661190914E+03  0.00000000000E+00 0.  1.
         14    1    3    3    0    0 -0.22202929901E+03  0.67320047769E+02  0.26804668020E+03  0.35451096064E+03  0.00000000000E+00 0. -1.
        -11    1    4    4    0    0  0.60176199131E+02 -0.49201194931E+01 -0.30501565312E+01  0.60453998814E+02  0.00000000000E+00 0.  1.
         11    1    4    4    0    0  0.85890903931E+02  0.52718300694E+02  0.11378927989E+03  0.15200153560E+03  0.00000000000E+00 0. -1.
         21    1    1    2  503  501 -0.20875754923E+02 -0.49606762629E+01 -0.29531310934E+01  0.21659326763E+02  0.00000000000E+00 0. -1.
          1    1    1    2  501    0  0.39438743818E+03 -0.27117217403E+03  0.15320526516E+04  0.16050735580E+04  0.00000000000E+00 0. -1.
<scales pt_clust_5="13000.00000" pt_clust_6="13000.00000" pt_clust_7="13000.00000" pt_clust_8="13000.00000" pt_clust_9="21.45706" pt_clust_10="13000.00000"></scales>
<clustering>
<clus scale="   21.457">  2  9  1 -1</clus>
<clus scale="   80.943">  5  6 -1 -1</clus>
<clus scale="   96.197">  7  8 -1 -1</clus>
<clus scale="  476.103">  7 10 -1 -1</clus>
<clus scale="  583.162">  1  5  2 -1</clus>
<clus scale="   21.457">  2  5  1 -1</clus>
</clustering>
</event>
<event>
10    4  0.2565852E-005  0.1994142E+03  0.7546771E-02  0.1180070E+00
         21   -1    0    0  503  502  0.00000000000E+00  0.00000000000E+00  0.64558279386E+03  0.64558279386E+03  0.00000000000E+00 0. -1.
          2   -1    0    0  502    0 -0.00000000000E+00 -0.00000000000E+00 -0.79888798468E+02  0.79888798468E+02  0.00000000000E+00 0. -1.
         24    2    1    2    0    0 -0.52297692228E+02 -0.69546943270E+02  0.16763331656E+03  0.20550510053E+03  0.80991305643E+02 0.  0.
         23    2    1    2    0    0  0.25863653455E+02  0.57137681376E+01  0.13666401089E+03  0.16646061263E+03  0.91271616444E+02 0.  0.
        -13    1    3    3    0    0  0.12379879314E+02 -0.33275385743E+02  0.21161106440E+02  0.41331648092E+02  0.00000000000E+00 0.  1.
         14    1    3    3    0    0 -0.64677571542E+02 -0.36271557527E+02  0.14647221012E+03  0.16417345244E+03  0.00000000000E+00 0. -1.
        -11    1    4    4    0    0  0.29582900841E+02  0.44666342880E+02  0.96578426418E+02  0.11044284792E+03  0.00000000000E+00 0. -1.
         11    1    4    4    0    0 -0.37192473861E+01 -0.38952574742E+02  0.40085584474E+02  0.56017764707E+02  0.00000000000E+00 0.  1.
         21    1    1    2  503  501  0.64188364135E+02  0.25865823206E+02  0.28623478050E+03  0.29448181008E+03  0.00000000000E+00 0.  1.
          1    1    1    2  501    0 -0.37754325361E+02  0.37967351927E+02 -0.24838112565E+02  0.59024069087E+02  0.00000000000E+00 0. -1.
<scales pt_clust_5="13000.00000" pt_clust_6="13000.00000" pt_clust_7="13000.00000" pt_clust_8="13000.00000" pt_clust_9="69.20395" pt_clust_10="13000.00000"></scales>
<clustering>
<clus scale="   69.204">  1  9  2 -1</clus>
<clus scale="   80.991">  5  6 -1 -1</clus>
<clus scale="   91.272">  7  8 -1 -1</clus>
<clus scale="   52.338">  7 10 -1 -1</clus>
<clus scale="  100.183">  2  5  1 -1</clus>
<clus scale="   69.204">  1  5  2 -1</clus>
</clustering>
</event>
<event>
10    4  0.2565852E-005  0.2879944E+03  0.7546771E-02  0.1131440E+00
         21   -1    0    0  503  502  0.00000000000E+00  0.00000000000E+00  0.20647280126E+03  0.20647280126E+03  0.00000000000E+00 0. -1.
          2   -1    0    0  502    0 -0.00000000000E+00 -0.00000000000E+00 -0.28040466524E+03  0.28040466524E+03  0.00000000000E+00 0. -1.
         24    2    1    2    0    0  0.79351394438E+00 -0.76257716225E+02 -0.98688394877E+02  0.14709192170E+03  0.77979261326E+02 0.  0.
         23    2    1    2    0    0 -0.64715975563E+02 -0.79950559311E+02  0.36408505633E+02  0.14355290747E+03  0.93282412780E+02 0.  0.
        -13    1    3    3    0    0 -0.31979675213E+02 -0.58775863076E+02 -0.83399524507E+02  0.10692418994E+03  0.00000000000E+00 0.  1.
         14    1    3    3    0    0  0.32773189157E+02 -0.17481853149E+02 -0.15288870371E+02  0.40167731754E+02  0.00000000000E+00 0. -1.
        -11    1    4    4    0    0 -0.17610011263E+02  0.11967631761E+02 -0.17027518404E+02  0.27263035224E+02  0.00000000000E+00 0.  1.
         11    1    4    4    0    0 -0.47105964300E+02 -0.91918191072E+02  0.53436024037E+02  0.11628987225E+03  0.00000000000E+00 0. -1.
         21    1    1    2  503  501 -0.11285581726E+02  0.48829687819E+02  0.30327185838E+02  0.58578502612E+02  0.00000000000E+00 0.  1.
          1    1    1    2  501    0  0.75208043344E+02  0.10737858772E+03 -0.41979160576E+02  0.13765413472E+03  0.00000000000E+00 0. -1.
<scales pt_clust_5="13000.00000" pt_clust_6="13000.00000" pt_clust_7="13000.00000" pt_clust_8="13000.00000" pt_clust_9="50.11689" pt_clust_10="13000.00000"></scales>
<clustering>
<clus scale="   50.117">  1  9  2 -1</clus>
<clus scale="   77.979">  5  6 -1 -1</clus>
<clus scale="   93.282">  7  8 -1 -1</clus>
<clus scale="  104.104">  2  5  1 -1</clus>
<clus scale="  104.829">  7 10 -1 -1</clus>
<clus scale="   50.117">  1  5  2 -1</clus>
</clustering>
</event>
<event>
10    4  0.2565852E-005  0.1644753E+03  0.7546771E-02  0.1215924E+00
         21   -1    0    0  501  502  0.00000000000E+00  0.00000000000E+00  0.96101981895E+02  0.96101981895E+02  0.00000000000E+00 0.  1.
         -3   -1    0    0    0  501 -0.00000000000E+00 -0.00000000000E+00 -0.26149553155E+03  0.26149553155E+03  0.00000000000E+00 0.  1.
         24    2    1    2    0    0  0.18048070511E+02  0.32001568670E+01 -0.74907534875E+02  0.11169970964E+03  0.80806636487E+02 0.  0.
         23    2    1    2    0    0 -0.27727314857E+02 -0.56284220614E+01 -0.18029735480E+02  0.95266512491E+02  0.89163635618E+02 0.  0.
        -13    1    3    3    0    0 -0.32287756822E+02 -0.23795705826E+00 -0.32158134213E+02  0.45570840021E+02  0.00000000000E+00 0.  1.
         14    1    3    3    0    0  0.50335827333E+02  0.34381139253E+01 -0.42749400661E+02  0.66128869623E+02  0.00000000000E+00 0. -1.
        -13    1    4    4    0    0 -0.26179503928E+02 -0.41774296923E+02 -0.29328899531E+02  0.57364123431E+02  0.00000000000E+00 0. -1.
         13    1    4    4    0    0 -0.15478109288E+01  0.36145874862E+02  0.11299164051E+02  0.37902389060E+02  0.00000000000E+00 0.  1.
         21    1    1    2  503  502 -0.21535685632E+02  0.39165137196E+01  0.33580969679E+02  0.40084989210E+02  0.00000000000E+00 0.  1.
         -4    1    1    2    0  503  0.31214929977E+02 -0.14882485253E+01 -0.10603724898E+03  0.11054630210E+03  0.00000000000E+00 0.  1.
<scales pt_clust_5="13000.00000" pt_clust_6="13000.00000" pt_clust_7="13000.00000" pt_clust_8="13000.00000" pt_clust_9="21.88892" pt_clust_10="13000.00000"></scales>
<clustering>
<clus scale="   21.889">  1  9  2 -1</clus>
<clus scale="   80.807">  5  6 -1 -1</clus>
<clus scale="   81.721">  2  5  1 -1</clus>
<clus scale="   89.164">  7  8 -1 -1</clus>
<clus scale="   37.339">  7 10 -1 -1</clus>
<clus scale="   21.889">  1  5  2 -1</clus>
</clustering>
</event>
<event>
10    4  0.2565852E-005  0.4105238E+03  0.7546771E-02  0.1091736E+00
          2   -1    0    0  503    0 -0.00000000000E+00  0.00000000000E+00  0.63711886403E+03  0.63711886403E+03  0.00000000000E+00 0. -1.
         21   -1    0    0  501  502  0.00000000000E+00 -0.00000000000E+00 -0.11866379717E+03  0.11866379717E+03  0.00000000000E+00 0. -1.
         24    2    1    2    0    0 -0.42270356584E+02 -0.42268309899E+02  0.67126067585E+02  0.12184720296E+03  0.82264444641E+02 0.  0.
         23    2    1    2    0    0 -0.14128643305E+03 -0.97959950317E+02  0.18735977662E+03  0.27177915421E+03  0.95928174891E+02 0.  0.
        -13    1    3    3    0    0 -0.62918626246E+01 -0.43602370825E+02 -0.17932818784E+01  0.44090476713E+02  0.00000000000E+00 0.  1.
         14    1    3    3    0    0 -0.35978493959E+02  0.13340609257E+01  0.68919349464E+02  0.77756726247E+02  0.00000000000E+00 0. -1.
        -11    1    4    4    0    0 -0.91614772453E+02 -0.11025787475E+03  0.11851475868E+03  0.18599949866E+03  0.00000000000E+00 0. -1.
         11    1    4    4    0    0 -0.49671660599E+02  0.12297924430E+02  0.68845017939E+02  0.85779655555E+02  0.00000000000E+00 0.  1.
         21    1    1    2  503  502  0.17624654434E+02  0.12444961536E+02 -0.41139094567E+01  0.21964283794E+02  0.00000000000E+00 0. -1.
          1    1    1    2  501    0  0.16593213520E+03  0.12778329868E+03  0.26808313210E+03  0.34019202024E+03  0.00000000000E+00 0. -1.
<scales pt_clust_5="13000.00000" pt_clust_6="13000.00000" pt_clust_7="13000.00000" pt_clust_8="13000.00000" pt_clust_9="21.57558" pt_clust_10="13000.00000"></scales>
<clustering>
<clus scale="   21.576">  2  9  1 -1</clus>
<clus scale="   82.264">  5  6 -1 -1</clus>
<clus scale="   95.928">  7  8 -1 -1</clus>
<clus scale="   98.558">  1  5  2 -1</clus>
<clus scale="  184.546">  7 10 -1 -1</clus>
<clus scale="   21.576">  2  5  1 -1</clus>
</clustering>
</event>
<event>
10    4  0.2565852E-005  0.4349419E+03  0.7546771E-02  0.1064177E+00
         21   -1    0    0  501  502  0.00000000000E+00  0.00000000000E+00  0.33143119880E+03  0.33143119880E+03  0.00000000000E+00 0. -1.
          2   -1    0    0  503    0 -0.00000000000E+00 -0.00000000000E+00 -0.52296288718E+03  0.52296288718E+03  0.00000000000E+00 0. -1.
         24    2    1    2    0    0 -0.15852171943E+03  0.10043106414E+03  0.15280375683E+02  0.20514609404E+03  0.81461008109E+02 0.  0.
         23    2    1    2    0    0  0.56953846456E+02 -0.19794676137E+03 -0.21784286269E+03  0.31369560178E+03  0.92318778070E+02 0.  0.
        -11    1    3    3    0    0 -0.44026299791E+02 -0.25088510783E+01 -0.17988866969E+02  0.47625715132E+02  0.00000000000E+00 0.  1.
         12    1    3    3    0    0 -0.11449541964E+03  0.10293991522E+03  0.33269242652E+02  0.15752037890E+03  0.00000000000E+00 0. -1.
        -11    1    4    4    0    0 -0.11298791622E+02 -0.12611048170E+03 -0.12393210500E+03  0.17717415990E+03  0.00000000000E+00 0.  1.
         11    1    4    4    0    0  0.68252638078E+02 -0.71836279670E+02 -0.93910757694E+02  0.13652144188E+03  0.00000000000E+00 0. -1.
         21    1    1    2  503  502  0.32708181048E+02 -0.80193105765E+02  0.93891210456E+02  0.12773534640E+03  0.00000000000E+00 0. -1.
          1    1    1    2  501    0  0.68859691923E+02  0.17770880299E+03 -0.82860411819E+02  0.20781704376E+03  0.00000000000E+00 0. -1.
<scales pt_clust_5="13000.00000" pt_clust_6="13000.00000" pt_clust_7="13000.00000" pt_clust_8="13000.00000" pt_clust_9="86.60692" pt_clust_10="13000.00000"></scales>
<clustering>
<clus scale="   81.461">  5  6 -1 -1</clus>
<clus scale="   86.607">  1  9  2 -1</clus>
<clus scale="   92.319">  7  8 -1 -1</clus>
<clus scale="  173.573">  7 10 -1 -1</clus>
<clus scale="  174.631">  2  5  1 -1</clus>
<clus scale="   86.607">  1  5  2 -1</clus>
</clustering>
</event>
<event>
10    4  0.2565852E-005  0.1347128E+03  0.7546771E-02  0.1242251E+00
         21   -1    0    0  501  502  0.00000000000E+00  0.00000000000E+00  0.23619034247E+03  0.23619034247E+03  0.00000000000E+00 0.  1.
          2   -1    0    0  503    0 -0.00000000000E+00 -0.00000000000E+00 -0.10525736781E+03  0.10525736781E+03  0.00000000000E+00 0. -1.
         24    2    1    2    0    0  0.13633528448E+02 -0.27677174486E+02  0.91341441874E+02  0.12670625107E+03  0.82215059269E+02 0.  0.
         23    2    1    2    0    0 -0.23288207425E+02  0.18903992168E+02 -0.31534503461E+02  0.10165950790E+03  0.91872352275E+02 0.  0.
        -13    1    3    3    0    0  0.72097777351E+01 -0.55641694699E+02  0.43806279375E+02  0.71182646738E+02  0.00000000000E+00 0.  1.
         14    1    3    3    0    0  0.64237507132E+01  0.27964520213E+02  0.47535162499E+02  0.55523604330E+02  0.00000000000E+00 0. -1.
        -13    1    4    4    0    0  0.27526224727E+02 -0.18379430688E+02 -0.58969908735E+01  0.33619503588E+02  0.00000000000E+00 0.  1.
         13    1    4    4    0    0 -0.50814432152E+02  0.37283422856E+02 -0.25637512588E+02  0.68040004310E+02  0.00000000000E+00 0. -1.
         21    1    1    2  503  502 -0.26930519257E+02  0.27893839423E+01  0.71025080376E+02  0.76010496464E+02  0.00000000000E+00 0.  1.
          1    1    1    2  501    0  0.36585198234E+02  0.59837983755E+01  0.10095586734E+00  0.37071454853E+02  0.00000000000E+00 0. -1.
<scales pt_clust_5="13000.00000" pt_clust_6="13000.00000" pt_clust_7="13000.00000" pt_clust_8="13000.00000" pt_clust_9="27.07459" pt_clust_10="13000.00000"></scales>
<clustering>
<clus scale="   27.075">  1  9  2 -1</clus>
<clus scale="   82.215">  5  6 -1 -1</clus>
<clus scale="   86.284">  2  5  1 -1</clus>
<clus scale="   91.872">  7  8 -1 -1</clus>
<clus scale="   32.717">  7 10 -1 -1</clus>
<clus scale="   27.075">  1  5  2 -1</clus>
</clustering>
</event>
<event>
10    4  0.2565852E-005  0.3478333E+03  0.7546771E-02  0.1108337E+00
         21   -1    0    0  503  502  0.00000000000E+00  0.00000000000E+00  0.26671349143E+03  0.26671349143E+03  0.00000000000E+00 0. -1.
          2   -1    0    0  502    0 -0.00000000000E+00 -0.00000000000E+00 -0.10187248278E+04  0.10187248278E+04  0.00000000000E+00 0. -1.
         24    2    1    2    0    0 -0.65941927711E+02 -0.29969439331E+01 -0.51051770885E+03  0.52095256815E+03  0.80037039604E+02 0.  0.
         23    2    1    2    0    0 -0.67009448574E+02  0.57211705500E+01 -0.21067312093E+02  0.11535820102E+03  0.91327350308E+02 0.  0.
        -11    1    3    3    0    0 -0.12334481950E+02 -0.36559602822E+02 -0.14731449932E+03  0.15228363574E+03  0.00000000000E+00 0.  1.
         12    1    3    3    0    0 -0.53607445761E+02  0.33562658889E+02 -0.36320320953E+03  0.36866893241E+03  0.00000000000E+00 0. -1.
        -13    1    4    4    0    0 -0.25401997608E+02 -0.39764497573E+02 -0.25350882350E+02  0.53564391023E+02  0.00000000000E+00 0.  1.
         13    1    4    4    0    0 -0.41607450966E+02  0.45485668123E+02  0.42835702571E+01  0.61793810002E+02  0.00000000000E+00 0. -1.
         21    1    1    2  503  501 -0.31513687984E+02 -0.96409370395E+01  0.19735443754E+03  0.20008706658E+03  0.00000000000E+00 0. -1.
          1    1    1    2  501    0  0.16446506427E+03  0.69167104226E+01 -0.41778075297E+03  0.44904048348E+03  0.00000000000E+00 0. -1.
<scales pt_clust_5="13000.00000" pt_clust_6="13000.00000" pt_clust_7="13000.00000" pt_clust_8="13000.00000" pt_clust_9="32.95543" pt_clust_10="13000.00000"></scales>
<clustering>
<clus scale="   32.955">  1  9  2 -1</clus>
<clus scale="   80.037">  5  6 -1 -1</clus>
<clus scale="   91.327">  7  8 -1 -1</clus>
<clus scale="  105.323">  2  5  1 -1</clus>
<clus scale="  101.567">  7 10 -1 -1</clus>
<clus scale="   32.955">  1  5  2 -1</clus>
</clustering>
</event>
<event>
10    4  0.2565852E-005  0.2331807E+03  0.7546771E-02  0.1145720E+00
          2   -1    0    0  503    0 -0.00000000000E+00  0.00000000000E+00  0.40723058247E+03  0.40723058247E+03  0.00000000000E+00 0. -1.
         21   -1    0    0  501  502  0.00000000000E+00 -0.00000000000E+00 -0.14292823783E+03  0.14292823783E+03  0.00000000000E+00 0. -1.
         24    2    1    2    0    0 -0.42701082855E+02  0.81487875409E+02  0.10904725963E+02  0.13384271523E+03  0.96598670055E+02 0.  0.
         23    2    1    2    0    0  0.59454964107E+02  0.55783191304E+02  0.13732929429E+03  0.17945591850E+03  0.81843963877E+02 0.  0.
        -13    1    3    3    0    0 -0.16848184425E+02 -0.19847373344E+02 -0.86811135817E+01  0.27443419614E+02  0.00000000000E+00 0.  1.
         14    1    3    3    0    0 -0.25852898430E+02  0.10133524875E+03  0.19585839545E+02  0.10639929562E+03  0.00000000000E+00 0. -1.
        -11    1    4    4    0    0 -0.78223891813E+01  0.43036673823E+02  0.75199584249E+02  0.86996106451E+02  0.00000000000E+00 0.  1.
         11    1    4    4    0    0  0.67277353288E+02  0.12746517481E+02  0.62129710045E+02  0.92459812046E+02  0.00000000000E+00 0. -1.
         21    1    1    2  503  502 -0.48298661222E+02 -0.19145293527E+02 -0.18400390957E+02  0.55116942290E+02  0.00000000000E+00 0. -1.
          1    1    1    2  501    0  0.31544779970E+02 -0.11812577319E+03  0.13446871534E+03  0.18174324427E+03  0.00000000000E+00 0. -1.
<scales pt_clust_5="13000.00000" pt_clust_6="13000.00000" pt_clust_7="13000.00000" pt_clust_8="13000.00000" pt_clust_9="51.95482" pt_clust_10="13000.00000"></scales>
<clustering>
<clus scale="   51.955">  2  9  1 -1</clus>
<clus scale="   81.844">  7  8 -1 -1</clus>
<clus scale="   96.599">  5  6 -1 -1</clus>
<clus scale="  124.142">  7 10 -1 -1</clus>
<clus scale="  138.858">  1  5  2 -1</clus>
<clus scale="   51.955">  2  5  1 -1</clus>
</clustering>
</event>
<event>
10    4  0.2565852E-005  0.5307907E+03  0.7546771E-02  0.1009257E+00
          2   -1    0    0  503    0 -0.00000000000E+00  0.00000000000E+00  0.11245873914E+04  0.11245873914E+04  0.00000000000E+00 0. -1.
         21   -1    0    0  501  502  0.00000000000E+00 -0.00000000000E+00 -0.44414771890E+03  0.44414771890E+03  0.00000000000E+00 0. -1.
         24    2    1    2    0    0 -0.36715985619E+02 -0.47290311240E+03  0.84241917042E+03  0.97007370867E+03  0.79921988484E+02 0.  0.
         23    2    1    2    0    0 -0.31854618320E+02  0.13598288716E+03 -0.11719180666E+03  0.20442251915E+03  0.92458555486E+02 0.  0.
        -13    1    3    3    0    0 -0.67627778138E+01 -0.35864304544E+02  0.30697883614E+02  0.47690078240E+02  0.00000000000E+00 0.  1.
         14    1    3    3    0    0 -0.29953207805E+02 -0.43703880786E+03  0.81172128681E+03  0.92238363043E+03  0.00000000000E+00 0. -1.
        -11    1    4    4    0    0 -0.52400453087E+01  0.12395009073E+03 -0.12293581573E+03  0.17465479625E+03  0.00000000000E+00 0. -1.
         11    1    4    4    0    0 -0.26614573011E+02  0.12032796428E+02  0.57440090702E+01  0.29767722900E+02  0.00000000000E+00 0.  1.
         21    1    1    2  503  502  0.34997936206E+02  0.14955249519E+01 -0.45140485995E+02  0.57138039951E+02  0.00000000000E+00 0.  1.
          1    1    1    2  501    0  0.33572667733E+02  0.33542470030E+03  0.35279476613E+00  0.33710084255E+03  0.00000000000E+00 0. -1.
<scales pt_clust_5="13000.00000" pt_clust_6="13000.00000" pt_clust_7="13000.00000" pt_clust_8="13000.00000" pt_clust_9="35.02987" pt_clust_10="13000.00000"></scales>
<clustering>
<clus scale="   35.030">  2  9  1 -1</clus>
<clus scale="   79.922">  5  6 -1 -1</clus>
<clus scale="   92.459">  7  8 -1 -1</clus>
<clus scale="  339.557">  7 10 -1 -1</clus>
<clus scale="  480.373">  1  5  2 -1</clus>
<clus scale="   35.030">  2  5  1 -1</clus>
</clustering>
</event>
<event>
10    4  0.2565852E-005  0.3522555E+03  0.7546771E-02  0.1075859E+00
         21   -1    0    0  501  502  0.00000000000E+00  0.00000000000E+00  0.31605000046E+03  0.31605000046E+03  0.00000000000E+00 0. -1.
          2   -1    0    0  503    0 -0.00000000000E+00 -0.00000000000E+00 -0.55828138678E+03  0.55828138678E+03  0.00000000000E+00 0. -1.
         24    2    1    2    0    0  0.21740398457E+03  0.51994324423E+02 -0.12178976795E+03  0.26688604772E+03  0.80171769437E+02 0.  0.
         23    2    1    2    0    0 -0.11076043823E+03 -0.13797899814E+03 -0.47962197531E+02  0.20499305303E+03  0.91737128780E+02 0.  0.
        -11    1    3    3    0    0  0.52574435012E+02  0.41490157520E+02 -0.61902631399E+02  0.91200000888E+02  0.00000000000E+00 0.  1.
         12    1    3    3    0    0  0.16482954955E+03  0.10504166904E+02 -0.59887136551E+02  0.17568604684E+03  0.00000000000E+00 0. -1.
        -13    1    4    4    0    0 -0.79478580267E+02 -0.32121982080E+02 -0.29187628216E+01  0.85774038208E+02  0.00000000000E+00 0. -1.
         13    1    4    4    0    0 -0.31281857964E+02 -0.10585701606E+03 -0.45043434709E+02  0.11921901483E+03  0.00000000000E+00 0.  1.
         21    1    1    2  503  502 -0.15025036092E+02  0.58004912997E+02  0.14929617277E+03  0.16087159117E+03  0.00000000000E+00 0. -1.
          1    1    1    2  501    0 -0.91618510242E+02  0.27979760716E+02 -0.22177559361E+03  0.24158069531E+03  0.00000000000E+00 0. -1.
<scales pt_clust_5="13000.00000" pt_clust_6="13000.00000" pt_clust_7="13000.00000" pt_clust_8="13000.00000" pt_clust_9="59.91929" pt_clust_10="13000.00000"></scales>
<clustering>
<clus scale="   59.919">  1  9  2 -1</clus>
<clus scale="   80.172">  5  6 -1 -1</clus>
<clus scale="   91.737">  7  8 -1 -1</clus>
<clus scale="   97.773">  7 10 -1 -1</clus>
<clus scale="  238.535">  2  5  1 -1</clus>
<clus scale="   59.919">  1  5  2 -1</clus>
</clustering>
</event>
<event>
10    4  0.2565852E-005  0.2079005E+03  0.7546771E-02  0.1159197E+00
         21   -1    0    0  503  502  0.00000000000E+00  0.00000000000E+00  0.66439866856E+03  0.66439866856E+03  0.00000000000E+00 0. -1.
         -1   -1    0    0    0  501 -0.00000000000E+00 -0.00000000000E+00 -0.10801967279E+03  0.10801967279E+03  0.00000000000E+00 0.  1.
         24    2    1    2    0    0  0.13706766558E+03 -0.19550227196E+02  0.17411266482E+02  0.16015114322E+03  0.78584223235E+02 0.  0.
         23    2    1    2    0    0 -0.17822387446E+02 -0.39792207801E+02  0.22610942119E+03  0.25453188401E+03  0.10844331392E+03 0.  0.
        -11    1    3    3    0    0  0.58052171395E+02 -0.46697442163E+02  0.17806017304E+02  0.76601305214E+02  0.00000000000E+00 0.  1.
         12    1    3    3    0    0  0.79015494189E+02  0.27147214966E+02 -0.39475082197E+00  0.83549838005E+02  0.00000000000E+00 0. -1.
        -11    1    4    4    0    0  0.20930203241E+02  0.17473609475E+02  0.14680844269E+03  0.14931885106E+03  0.00000000000E+00 0.  1.
         11    1    4    4    0    0 -0.38752590686E+02 -0.57265817276E+02  0.79300978500E+02  0.10521303296E+03  0.00000000000E+00 0. -1.
         21    1    1    2  503  501 -0.75559618372E+02  0.42310117503E+02  0.29518645469E+03  0.30762712007E+03  0.00000000000E+00 0. -1.
         -2    1    1    2    0  502 -0.43685659767E+02  0.17032317494E+02  0.17671853412E+02  0.50108194056E+02  0.00000000000E+00 0.  1.
<scales pt_clust_5="13000.00000" pt_clust_6="13000.00000" pt_clust_7="13000.00000" pt_clust_8="13000.00000" pt_clust_9="86.59909" pt_clust_10="13000.00000"></scales>
<clustering>
<clus scale="   78.584">  5  6 -1 -1</clus>
<clus scale="   86.599">  1  9  2 -1</clus>
<clus scale="  108.443">  7  8 -1 -1</clus>
<clus scale="   54.907">  7 10 -1 -1</clus>
<clus scale="  142.559">  2  5  1 -1</clus>
<clus scale="   86.599">  1  5  2 -1</clus>
</clustering>
</event>
<event>
10    4  0.2565852E-005  0.3176593E+03  0.7546771E-02  0.1100328E+00
         21   -1    0    0  503  502  0.00000000000E+00  0.00000000000E+00  0.61869508848E+03  0.61869508848E+03  0.00000000000E+00 0. -1.
          2   -1    0    0  502    0 -0.00000000000E+00 -0.00000000000E+00 -0.13102378229E+03  0.13102378229E+03  0.00000000000E+00 0. -1.
         24    2    1    2    0    0 -0.87102536285E+02  0.12290982905E+03  0.40819477094E+02  0.17514934274E+03  0.79481976881E+02 0.  0.
         23    2    1    2    0    0 -0.81230375768E+00  0.57609962915E+02  0.58779179392E+02  0.12250896559E+03  0.90740768425E+02 0.  0.
        -13    1    3    3    0    0 -0.67949858553E+02  0.63581660719E+02 -0.11494107259E+02  0.93765267337E+02  0.00000000000E+00 0.  1.
         14    1    3    3    0    0 -0.19152677732E+02  0.59328168328E+02  0.52313584353E+02  0.81384075404E+02  0.00000000000E+00 0. -1.
        -11    1    4    4    0    0 -0.44834511344E+02  0.18538094295E+02  0.23799882863E+02  0.54039141109E+02  0.00000000000E+00 0.  1.
         11    1    4    4    0    0  0.44022207586E+02  0.39071868620E+02  0.34979296529E+02  0.68469824477E+02  0.00000000000E+00 0. -1.
         21    1    1    2  503  501 -0.15715885952E+02 -0.14087826915E+02  0.10886611115E+03  0.11089312916E+03  0.00000000000E+00 0. -1.
          1    1    1    2  501    0  0.10363072599E+03 -0.16643196505E+03  0.27920653855E+03  0.34116743328E+03  0.00000000000E+00 0. -1.
<scales pt_clust_5="13000.00000" pt_clust_6="13000.00000" pt_clust_7="13000.00000" pt_clust_8="13000.00000" pt_clust_9="21.10583" pt_clust_10="13000.00000"></scales>
<clustering>
<clus scale="   21.106">  1  9  2 -1</clus>
<clus scale="   79.482">  5  6 -1 -1</clus>
<clus scale="   90.741">  7  8 -1 -1</clus>
<clus scale="  169.933">  2  5  1 -1</clus>
<clus scale="  124.376">  7 10 -1 -1</clus>
<clus scale="   21.106">  1  5  2 -1</clus>
</clustering>
</event>
<event>
10    4  0.2565852E-005  0.1291067E+03  0.7546771E-02  0.1245653E+00
         21   -1    0    0  501  502  0.00000000000E+00  0.00000000000E+00  0.19587510142E+02  0.19587510142E+02  0.00000000000E+00 0.  1.
          2   -1    0    0  503    0 -0.00000000000E+00 -0.00000000000E+00 -0.12003147910E+04  0.12003147910E+04  0.00000000000E+00 0. -1.
         24    2    1    2    0    0 -0.22592413035E+02 -0.21513671396E+02 -0.67490095845E+03  0.68070703165E+03  0.83051213391E+02 0.  0.
         23    2    1    2    0    0  0.12126238360E+02  0.15650171799E+02 -0.30990926984E+03  0.32397287061E+03  0.92318426232E+02 0.  0.
        -13    1    3    3    0    0 -0.19092013726E+01 -0.31444279292E+02 -0.89959709026E+02  0.95315985009E+02  0.00000000000E+00 0.  1.
         14    1    3    3    0    0 -0.20683211662E+02  0.99306078957E+01 -0.58494124942E+03  0.58539104664E+03  0.00000000000E+00 0. -1.
        -13    1    4    4    0    0 -0.64581102667E+01 -0.31730233938E+02 -0.53299536499E+02  0.62364697746E+02  0.00000000000E+00 0.  1.
         13    1    4    4    0    0  0.18584348627E+02  0.47380405737E+02 -0.25660973334E+03  0.26160817286E+03  0.00000000000E+00 0. -1.
         21    1    1    2  503  502 -0.24418756963E+02 -0.20598202909E+02 -0.30716624790E+02  0.44317859754E+02  0.00000000000E+00 0.  1.
          1    1    1    2  501    0  0.34884931638E+02  0.26461702506E+02 -0.16520042773E+03  0.17090453908E+03  0.00000000000E+00 0. -1.
<scales pt_clust_5="13000.00000" pt_clust_6="13000.00000" pt_clust_7="13000.00000" pt_clust_8="13000.00000" pt_clust_9="31.94623" pt_clust_10="13000.00000"></scales>
<clustering>
<clus scale="   31.946">  1  9  2 -1</clus>
<clus scale="   83.051">  5  6 -1 -1</clus>
<clus scale="   91.515">  2  5  1 -1</clus>
<clus scale="   92.318">  7  8 -1 -1</clus>
<clus scale="   26.381">  7 10 -1 -1</clus>
<clus scale="   31.946">  1  5  2 -1</clus>
</clustering>
</event>
<event>
10    4  0.2565852E-005  0.4258598E+03  0.7546771E-02  0.1091042E+00
          4   -1    0    0  502    0 -0.00000000000E+00  0.00000000000E+00  0.11315011786E+04  0.11315011786E+04  0.00000000000E+00 0. -1.
         21   -1    0    0  503  502  0.00000000000E+00 -0.00000000000E+00 -0.81085528903E+02  0.81085528903E+02  0.00000000000E+00 0. -1.
         24    2    1    2    0    0 -0.36534969501E+02 -0.22975629773E+02  0.31795072539E+03  0.33074320219E+03  0.80222929751E+02 0.  0.
         23    2    1    2    0    0 -0.28927201067E+02 -0.93813398904E+02  0.25381954778E+02  0.13559254659E+03  0.90018655218E+02 0.  0.
        -13    1    3    3    0    0 -0.47754892927E+02 -0.43091144382E+02  0.26987812128E+03  0.27743751886E+03  0.00000000000E+00 0.  1.
         14    1    3    3    0    0  0.11219923427E+02  0.20115514609E+02  0.48072604105E+02  0.53305683329E+02  0.00000000000E+00 0. -1.
        -11    1    4    4    0    0 -0.36831310308E+01 -0.68176897470E+02  0.56034783949E+02  0.88326393649E+02  0.00000000000E+00 0.  1.
         11    1    4    4    0    0 -0.25244070036E+02 -0.25636501434E+02 -0.30652829171E+02  0.47266152942E+02  0.00000000000E+00 0. -1.
         21    1    1    2  503  501  0.42709029816E+01  0.44457109126E+02  0.14119191998E+02  0.46840439225E+02  0.00000000000E+00 0. -1.
          3    1    1    2  501    0  0.61191267586E+02  0.72331919551E+02  0.69296377749E+03  0.69941051946E+03  0.00000000000E+00 0. -1.
<scales pt_clust_5="13000.00000" pt_clust_6="13000.00000" pt_clust_7="13000.00000" pt_clust_8="13000.00000" pt_clust_9="44.66179" pt_clust_10="13000.00000"></scales>
<clustering>
<clus scale="   44.662">  2  9  1 -1</clus>
<clus scale="   80.223">  5  6 -1 -1</clus>
<clus scale="   89.918">  1  5  2 -1</clus>
<clus scale="   90.019">  7  8 -1 -1</clus>
<clus scale="   64.885">  7 10 -1 -1</clus>
<clus scale="   44.662">  2  5  1 -1</clus>
</clustering>
</event>
<event>
10    4  0.2565852E-005  0.4173361E+03  0.7546771E-02  0.1061859E+00
          2   -1    0    0  502    0 -0.00000000000E+00  0.00000000000E+00  0.19862785390E+04  0.19862785390E+04  0.00000000000E+00 0. -1.
         21   -1    0    0  503  502  0.00000000000E+00 -0.00000000000E+00 -0.10992606878E+03  0.10992606878E+03  0.00000000000E+00 0.  1.
         24    2    1    2    0    0  0.21104884112E+02 -0.21134828735E+03  0.98825021335E+02  0.24849369487E+03  0.82880738707E+02 0.  0.
         23    2    1    2    0    0  0.37568244463E+02 -0.42476801679E+02  0.18349334181E+03  0.21367283729E+03  0.93651605611E+02 0.  0.
        -13    1    3    3    0    0  0.33678237686E+02 -0.20215061040E+03  0.10668711931E+03  0.23104379327E+03  0.00000000000E+00 0.  1.
         14    1    3    3    0    0 -0.12573353574E+02 -0.91976769508E+01 -0.78620979786E+01  0.17449901605E+02  0.00000000000E+00 0. -1.
        -13    1    4    4    0    0  0.14758149816E+02 -0.70534518846E+02  0.10621799049E+03  0.12835568877E+03  0.00000000000E+00 0.  1.
         13    1    4    4    0    0  0.22810094647E+02  0.28057717167E+02  0.77275351317E+02  0.85317148520E+02  0.00000000000E+00 0. -1.
         21    1    1    2  503  501  0.33160138285E+02  0.30547965826E+02  0.36793135033E+02  0.58193709048E+02  0.00000000000E+00 0.  1.
          1    1    1    2  501    0 -0.91833266860E+02  0.22327712321E+03  0.15572409720E+04  0.15758443666E+04  0.00000000000E+00 0. -1.
<scales pt_clust_5="13000.00000" pt_clust_6="13000.00000" pt_clust_7="13000.00000" pt_clust_8="13000.00000" pt_clust_9="45.08628" pt_clust_10="13000.00000"></scales>
<clustering>
<clus scale="   45.086">  2  9  1 -1</clus>
<clus scale="   82.881">  5  6 -1 -1</clus>
<clus scale="   93.652">  7  8 -1 -1</clus>
<clus scale="  210.846">  1  5  2 -1</clus>
<clus scale="   76.609">  7 10 -1 -1</clus>
<clus scale="   45.086">  2  5  1 -1</clus>
</clustering>
</event>
<event>
10    4  0.2565852E-005  0.6992511E+03  0.7546771E-02  0.1030987E+00
         21   -1    0    0  501  502  0.00000000000E+00  0.00000000000E+00  0.21294609427E+03  0.21294609427E+03  0.00000000000E+00 0. -1.
          2   -1    0    0  503    0 -0.00000000000E+00 -0.00000000000E+00 -0.93706596807E+03  0.93706596807E+03  0.00000000000E+00 0. -1.
         24    2    1    2    0    0 -0.49737255885E+02 -0.51475398694E+02 -0.77117015144E+02  0.13275996459E+03  0.80960872515E+02 0.  0.
         23    2    1    2    0    0 -0.23026993486E+03 -0.24022541937E+02 -0.64479710156E+03  0.69120476121E+03  0.91648209615E+02 0.  0.
        -13    1    3    3    0    0 -0.52669881660E+02  0.36555343810E+01 -0.35484557588E+02  0.63613152672E+02  0.00000000000E+00 0.  1.
         14    1    3    3    0    0  0.29326257750E+01 -0.55130933075E+02 -0.41632457557E+02  0.69146811914E+02  0.00000000000E+00 0. -1.
        -13    1    4    4    0    0 -0.36614554484E+02  0.28909112962E+02 -0.93518814049E+02  0.10450899958E+03  0.00000000000E+00 0.  1.
         13    1    4    4    0    0 -0.19365538037E+03 -0.52931654900E+02 -0.55127828751E+03  0.58669576163E+03  0.00000000000E+00 0. -1.
         21    1    1    2  503  502  0.35282038896E+02 -0.40423274885E+02  0.11635449053E+02  0.54902159299E+02  0.00000000000E+00 0. -1.
          1    1    1    2  501    0  0.24472515185E+03  0.11592121552E+03 -0.13841206156E+02  0.27114517724E+03  0.00000000000E+00 0. -1.
<scales pt_clust_5="13000.00000" pt_clust_6="13000.00000" pt_clust_7="13000.00000" pt_clust_8="13000.00000" pt_clust_9="53.65504" pt_clust_10="13000.00000"></scales>
<clustering>
<clus scale="   53.655">  1  9  2 -1</clus>
<clus scale="   80.961">  5  6 -1 -1</clus>
<clus scale="   91.648">  7  8 -1 -1</clus>
<clus scale="  108.849">  2  5  1 -1</clus>
<clus scale="  271.242">  7 10 -1 -1</clus>
<clus scale="   53.655">  1  5  2 -1</clus>
</clustering>
</event>
<event>
10    4  0.2565852E-005  0.2658018E+03  0.7546771E-02  0.1135566E+00
         21   -1    0    0  503  502  0.00000000000E+00  0.00000000000E+00  0.85383970350E+02  0.85383970350E+02  0.00000000000E+00 0. -1.
         -1   -1    0    0    0  501 -0.00000000000E+00 -0.00000000000E+00 -0.52974243556E+03  0.52974243556E+03  0.00000000000E+00 0.  1.
         24    2    1    2    0    0  0.68138000855E+02 -0.54983875644E+02 -0.50882707019E+02  0.12573818283E+03  0.74532053546E+02 0.  0.
         23    2    1    2    0    0 -0.77460367489E+02  0.11919703168E+03 -0.13575108928E+03  0.21802154401E+03  0.94323880957E+02 0.  0.
        -13    1    3    3    0    0  0.57553504364E+02 -0.35176286171E+02 -0.69290231303E+02  0.96700119583E+02  0.00000000000E+00 0.  1.
         14    1    3    3    0    0  0.10584496491E+02 -0.19807589473E+02  0.18407524284E+02  0.29038063244E+02  0.00000000000E+00 0. -1.
        -11    1    4    4    0    0 -0.68730259985E+02  0.34284574618E+02 -0.98451669626E+02  0.12486797807E+03  0.00000000000E+00 0.  1.
         11    1    4    4    0    0 -0.87301075038E+01  0.84912457060E+02 -0.37299419652E+02  0.93153565940E+02  0.00000000000E+00 0. -1.
         21    1    1    2  503  501 -0.98452654293E+00 -0.21159882234E+02 -0.18634825036E+02  0.28212880264E+02  0.00000000000E+00 0. -1.
         -2    1    1    2    0  502  0.10306893177E+02 -0.43053273800E+02 -0.23908984388E+03  0.24315379881E+03  0.00000000000E+00 0.  1.
<scales pt_clust_5="13000.00000" pt_clust_6="13000.00000" pt_clust_7="13000.00000" pt_clust_8="13000.00000" pt_clust_9="21.18277" pt_clust_10="13000.00000"></scales>
<clustering>
<clus scale="   21.183">  1  9  2 -1</clus>
<clus scale="   74.532">  5  6 -1 -1</clus>
<clus scale="   94.324">  7  8 -1 -1</clus>
<clus scale="   44.783">  7 10 -1 -1</clus>
<clus scale="  119.734">  2  5  1 -1</clus>
<clus scale="   21.183">  1  5  2 -1</clus>
</clustering>
</event>
<event>
10    4  0.2565852E-005  0.6244921E+03  0.7546771E-02  0.1037611E+00
          2   -1    0    0  503    0 -0.00000000000E+00  0.00000000000E+00  0.10765105001E+04  0.10765105001E+04  0.00000000000E+00 0. -1.
         21   -1    0    0  501  502  0.00000000000E+00 -0.00000000000E+00 -0.24046271314E+03  0.24046271314E+03  0.00000000000E+00 0. -1.
         24    2    1    2    0    0 -0.57979834617E+02 -0.83947306515E+02  0.19602428222E+03  0.23548144255E+03  0.81346045219E+02 0.  0.
         23    2    1    2    0    0 -0.14938031546E+03 -0.19989157088E+03  0.49337399418E+03  0.56009751874E+03  0.89555645358E+02 0.  0.
        -11    1    3    3    0    0  0.90208539758E+01 -0.32788872542E+02  0.17931447999E+02  0.38445062055E+02  0.00000000000E+00 0.  1.
         12    1    3    3    0    0 -0.67000688593E+02 -0.51158433973E+02  0.17809283422E+03  0.19703638049E+03  0.00000000000E+00 0. -1.
        -13    1    4    4    0    0 -0.63557174479E+02 -0.83504332601E+02  0.30545750262E+03  0.32298107359E+03  0.00000000000E+00 0. -1.
         13    1    4    4    0    0 -0.85823140979E+02 -0.11638723828E+03  0.18791649155E+03  0.23711644515E+03  0.00000000000E+00 0.  1.
         21    1    1    2  503  502 -0.57562203426E+02  0.10235479850E+03 -0.67468222028E+02  0.13543217130E+03  0.00000000000E+00 0. -1.
          1    1    1    2  501    0  0.26492235350E+03  0.18148407890E+03  0.21411773257E+03  0.38596208062E+03  0.00000000000E+00 0. -1.
<scales pt_clust_5="13000.00000" pt_clust_6="13000.00000" pt_clust_7="13000.00000" pt_clust_8="13000.00000" pt_clust_9="117.43046" pt_clust_10="13000.00000"></scales>
<clustering>
<clus scale="   81.346">  5  6 -1 -1</clus>
<clus scale="   89.556">  7  8 -1 -1</clus>
<clus scale="  117.430">  2  9  1 -1</clus>
<clus scale="  125.746">  1  5  2 -1</clus>
<clus scale="  295.993">  7 10 -1 -1</clus>
<clus scale="  117.430">  2  5  1 -1</clus>
</clustering>
</event>
<event>
10    4  0.2565852E-005  0.1353115E+03  0.7546771E-02  0.1239673E+00
         -3   -1    0    0    0  501 -0.00000000000E+00  0.00000000000E+00  0.11879430732E+03  0.11879430732E+03  0.00000000000E+00 0.  1.
         21   -1    0    0  501  502  0.00000000000E+00 -0.00000000000E+00 -0.38690999951E+03  0.38690999951E+03  0.00000000000E+00 0. -1.
         24    2    1    2    0    0 -0.10521290234E+02  0.22057966812E+02 -0.77645700559E+02  0.11237779885E+03  0.77476857264E+02 0.  0.
         23    2    1    2    0    0  0.90601604191E+00 -0.24938933500E+02  0.65650454905E+02  0.11415531391E+03  0.89992678564E+02 0.  0.
        -13    1    3    3    0    0  0.32160053471E+02  0.20549811013E+02 -0.41987600635E+02  0.56740835199E+02  0.00000000000E+00 0.  1.
         14    1    3    3    0    0 -0.42681343705E+02  0.15081557988E+01 -0.35658099924E+02  0.55636963654E+02  0.00000000000E+00 0. -1.
        -13    1    4    4    0    0 -0.37269887064E+02 -0.26309410650E+02  0.10079313119E+02  0.46720681967E+02  0.00000000000E+00 0. -1.
         13    1    4    4    0    0  0.38175903106E+02  0.13704771505E+01  0.55571141786E+02  0.67434631941E+02  0.00000000000E+00 0.  1.
         21    1    1    2  503  502  0.34597025049E+00  0.33183155577E+02 -0.24236484389E+03  0.24462616185E+03  0.00000000000E+00 0. -1.
         -4    1    1    2    0  503  0.92693039414E+01 -0.30302188888E+02 -0.13755602648E+02  0.34545032222E+02  0.00000000000E+00 0.  1.
<scales pt_clust_5="13000.00000" pt_clust_6="13000.00000" pt_clust_7="13000.00000" pt_clust_8="13000.00000" pt_clust_9="33.18496" pt_clust_10="13000.00000"></scales>
<clustering>
<clus scale="   33.185">  2  9  1 -1</clus>
<clus scale="   77.477">  5  6 -1 -1</clus>
<clus scale="   89.712">  1  5  2 -1</clus>
<clus scale="   89.993">  7  8 -1 -1</clus>
<clus scale="   22.845">  7 10 -1 -1</clus>
<clus scale="   33.185">  2  5  1 -1</clus>
</clustering>
</event>
<event>
10    4  0.2565852E-005  0.2867999E+03  0.7546771E-02  0.1137284E+00
          2   -1    0    0  502    0 -0.00000000000E+00  0.00000000000E+00  0.88974385686E+03  0.88974385686E+03  0.00000000000E+00 0. -1.
         21   -1    0    0  503  502  0.00000000000E+00 -0.00000000000E+00 -0.16345792322E+03  0.16345792322E+03  0.00000000000E+00 0. -1.
         24    2    1    2    0    0  0.44828363973E+02 -0.52515683890E+01  0.35036721737E+02  0.97904498998E+02  0.79501936246E+02 0.  0.
         23    2    1    2    0    0  0.11569825290E+03 -0.48662793491E+02  0.50296359744E+03  0.52650086849E+03  0.92068621011E+02 0.  0.
        -11    1    3    3    0    0  0.40419013769E+02  0.47335882925E+01  0.58941551450E+02  0.71625484428E+02  0.00000000000E+00 0.  1.
         12    1    3    3    0    0  0.44093502033E+01 -0.99851566815E+01 -0.23904829713E+02  0.26279014570E+02  0.00000000000E+00 0. -1.
        -11    1    4    4    0    0  0.11061720156E+03 -0.19783404512E+02  0.46579457058E+03  0.47915773014E+03  0.00000000000E+00 0. -1.
         11    1    4    4    0    0  0.50810513381E+01 -0.28879388980E+02  0.37169026860E+02  0.47343138344E+02  0.00000000000E+00 0.  1.
         21    1    1    2  503  501 -0.41548872071E+02  0.84169881139E+02 -0.86619232558E+02  0.12772536596E+03  0.00000000000E+00 0. -1.
          1    1    1    2  501    0 -0.11897774480E+03 -0.30255519258E+02  0.27490484702E+03  0.30107104663E+03  0.00000000000E+00 0. -1.
<scales pt_clust_5="13000.00000" pt_clust_6="13000.00000" pt_clust_7="13000.00000" pt_clust_8="13000.00000" pt_clust_9="93.25813" pt_clust_10="13000.00000"></scales>
<clustering>
<clus scale="   79.502">  5  6 -1 -1</clus>
<clus scale="   91.421">  1  5  2 -1</clus>
<clus scale="   92.069">  7  8 -1 -1</clus>
<clus scale="   93.258">  2  9  1 -1</clus>
<clus scale="  119.761">  7 10 -1 -1</clus>
<clus scale="   93.258">  2  5  1 -1</clus>
</clustering>
</event>
<event>
10    4  0.2565852E-005  0.3875096E+03  0.7546771E-02  0.1064650E+00
          2   -1    0    0  502    0 -0.00000000000E+00  0.00000000000E+00  0.12218893365E+04  0.12218893365E+04  0.00000000000E+00 0. -1.
         21   -1    0    0  503  502  0.00000000000E+00 -0.00000000000E+00 -0.10563526911E+03  0.10563526911E+03  0.00000000000E+00 0. -1.
         24    2    1    2    0    0 -0.21152594275E+03  0.19681476489E+02  0.22003815835E+03  0.31726366548E+03  0.84314039937E+02 0.  0.
         23    2    1    2    0    0  0.42837474587E+02 -0.85983856600E+01  0.55053518202E+02  0.11555803526E+03  0.91726703751E+02 0.  0.
        -11    1    3    3    0    0 -0.21076291563E+02 -0.23148020134E+02  0.46597663131E+02  0.56137181185E+02  0.00000000000E+00 0.  1.
         12    1    3    3    0    0 -0.19044965119E+03  0.42829496623E+02  0.17344049522E+03  0.26112648429E+03  0.00000000000E+00 0. -1.
        -11    1    4    4    0    0  0.33080315705E+02 -0.49258690924E+02  0.26897873308E+02  0.65147689960E+02  0.00000000000E+00 0.  1.
         11    1    4    4    0    0  0.97571588823E+01  0.40660305264E+02  0.28155644894E+02  0.50410345297E+02  0.00000000000E+00 0. -1.
         21    1    1    2  503  501 -0.28596782296E+02  0.16283390976E+02  0.28235684495E+01  0.33028734734E+02  0.00000000000E+00 0. -1.
          1    1    1    2  501    0  0.19728525046E+03 -0.27366481805E+02  0.83833882242E+03  0.86167417018E+03  0.00000000000E+00 0. -1.
<scales pt_clust_5="13000.00000" pt_clust_6="13000.00000" pt_clust_7="13000.00000" pt_clust_8="13000.00000" pt_clust_9="32.90782" pt_clust_10="13000.00000"></scales>
<clustering>
<clus scale="   32.908">  2  9  1 -1</clus>
<clus scale="   84.314">  5  6 -1 -1</clus>
<clus scale="   91.727">  7  8 -1 -1</clus>
<clus scale="  195.242">  7 10 -1 -1</clus>
<clus scale="  243.705">  1  5  2 -1</clus>
<clus scale="   32.908">  2  5  1 -1</clus>
</clustering>
</event>
<event>
10    4  0.2565852E-005  0.5320414E+03  0.7546771E-02  0.1049507E+00
         21   -1    0    0  501  502  0.00000000000E+00  0.00000000000E+00  0.48078409103E+03  0.48078409103E+03  0.00000000000E+00 0. -1.
          2   -1    0    0  503    0 -0.00000000000E+00 -0.00000000000E+00 -0.40775079233E+03  0.40775079233E+03  0.00000000000E+00 0. -1.
         24    2    1    2    0    0 -0.53616829800E+02  0.10042094433E+03  0.33175855914E+02  0.14296004916E+03  0.79861177932E+02 0.  0.
         23    2    1    2    0    0 -0.11009627554E+03  0.15583495381E+03 -0.51863462895E+02  0.21612078107E+03  0.87250504345E+02 0.  0.
        -13    1    3    3    0    0  0.96795434027E+01  0.35043156145E+02 -0.15775823081E+02  0.39630707122E+02  0.00000000000E+00 0.  1.
         14    1    3    3    0    0 -0.63296373203E+02  0.65377788185E+02  0.48951678994E+02  0.10332934203E+03  0.00000000000E+00 0. -1.
        -13    1    4    4    0    0  0.42963535977E+01  0.31561988712E+02  0.14043137012E+02  0.34811312570E+02  0.00000000000E+00 0.  1.
         13    1    4    4    0    0 -0.11439262914E+03  0.12427296510E+03 -0.65906599907E+02  0.18130946850E+03  0.00000000000E+00 0. -1.
         21    1    1    2  503  502 -0.20744599393E+02  0.12083179036E+02  0.18828892926E+03  0.18981323057E+03  0.00000000000E+00 0. -1.
          1    1    1    2  501    0  0.18445770473E+03 -0.26833907718E+03 -0.96568023581E+02  0.33964082257E+03  0.00000000000E+00 0. -1.
<scales pt_clust_5="13000.00000" pt_clust_6="13000.00000" pt_clust_7="13000.00000" pt_clust_8="13000.00000" pt_clust_9="24.00712" pt_clust_10="13000.00000"></scales>
<clustering>
<clus scale="   24.007">  1  9  2 -1</clus>
<clus scale="   79.861">  5  6 -1 -1</clus>
<clus scale="   87.251">  7  8 -1 -1</clus>
<clus scale="  144.200">  2  5  1 -1</clus>
<clus scale="  245.624">  7 10 -1 -1</clus>
<clus scale="   24.007">  1  5  2 -1</clus>
</clustering>
</event>
<event>
10    4  0.2565852E-005  0.4959153E+03  0.7546771E-02  0.1041864E+00
         21   -1    0    0  503  502  0.00000000000E+00  0.00000000000E+00  0.19759462436E+03  0.19759462436E+03  0.00000000000E+00 0.  1.
          2   -1    0    0  502    0 -0.00000000000E+00 -0.00000000000E+00 -0.16040489521E+04  0.16040489521E+04  0.00000000000E+00 0. -1.
         24    2    1    2    0    0 -0.20674959962E+03  0.53251523755E+02 -0.28088514239E+03  0.35970595028E+03  0.70076998541E+02 0.  0.
         23    2    1    2    0    0 -0.90632694127E+02  0.10756839544E+03 -0.39795441761E+03  0.43171766313E+03  0.90703788320E+02 0.  0.
        -13    1    3    3    0    0 -0.25353924880E+02 -0.97328597545E+01 -0.66874544136E+02  0.72178630627E+02  0.00000000000E+00 0.  1.
         14    1    3    3    0    0 -0.18139567474E+03  0.62984383510E+02 -0.21401059826E+03  0.28752731965E+03  0.00000000000E+00 0. -1.
        -11    1    4    4    0    0  0.51629474965E+01  0.53591220270E+02 -0.17548746869E+03  0.18356068910E+03  0.00000000000E+00 0. -1.
         11    1    4    4    0    0 -0.95795641623E+02  0.53977175170E+02 -0.22246694892E+03  0.24815697402E+03  0.00000000000E+00 0.  1.
         21    1    1    2  503  501  0.18866386564E+01 -0.20825803320E+02  0.10951700791E+03  0.11149550892E+03  0.00000000000E+00 0.  1.
          1    1    1    2  501    0  0.29549565509E+03 -0.13999411588E+03 -0.83713177563E+03  0.89872445412E+03  0.00000000000E+00 0. -1.
<scales pt_clust_5="13000.00000" pt_clust_6="13000.00000" pt_clust_7="13000.00000" pt_clust_8="13000.00000" pt_clust_9="20.91109" pt_clust_10="13000.00000"></scales>
<clustering>
<clus scale="   20.911">  1  9  2 -1</clus>
<clus scale="   70.077">  5  6 -1 -1</clus>
<clus scale="   90.704">  7  8 -1 -1</clus>
<clus scale="  221.867">  2  5  1 -1</clus>
<clus scale="  193.831">  7 10 -1 -1</clus>
<clus scale="   20.911">  1  5  2 -1</clus>
</clustering>
</event>
<event>
10    4  0.2565852E-005  0.2650395E+03  0.7546771E-02  0.1120736E+00
         -1   -1    0    0    0  501 -0.00000000000E+00  0.00000000000E+00  0.49913602422E+03  0.49913602422E+03  0.00000000000E+00 0.  1.
         21   -1    0    0  501  502  0.00000000000E+00 -0.00000000000E+00 -0.19817162114E+03  0.19817162114E+03  0.00000000000E+00 0.  1.
         24    2    1    2    0    0 -0.14446600936E+03 -0.72634745228E+02  0.13715972406E+03  0.22934850136E+03  0.87416881085E+02 0.  0.
         23    2    1    2    0    0  0.15014939942E+00  0.83807364206E+02  0.12038700489E+03  0.17252150366E+03  0.90812672239E+02 0.  0.
        -13    1    3    3    0    0 -0.10443060711E+03 -0.90183350599E+02  0.88431746168E+02  0.16388704085E+03  0.00000000000E+00 0.  1.
         14    1    3    3    0    0 -0.40035402248E+02  0.17548605371E+02  0.48727977889E+02  0.65461460515E+02  0.00000000000E+00 0. -1.
        -11    1    4    4    0    0 -0.24023789438E+02  0.98776467121E+01 -0.35317170240E+01  0.26214182968E+02  0.00000000000E+00 0. -1.
         11    1    4    4    0    0  0.24173938837E+02  0.73929717494E+02  0.12391872192E+03  0.14630732069E+03  0.00000000000E+00 0.  1.
         21    1    1    2  503  502  0.14750161241E+02  0.25164800173E+02 -0.96798014977E+02  0.10109742889E+03  0.00000000000E+00 0.  1.
         -2    1    1    2    0  503  0.12956569872E+03 -0.36337419150E+02  0.14021568911E+03  0.19434021145E+03  0.00000000000E+00 0.  1.
<scales pt_clust_5="13000.00000" pt_clust_6="13000.00000" pt_clust_7="13000.00000" pt_clust_8="13000.00000" pt_clust_9="29.16907" pt_clust_10="13000.00000"></scales>
<clustering>
<clus scale="   29.169">  2  9  1 -1</clus>
<clus scale="   87.417">  5  6 -1 -1</clus>
<clus scale="   90.813">  7  8 -1 -1</clus>
<clus scale="  136.802">  7 10 -1 -1</clus>
<clus scale="  174.050">  1  5  2 -1</clus>
<clus scale="   29.169">  2  5  1 -1</clus>
</clustering>
</event>
<event>
10    4  0.2565852E-005  0.4561861E+03  0.7546771E-02  0.1038842E+00
         21   -1    0    0  503  502  0.00000000000E+00  0.00000000000E+00  0.26636175165E+03  0.26636175165E+03  0.00000000000E+00 0. -1.
          2   -1    0    0  502    0 -0.00000000000E+00 -0.00000000000E+00 -0.78139838344E+03  0.78139838344E+03  0.00000000000E+00 0. -1.
         24    2    1    2    0    0 -0.14017257121E+03  0.27893693050E+03 -0.41866530395E+03  0.52819974311E+03  0.79121242257E+02 0.  0.
         23    2    1    2    0    0 -0.45566977782E+02  0.40885379834E+02 -0.19751344398E+02  0.11010207848E+03  0.89355404597E+02 0.  0.
        -11    1    3    3    0    0 -0.60059128782E+02  0.53383508359E+02 -0.79129497187E+02  0.11277577417E+03  0.00000000000E+00 0.  1.
         12    1    3    3    0    0 -0.80113442430E+02  0.22555342214E+03 -0.33953580676E+03  0.41542396894E+03  0.00000000000E+00 0. -1.
        -13    1    4    4    0    0 -0.41373075243E+02  0.67598447693E+01 -0.49337442790E+02  0.64742645277E+02  0.00000000000E+00 0.  1.
         13    1    4    4    0    0 -0.41939025388E+01  0.34125535064E+02  0.29586098393E+02  0.45359433198E+02  0.00000000000E+00 0. -1.
         21    1    1    2  503  501  0.25621237577E+02 -0.36013675723E+02  0.43642587674E+02  0.62113670902E+02  0.00000000000E+00 0.  1.
          1    1    1    2  501    0  0.16011831142E+03 -0.28380863461E+03 -0.12026257111E+03  0.34734464260E+03  0.00000000000E+00 0. -1.
<scales pt_clust_5="13000.00000" pt_clust_6="13000.00000" pt_clust_7="13000.00000" pt_clust_8="13000.00000" pt_clust_9="44.19765" pt_clust_10="13000.00000"></scales>
<clustering>
<clus scale="   44.198">  1  9  2 -1</clus>
<clus scale="   79.121">  5  6 -1 -1</clus>
<clus scale="   89.355">  7  8 -1 -1</clus>
<clus scale="  311.201">  2  5  1 -1</clus>
<clus scale="  107.221">  7 10 -1 -1</clus>
<clus scale="   44.198">  1  5  2 -1</clus>
</clustering>
</event>
<event>
10    4  0.2565852E-005  0.4065747E+03  0.7546771E-02  0.1054905E+00
          2   -1    0    0  503    0 -0.00000000000E+00  0.00000000000E+00  0.24928012102E+04  0.24928012102E+04  0.00000000000E+00 0. -1.
         21   -1    0    0  501  502  0.00000000000E+00 -0.00000000000E+00 -0.98993053449E+02  0.98993053449E+02  0.00000000000E+00 0.  1.
         24    2    1    2    0    0 -0.20786006277E+03  0.13155362355E+03  0.52186191093E+03  0.58247107506E+03  0.80128257428E+02 0.  0.
         23    2    1    2    0    0  0.19201023248E+03 -0.20311724158E+03  0.10959817455E+04  0.11343402669E+04  0.86181850592E+02 0.  0.
        -13    1    3    3    0    0 -0.13846560806E+03  0.11073092026E+03  0.43249543357E+03  0.46742524683E+03  0.00000000000E+00 0.  1.
         14    1    3    3    0    0 -0.69394454713E+02  0.20822703294E+02  0.89366477361E+02  0.11504582823E+03  0.00000000000E+00 0. -1.
        -11    1    4    4    0    0  0.15704987391E+03 -0.19171943231E+03  0.10233319319E+04  0.10529146435E+04  0.00000000000E+00 0.  1.
         11    1    4    4    0    0  0.34960358570E+02 -0.11397809275E+02  0.72649813592E+02  0.81425623379E+02  0.00000000000E+00 0. -1.
         21    1    1    2  503  502 -0.46054876340E+02 -0.12106898282E+02 -0.33902517910E+02  0.58455190884E+02  0.00000000000E+00 0.  1.
          1    1    1    2  501    0  0.61904706627E+02  0.83670516315E+02  0.80986701820E+03  0.81652773080E+03  0.00000000000E+00 0. -1.
<scales pt_clust_5="13000.00000" pt_clust_6="13000.00000" pt_clust_7="13000.00000" pt_clust_8="13000.00000" pt_clust_9="47.61962" pt_clust_10="13000.00000"></scales>
<clustering>
<clus scale="   47.620">  2  9  1 -1</clus>
<clus scale="   80.128">  5  6 -1 -1</clus>
<clus scale="   86.182">  7  8 -1 -1</clus>
<clus scale="  101.758">  7 10 -1 -1</clus>
<clus scale="  277.196">  1  5  2 -1</clus>
<clus scale="   47.620">  2  5  1 -1</clus>
</clustering>
</event>
<event>
10    4  0.2565852E-005  0.2357550E+03  0.7546771E-02  0.1162298E+00
         21   -1    0    0  503  502  0.00000000000E+00  0.00000000000E+00  0.11484229065E+03  0.11484229065E+03  0.00000000000E+00 0. -1.
          2   -1    0    0  502    0 -0.00000000000E+00 -0.00000000000E+00 -0.13723729077E+04  0.13723729077E+04  0.00000000000E+00 0. -1.
         24    2    1    2    0    0 -0.29984818550E+02  0.24008010019E+02 -0.10865425516E+04  0.10904004184E+04  0.83203859966E+02 0.  0.
         23    2    1    2    0    0 -0.42936369601E+02 -0.28984107565E+02 -0.25739397169E+03  0.27728962777E+03  0.89186718089E+02 0.  0.
        -11    1    3    3    0    0  0.14833574390E+02  0.21722560868E+02 -0.12148799597E+03  0.12430300779E+03  0.00000000000E+00 0.  1.
         12    1    3    3    0    0 -0.44818392940E+02  0.22854491506E+01 -0.96505455558E+03  0.96609741066E+03  0.00000000000E+00 0. -1.
        -11    1    4    4    0    0 -0.26855237560E+01 -0.29085813088E+02 -0.17517664336E+02  0.34059728781E+02  0.00000000000E+00 0.  1.
         11    1    4    4    0    0 -0.40250845845E+02  0.10170552294E+00 -0.23987630735E+03  0.24322989899E+03  0.00000000000E+00 0. -1.
         21    1    1    2  503  501  0.43933109698E+02 -0.15605539020E+02  0.54866947084E+02  0.72000228181E+02  0.00000000000E+00 0. -1.
          1    1    1    2  501    0  0.28988078453E+02  0.20581636566E+02  0.31538959100E+02  0.47524923958E+02  0.00000000000E+00 0. -1.
<scales pt_clust_5="13000.00000" pt_clust_6="13000.00000" pt_clust_7="13000.00000" pt_clust_8="13000.00000" pt_clust_9="46.62243" pt_clust_10="13000.00000"></scales>
<clustering>
<clus scale="   46.622">  1  9  2 -1</clus>
<clus scale="   83.204">  5  6 -1 -1</clus>
<clus scale="   89.187">  7  8 -1 -1</clus>
<clus scale="   63.355">  7 10 -1 -1</clus>
<clus scale="   90.964">  2  5  1 -1</clus>
<clus scale="   46.622">  1  5  2 -1</clus>
</clustering>
</event>
<event>
10    4  0.2565852E-005  0.2074387E+03  0.7546771E-02  0.1174583E+00
         21   -1    0    0  501  502  0.00000000000E+00  0.00000000000E+00  0.60312550117E+02  0.60312550117E+02  0.00000000000E+00 0.  1.
          2   -1    0    0  503    0 -0.00000000000E+00 -0.00000000000E+00 -0.12142579353E+04  0.12142579353E+04  0.00000000000E+00 0. -1.
         24    2    1    2    0    0  0.51637141559E+02 -0.27415339006E+02 -0.17197874516E+03  0.19931279054E+03  0.82042089714E+02 0.  0.
         23    2    1    2    0    0  0.73139125603E+02  0.42331922169E+01 -0.54701696304E+03  0.55940141247E+03  0.91296937579E+02 0.  0.
        -11    1    3    3    0    0 -0.64722941536E+01 -0.40635274475E+02 -0.70300995300E+02  0.81457633549E+02  0.00000000000E+00 0.  1.
         12    1    3    3    0    0  0.58109435713E+02  0.13219935469E+02 -0.10167774986E+03  0.11785515699E+03  0.00000000000E+00 0. -1.
        -13    1    4    4    0    0  0.70974359049E+02 -0.31973896601E+02 -0.42644888154E+03  0.43349548818E+03  0.00000000000E+00 0.  1.
         13    1    4    4    0    0  0.21647665542E+01  0.36207088818E+02 -0.12056808150E+03  0.12590592429E+03  0.00000000000E+00 0. -1.
         21    1    1    2  503  502 -0.18279818876E+03  0.15177193820E+02 -0.19036614624E+03  0.26435732382E+03  0.00000000000E+00 0.  1.
          1    1    1    2  501    0  0.58021921593E+02  0.80049529691E+01 -0.24458353069E+03  0.25149895853E+03  0.00000000000E+00 0. -1.
<scales pt_clust_5="13000.00000" pt_clust_6="13000.00000" pt_clust_7="13000.00000" pt_clust_8="13000.00000" pt_clust_9="171.62679" pt_clust_10="13000.00000"></scales>
<clustering>
<clus scale="   82.042">  5  6 -1 -1</clus>
<clus scale="   91.297">  7  8 -1 -1</clus>
<clus scale="   58.572">  7 10 -1 -1</clus>
<clus scale="  100.742">  2  5  1 -1</clus>
<clus scale="  171.627">  1  9  2 -1</clus>
<clus scale="  171.627">  1  5  2 -1</clus>
</clustering>
</event>
<event>
10    4  0.2565852E-005  0.6039642E+03  0.7546771E-02  0.1049482E+00
          2   -1    0    0  503    0 -0.00000000000E+00  0.00000000000E+00  0.16250319839E+04  0.16250319839E+04  0.00000000000E+00 0. -1.
         21   -1    0    0  501  502  0.00000000000E+00 -0.00000000000E+00 -0.37132254580E+03  0.37132254580E+03  0.00000000000E+00 0. -1.
         24    2    1    2    0    0  0.54636395731E+02  0.68784908767E+00  0.37419536125E+03  0.38666085957E+03  0.80615402152E+02 0.  0.
         23    2    1    2    0    0  0.92600207473E+02  0.22269867553E+03  0.95606129552E+03  0.99027954212E+03  0.91819781232E+02 0.  0.
        -11    1    3    3    0    0  0.57461091359E+02  0.30616812969E+02  0.29116643122E+03  0.29835726391E+03  0.00000000000E+00 0.  1.
         12    1    3    3    0    0 -0.28246956277E+01 -0.29928963881E+02  0.83028930033E+02  0.88303595662E+02  0.00000000000E+00 0. -1.
        -13    1    4    4    0    0  0.37243991661E+02  0.16396046680E+02  0.99782124480E+02  0.10776092811E+03  0.00000000000E+00 0.  1.
         13    1    4    4    0    0  0.55356215812E+02  0.20630262886E+03  0.85627917104E+03  0.88251861400E+03  0.00000000000E+00 0. -1.
         21    1    1    2  503  502  0.27790195686E+02 -0.46855882973E+02 -0.28796856987E+03  0.29307621189E+03  0.00000000000E+00 0. -1.
          1    1    1    2  501    0 -0.17502679889E+03 -0.17653064165E+03  0.21142135120E+03  0.32633791614E+03  0.00000000000E+00 0. -1.
<scales pt_clust_5="13000.00000" pt_clust_6="13000.00000" pt_clust_7="13000.00000" pt_clust_8="13000.00000" pt_clust_9="54.47723" pt_clust_10="13000.00000"></scales>
<clustering>
<clus scale="   54.477">  2  9  1 -1</clus>
<clus scale="   80.615">  5  6 -1 -1</clus>
<clus scale="   91.820">  7  8 -1 -1</clus>
<clus scale="   98.648">  1  5  2 -1</clus>
<clus scale="  253.563">  7 10 -1 -1</clus>
<clus scale="   54.477">  2  5  1 -1</clus>
</clustering>
</event>
<event>
10    4  0.2565852E-005  0.3532494E+03  0.7546771E-02  0.1108320E+00
         21   -1    0    0  503  502  0.00000000000E+00  0.00000000000E+00  0.43086679770E+02  0.43086679770E+02  0.00000000000E+00 0. -1.
          2   -1    0    0  502    0 -0.00000000000E+00 -0.00000000000E+00 -0.13953677829E+04  0.13953677829E+04  0.00000000000E+00 0. -1.
         24    2    1    2    0    0 -0.63571309548E+02 -0.17163839489E+02 -0.28972753603E+03  0.30760924507E+03  0.79658607412E+02 0.  0.
         23    2    1    2    0    0  0.14814573217E+03  0.10432918439E+03 -0.77359727251E+03  0.79990369043E+03  0.92528035023E+02 0.  0.
        -13    1    3    3    0    0 -0.28888860828E+02 -0.29292080446E+02 -0.48497526736E+02  0.63597188274E+02  0.00000000000E+00 0.  1.
         14    1    3    3    0    0 -0.34682448719E+02  0.12128240957E+02 -0.24123000929E+03  0.24401205679E+03  0.00000000000E+00 0. -1.
        -11    1    4    4    0    0  0.12766658260E+03  0.40946868056E+02 -0.57538581574E+03  0.59079966086E+03  0.00000000000E+00 0. -1.
         11    1    4    4    0    0  0.20479149572E+02  0.63382316336E+02 -0.19821145676E+03  0.20910402957E+03  0.00000000000E+00 0.  1.
         21    1    1    2  503  501  0.20387481662E+02 -0.37799174669E+01 -0.13915226480E+02  0.24971397890E+02  0.00000000000E+00 0. -1.
          1    1    1    2  501    0 -0.10496190428E+03 -0.83385427436E+02 -0.27504106811E+03  0.30597012927E+03  0.00000000000E+00 0. -1.
<scales pt_clust_5="13000.00000" pt_clust_6="13000.00000" pt_clust_7="13000.00000" pt_clust_8="13000.00000" pt_clust_9="20.73493" pt_clust_10="13000.00000"></scales>
<clustering>
<clus scale="   20.735">  1  9  2 -1</clus>
<clus scale="   79.659">  5  6 -1 -1</clus>
<clus scale="   92.528">  7  8 -1 -1</clus>
<clus scale="  100.596">  2  5  1 -1</clus>
<clus scale="  142.856">  7 10 -1 -1</clus>
<clus scale="   20.735">  1  5  2 -1</clus>
</clustering>
</event>
<event>
10    4  0.2565852E-005  0.2613126E+03  0.7546771E-02  0.1149774E+00
          2   -1    0    0  502    0 -0.00000000000E+00  0.00000000000E+00  0.10472068448E+04  0.10472068448E+04  0.00000000000E+00 0. -1.
         21   -1    0    0  503  502  0.00000000000E+00 -0.00000000000E+00 -0.36322297348E+03  0.36322297348E+03  0.00000000000E+00 0. -1.
         24    2    1    2    0    0 -0.22092970775E+02  0.33087981067E+02  0.96618965434E+03  0.97032744057E+03  0.80187155565E+02 0.  0.
         23    2    1    2    0    0  0.85189701458E+02 -0.79444988146E+02 -0.28312652615E+01  0.14780477684E+03  0.90936486732E+02 0.  0.
        -11    1    3    3    0    0 -0.34522619982E+02  0.31638171461E+02  0.27036488183E+03  0.27439015017E+03  0.00000000000E+00 0.  1.
         12    1    3    3    0    0  0.12429649207E+02  0.14498096061E+01  0.69582477252E+03  0.69593729040E+03  0.00000000000E+00 0. -1.
        -11    1    4    4    0    0 -0.14855206515E+02 -0.18978048058E+02  0.16651976216E+02  0.29293886403E+02  0.00000000000E+00 0. -1.
         11    1    4    4    0    0  0.10004490797E+03 -0.60466940088E+02 -0.19483241478E+02  0.11851089044E+03  0.00000000000E+00 0.  1.
         21    1    1    2  503  501 -0.29963070542E+02  0.37606787221E+01 -0.13036601805E+03  0.13381788731E+03  0.00000000000E+00 0. -1.
          1    1    1    2  501    0 -0.33133660141E+02  0.42596328357E+02 -0.14900849971E+03  0.15847971356E+03  0.00000000000E+00 0. -1.
<scales pt_clust_5="13000.00000" pt_clust_6="13000.00000" pt_clust_7="13000.00000" pt_clust_8="13000.00000" pt_clust_9="30.19815" pt_clust_10="13000.00000"></scales>
<clustering>
<clus scale="   30.198">  2  9  1 -1</clus>
<clus scale="   80.187">  5  6 -1 -1</clus>
<clus scale="   89.594">  1  5  2 -1</clus>
<clus scale="   90.936">  7  8 -1 -1</clus>
<clus scale="   74.592">  7 10 -1 -1</clus>
<clus scale="   30.198">  2  5  1 -1</clus>
</clustering>
</event>
<event>
10    4  0.2565852E-005  0.3225261E+03  0.7546771E-02  0.1084398E+00
          2   -1    0    0  503    0 -0.00000000000E+00  0.00000000000E+00  0.21803900469E+03  0.21803900469E+03  0.00000000000E+00 0. -1.
         21   -1    0    0  501  502  0.00000000000E+00 -0.00000000000E+00 -0.98558576041E+03  0.98558576041E+03  0.00000000000E+00 0. -1.
         24    2    1    2    0    0 -0.80452577425E+02 -0.21570948680E+03  0.45464271845E+02  0.25002916994E+03  0.86280854771E+02 0.  0.
         23    2    1    2    0    0 -0.83692015158E+01  0.55413842296E+02 -0.49121807604E+02  0.12427145731E+03  0.99446999289E+02 0.  0.
        -11    1    3    3    0    0  0.84234927186E+01 -0.32682737938E+02  0.31368533512E+02  0.46077125381E+02  0.00000000000E+00 0.  1.
         12    1    3    3    0    0 -0.88876070144E+02 -0.18302674886E+03  0.14095738332E+02  0.20395204456E+03  0.00000000000E+00 0. -1.
        -11    1    4    4    0    0 -0.29984060614E+02  0.81080805119E+01  0.20612184644E+02  0.37277969584E+02  0.00000000000E+00 0.  1.
         11    1    4    4    0    0  0.21614859098E+02  0.47305761784E+02 -0.69733992249E+02  0.86993487726E+02  0.00000000000E+00 0. -1.
         21    1    1    2  503  502  0.90527381957E+02 -0.36027173929E+02 -0.43932096903E+03  0.44999564217E+03  0.00000000000E+00 0. -1.
          1    1    1    2  501    0 -0.17056030158E+01  0.19632281843E+03 -0.32456825094E+03  0.37932849568E+03  0.00000000000E+00 0. -1.
<scales pt_clust_5="13000.00000" pt_clust_6="13000.00000" pt_clust_7="13000.00000" pt_clust_8="13000.00000" pt_clust_9="97.43287" pt_clust_10="13000.00000"></scales>
<clustering>
<clus scale="   86.281">  5  6 -1 -1</clus>
<clus scale="   97.433">  2  9  1 -1</clus>
<clus scale="   99.447">  7  8 -1 -1</clus>
<clus scale="  182.098">  7 10 -1 -1</clus>
<clus scale="  246.924">  1  5  2 -1</clus>
<clus scale="   97.433">  2  5  1 -1</clus>
</clustering>
</event>
<event>
10    4  0.4568746E-005  0.7262895E+03  0.7546771E-02  0.9973290E-01
         21   -1    0    0  503  502  0.00000000000E+00  0.00000000000E+00  0.39281054499E+03  0.39281054499E+03  0.00000000000E+00 0.  1.
          2   -1    0    0  502    0 -0.00000000000E+00 -0.00000000000E+00 -0.12756043771E+04  0.12756043771E+04  0.00000000000E+00 0. -1.
         24    2    1    2    0    0 -0.25248523141E+03 -0.10696067490E+03  0.17252359080E+03  0.33563422189E+03  0.87730060200E+02 0.  0.
         23    2    1    2    0    0 -0.54027721548E+02  0.22778239830E+03 -0.95159040748E+02  0.26869854886E+03  0.91322787149E+02 0.  0.
        -11    1    3    3    0    0 -0.21188214293E+03 -0.74243050114E+02  0.98696564093E+02  0.24524902599E+03  0.00000000000E+00 0.  1.
         12    1    3    3    0    0 -0.40603088484E+02 -0.32717624784E+02  0.73827026706E+02  0.90385195902E+02  0.00000000000E+00 0. -1.
        -13    1    4    4    0    0 -0.46264853702E+02  0.70394338386E+02 -0.69156564238E+02  0.10898821011E+03  0.00000000000E+00 0. -1.
         13    1    4    4    0    0 -0.77628678458E+01  0.15738805991E+03 -0.26002476510E+02  0.15971033875E+03  0.00000000000E+00 0.  1.
         21    1    1    2  503  501  0.24843256861E+02  0.15998736996E+01  0.23108149659E+02  0.33966654060E+02  0.00000000000E+00 0. -1.
          1    1    1    2  501    0  0.28166969610E+03 -0.12242159710E+03 -0.98326653186E+03  0.10301154973E+04  0.00000000000E+00 0. -1.
<scales pt_clust_5="13000.00000" pt_clust_6="13000.00000" pt_clust_7="13000.00000" pt_clust_8="13000.00000" pt_clust_9="24.89472" pt_clust_10="13000.00000"></scales>
<clustering>
<clus scale="   24.895">  1  9  2 -1</clus>
<clus scale="   87.730">  5  6 -1 -1</clus>
<clus scale="   91.323">  7  8 -1 -1</clus>
<clus scale="  272.394">  2  5  1 -1</clus>
<clus scale="  228.052">  7 10 -1 -1</clus>
<clus scale="   24.895">  1  5  2 -1</clus>
</clustering>
</event>
<event>
10    4  0.2565852E-005  0.2351963E+03  0.7546771E-02  0.1166212E+00
         21   -1    0    0  503  502  0.00000000000E+00  0.00000000000E+00  0.14112175276E+03  0.14112175276E+03  0.00000000000E+00 0. -1.
         -1   -1    0    0    0  501 -0.00000000000E+00 -0.00000000000E+00 -0.32617582102E+03  0.32617582102E+03  0.00000000000E+00 0.  1.
         24    2    1    2    0    0 -0.11769726737E+02 -0.13966605071E+02 -0.16299347283E+03  0.18324807354E+03  0.81727545829E+02 0.  0.
         23    2    1    2    0    0 -0.75089195346E+02 -0.43895019533E+02 -0.18974133036E+02  0.12721530974E+03  0.90876604854E+02 0.  0.
        -13    1    3    3    0    0  0.21346174113E+02 -0.34996630617E+02 -0.10942556337E+03  0.11685194574E+03  0.00000000000E+00 0.  1.
         14    1    3    3    0    0 -0.33115900850E+02  0.21030025546E+02 -0.53567909459E+02  0.66396127804E+02  0.00000000000E+00 0. -1.
        -11    1    4    4    0    0 -0.12229182330E+02 -0.39245079367E+02 -0.43252006443E+02  0.59669633954E+02  0.00000000000E+00 0.  1.
         11    1    4    4    0    0 -0.62860013017E+02 -0.46499401659E+01  0.24277873406E+02  0.67545675784E+02  0.00000000000E+00 0. -1.
         21    1    1    2  503  501 -0.14260533141E+02  0.16896771766E+02  0.34894850946E+02  0.41309978505E+02  0.00000000000E+00 0. -1.
         -2    1    1    2    0  502  0.10111945522E+03  0.40964852838E+02 -0.37981313341E+02  0.11552421199E+03  0.00000000000E+00 0.  1.
<scales pt_clust_5="13000.00000" pt_clust_6="13000.00000" pt_clust_7="13000.00000" pt_clust_8="13000.00000" pt_clust_9="22.11026" pt_clust_10="13000.00000"></scales>
<clustering>
<clus scale="   22.110">  1  9  2 -1</clus>
<clus scale="   81.728">  5  6 -1 -1</clus>
<clus scale="   83.692">  2  5  1 -1</clus>
<clus scale="   90.877">  7  8 -1 -1</clus>
<clus scale="   98.374">  7 10 -1 -1</clus>
<clus scale="   22.110">  1  5  2 -1</clus>
</clustering>
</event>
<event>
10    4  0.2565852E-005  0.3294574E+03  0.7546771E-02  0.1079362E+00
          2   -1    0    0  502    0 -0.00000000000E+00  0.00000000000E+00  0.12367473545E+04  0.12367473545E+04  0.00000000000E+00 0. -1.
         21   -1    0    0  503  502  0.00000000000E+00 -0.00000000000E+00 -0.12464220511E+03  0.12464220511E+03  0.00000000000E+00 0.  1.
         24    2    1    2    0    0 -0.21352762437E+03 -0.77666431877E+02  0.45176255649E+03  0.51418621133E+03  0.93123205841E+02 0.  0.
         23    2    1    2    0    0  0.17065513833E+03  0.75773379345E+02  0.25558716694E+03  0.32968155125E+03  0.92197310571E+02 0.  0.
        -13    1    3    3    0    0 -0.21035040052E+03 -0.63838699061E+02  0.44872492330E+03  0.49967662272E+03  0.00000000000E+00 0.  1.
         14    1    3    3    0    0 -0.31772238507E+01 -0.13827732817E+02  0.30376331814E+01  0.14509588609E+02  0.00000000000E+00 0. -1.
        -11    1    4    4    0    0  0.42088209579E+02  0.63589299920E+02  0.69522854332E+02  0.10319129675E+03  0.00000000000E+00 0.  1.
         11    1    4    4    0    0  0.12856692875E+03  0.12184079425E+02  0.18606431261E+03  0.22649025451E+03  0.00000000000E+00 0. -1.
         21    1    1    2  503  501 -0.42926836930E+02 -0.25612284690E+02 -0.39819569121E+02  0.63908532614E+02  0.00000000000E+00 0.  1.
          1    1    1    2  501    0  0.85799322968E+02  0.27505337222E+02  0.44457499513E+03  0.45361326446E+03  0.00000000000E+00 0. -1.
<scales pt_clust_5="13000.00000" pt_clust_6="13000.00000" pt_clust_7="13000.00000" pt_clust_8="13000.00000" pt_clust_9="49.98702" pt_clust_10="13000.00000"></scales>
<clustering>
<clus scale="   49.987">  2  9  1 -1</clus>
<clus scale="   92.197">  7  8 -1 -1</clus>
<clus scale="   87.079">  7 10 -1 -1</clus>
<clus scale="   93.123">  5  6 -1 -1</clus>
<clus scale="  265.190">  1  5  2 -1</clus>
<clus scale="   49.987">  2  5  1 -1</clus>
</clustering>
</event>
<event>
10    4  0.2565852E-005  0.4245148E+03  0.7546771E-02  0.1059326E+00
         21   -1    0    0  503  502  0.00000000000E+00  0.00000000000E+00  0.12164479506E+03  0.12164479506E+03  0.00000000000E+00 0. -1.
          2   -1    0    0  502    0 -0.00000000000E+00 -0.00000000000E+00 -0.16091186339E+04  0.16091186339E+04  0.00000000000E+00 0. -1.
         24    2    1    2    0    0  0.79392030555E+02  0.19106603339E+03 -0.34085791582E+03  0.40521113479E+03  0.72129199022E+02 0.  0.
         23    2    1    2    0    0  0.69443485709E+01  0.72492555320E+02 -0.14736049628E+03  0.18671849261E+03  0.88573613822E+02 0.  0.
        -11    1    3    3    0    0  0.36994467869E+02  0.10078019204E+03 -0.24215426067E+03  0.26488473667E+03  0.00000000000E+00 0.  1.
         12    1    3    3    0    0  0.42397562686E+02  0.90285841342E+02 -0.98703655144E+02  0.14032639811E+03  0.00000000000E+00 0. -1.
        -11    1    4    4    0    0  0.43496151574E+02  0.44343302073E+02 -0.52878079787E+02  0.81574107182E+02  0.00000000000E+00 0. -1.
         11    1    4    4    0    0 -0.36551803004E+02  0.28149253246E+02 -0.94482416493E+02  0.10514438543E+03  0.00000000000E+00 0.  1.
         21    1    1    2  503  501  0.26956164962E+02 -0.22621984105E+02  0.47293349342E+02  0.58949553741E+02  0.00000000000E+00 0. -1.
          1    1    1    2  501    0 -0.11329254409E+03 -0.24093660460E+03 -0.10465487761E+04  0.10798842479E+04  0.00000000000E+00 0. -1.
<scales pt_clust_5="13000.00000" pt_clust_6="13000.00000" pt_clust_7="13000.00000" pt_clust_8="13000.00000" pt_clust_9="35.19075" pt_clust_10="13000.00000"></scales>
<clustering>
<clus scale="   35.191">  1  9  2 -1</clus>
<clus scale="   72.129">  5  6 -1 -1</clus>
<clus scale="   88.574">  7  8 -1 -1</clus>
<clus scale="  215.025">  2  5  1 -1</clus>
<clus scale="   93.337">  7 10 -1 -1</clus>
<clus scale="   35.191">  1  5  2 -1</clus>
</clustering>
</event>
<event>
10    4  0.2565852E-005  0.3971008E+03  0.7546771E-02  0.1086471E+00
         21   -1    0    0  501  502  0.00000000000E+00  0.00000000000E+00  0.22645890423E+03  0.22645890423E+03  0.00000000000E+00 0.  1.
          2   -1    0    0  503    0 -0.00000000000E+00 -0.00000000000E+00 -0.19582911947E+04  0.19582911947E+04  0.00000000000E+00 0. -1.
         24    2    1    2    0    0  0.91096534946E+02  0.16897634798E+02 -0.12448048673E+04  0.12508998301E+04  0.81407115861E+02 0.  0.
         23    2    1    2    0    0 -0.14509135443E+02  0.27941119853E+02  0.97474189466E+01  0.95331549854E+02  0.89453177872E+02 0.  0.
        -11    1    3    3    0    0  0.39665840396E+02 -0.13664012040E+02 -0.19845173974E+03  0.20283780990E+03  0.00000000000E+00 0.  1.
         12    1    3    3    0    0  0.51430694550E+02  0.30561646837E+02 -0.10463531276E+04  0.10480620202E+04  0.00000000000E+00 0. -1.
        -13    1    4    4    0    0 -0.38555396117E+02  0.42354320368E+02  0.26028601420E+02  0.62911804262E+02  0.00000000000E+00 0.  1.
         13    1    4    4    0    0  0.24046260674E+02 -0.14413200515E+02 -0.16281182474E+02  0.32419745592E+02  0.00000000000E+00 0. -1.
         21    1    1    2  503  502  0.48006155177E+02  0.18473523100E+02  0.15946828292E+03  0.16755893067E+03  0.00000000000E+00 0.  1.
          1    1    1    2  501    0 -0.12459355468E+03 -0.63312277751E+02 -0.65624312505E+03  0.67095978833E+03  0.00000000000E+00 0. -1.
<scales pt_clust_5="13000.00000" pt_clust_6="13000.00000" pt_clust_7="13000.00000" pt_clust_8="13000.00000" pt_clust_9="51.43794" pt_clust_10="13000.00000"></scales>
<clustering>
<clus scale="   51.438">  1  9  2 -1</clus>
<clus scale="   81.407">  5  6 -1 -1</clus>
<clus scale="   89.453">  7  8 -1 -1</clus>
<clus scale="  125.184">  2  5  1 -1</clus>
<clus scale="   56.613">  7 10 -1 -1</clus>
<clus scale="   51.438">  1  5  2 -1</clus>
</clustering>
</event>
<event>
10    4  0.2565852E-005  0.1619444E+03  0.7546771E-02  0.1217338E+00
         21   -1    0    0  503  502  0.00000000000E+00  0.00000000000E+00  0.53223118820E+02  0.53223118820E+02  0.00000000000E+00 0. -1.
          2   -1    0    0  502    0 -0.00000000000E+00 -0.00000000000E+00 -0.43607501507E+03  0.43607501507E+03  0.00000000000E+00 0. -1.
         24    2    1    2    0    0  0.28794456871E+01  0.14266033090E+02 -0.16473465842E+03  0.18452273046E+03  0.81849370577E+02 0.  0.
         23    2    1    2    0    0  0.66823990731E+02 -0.22435937953E+02 -0.19168381712E+03  0.22389546313E+03  0.91747891606E+02 0.  0.
        -11    1    3    3    0    0 -0.10884600480E+02 -0.28058685418E+02 -0.10964861163E+03  0.11370392423E+03  0.00000000000E+00 0.  1.
         12    1    3    3    0    0  0.13764046167E+02  0.42324718508E+02 -0.55086046794E+02  0.70818806224E+02  0.00000000000E+00 0. -1.
        -11    1    4    4    0    0 -0.17786987058E+02 -0.14191581181E+02 -0.13467268537E+02  0.26441354105E+02  0.00000000000E+00 0.  1.
         11    1    4    4    0    0  0.84610977789E+02 -0.82443567722E+01 -0.17821654858E+03  0.19745410902E+03  0.00000000000E+00 0. -1.
         21    1    1    2  503  501 -0.29198971343E+02 -0.30717369350E+01  0.30755669818E+01  0.29520748763E+02  0.00000000000E+00 0. -1.
          1    1    1    2  501    0 -0.40504465075E+02  0.11241641798E+02 -0.29508987697E+02  0.51359191545E+02  0.00000000000E+00 0. -1.
<scales pt_clust_5="13000.00000" pt_clust_6="13000.00000" pt_clust_7="13000.00000" pt_clust_8="13000.00000" pt_clust_9="29.36010" pt_clust_10="13000.00000"></scales>
<clustering>
<clus scale="   29.360">  1  9  2 -1</clus>
<clus scale="   81.849">  5  6 -1 -1</clus>
<clus scale="   83.093">  2  5  1 -1</clus>
<clus scale="   91.748">  7  8 -1 -1</clus>
<clus scale="   52.196">  7 10 -1 -1</clus>
<clus scale="   29.360">  1  5  2 -1</clus>
</clustering>
</event>
<event>
10    4  0.2565852E-005  0.2974259E+03  0.7546771E-02  0.1119986E+00
         21   -1    0    0  503  502  0.00000000000E+00  0.00000000000E+00  0.14656485472E+03  0.14656485472E+03  0.00000000000E+00 0. -1.
          2   -1    0    0  502    0 -0.00000000000E+00 -0.00000000000E+00 -0.37915896724E+03  0.37915896724E+03  0.00000000000E+00 0. -1.
         24    2    1    2    0    0  0.88234713119E+02  0.34450806900E+02 -0.86838217007E+02  0.15126191120E+03  0.79793904222E+02 0.  0.
         23    2    1    2    0    0  0.48496232277E+01  0.25401261050E+02 -0.17378683846E+03  0.19668398419E+03  0.88396727912E+02 0.  0.
        -13    1    3    3    0    0  0.46646557892E+02  0.59189541270E+02 -0.49888339621E+02  0.90377815801E+02  0.00000000000E+00 0.  1.
         14    1    3    3    0    0  0.41588155227E+02 -0.24738734370E+02 -0.36949877386E+02  0.60884095397E+02  0.00000000000E+00 0. -1.
        -11    1    4    4    0    0  0.30890208761E+02  0.13508270402E+01 -0.15191947432E+03  0.15503404919E+03  0.00000000000E+00 0.  1.
         11    1    4    4    0    0 -0.26040585534E+02  0.24050434009E+02 -0.21867364147E+02  0.41649935003E+02  0.00000000000E+00 0. -1.
         21    1    1    2  503  501 -0.91192417121E+01  0.40731752062E+02 -0.65903319937E+01  0.42257173015E+02  0.00000000000E+00 0. -1.
          1    1    1    2  501    0 -0.83965094634E+02 -0.10058382001E+03  0.34621274950E+02  0.13552075356E+03  0.00000000000E+00 0. -1.
<scales pt_clust_5="13000.00000" pt_clust_6="13000.00000" pt_clust_7="13000.00000" pt_clust_8="13000.00000" pt_clust_9="41.74010" pt_clust_10="13000.00000"></scales>
<clustering>
<clus scale="   41.740">  1  9  2 -1</clus>
<clus scale="   79.794">  5  6 -1 -1</clus>
<clus scale="   88.397">  7  8 -1 -1</clus>
<clus scale="  116.298">  7 10 -1 -1</clus>
<clus scale="  125.491">  2  5  1 -1</clus>
<clus scale="   41.740">  1  5  2 -1</clus>
</clustering>
</event>
<event>
10    4  0.2565852E-005  0.1730720E+03  0.7546771E-02  0.1196416E+00
         21   -1    0    0  503  502  0.00000000000E+00  0.00000000000E+00  0.29301895423E+02  0.29301895423E+02  0.00000000000E+00 0. -1.
          2   -1    0    0  502    0 -0.00000000000E+00 -0.00000000000E+00 -0.99577076703E+03  0.99577076703E+03  0.00000000000E+00 0. -1.
         24    2    1    2    0    0 -0.31824307514E+02 -0.56267697869E+02 -0.58817842045E+03  0.59750954055E+03  0.82975637327E+02 0.  0.
         23    2    1    2    0    0  0.39394821259E+02 -0.30394062614E+00 -0.14273205544E+03  0.17226139883E+03  0.88031276001E+02 0.  0.
        -13    1    3    3    0    0 -0.12062379330E+01 -0.28377873392E+02 -0.48209255665E+02  0.55954365692E+02  0.00000000000E+00 0.  1.
         14    1    3    3    0    0 -0.30618069581E+02 -0.27889824477E+02 -0.53996916478E+03  0.54155517485E+03  0.00000000000E+00 0. -1.
        -11    1    4    4    0    0 -0.24014278479E+02  0.89721583631E+01 -0.73878530551E+02  0.78199887935E+02  0.00000000000E+00 0.  1.
         11    1    4    4    0    0  0.63409099738E+02 -0.92760989892E+01 -0.68853524887E+02  0.94061510893E+02  0.00000000000E+00 0. -1.
         21    1    1    2  503  501  0.70858251808E+01 -0.19532549139E+02 -0.44020428676E+02  0.48677793039E+02  0.00000000000E+00 0.  1.
          1    1    1    2  501    0 -0.14656338926E+02  0.76104187634E+02 -0.19153796705E+03  0.20662393004E+03  0.00000000000E+00 0. -1.
<scales pt_clust_5="13000.00000" pt_clust_6="13000.00000" pt_clust_7="13000.00000" pt_clust_8="13000.00000" pt_clust_9="20.77810" pt_clust_10="13000.00000"></scales>
<clustering>
<clus scale="   20.778">  1  9  2 -1</clus>
<clus scale="   82.976">  5  6 -1 -1</clus>
<clus scale="   88.031">  7  8 -1 -1</clus>
<clus scale="   71.770">  7 10 -1 -1</clus>
<clus scale="  106.672">  2  5  1 -1</clus>
<clus scale="   20.778">  1  5  2 -1</clus>
</clustering>
</event>
<event>
10    4  0.2565852E-005  0.3403635E+03  0.7546771E-02  0.1113622E+00
          2   -1    0    0  503    0 -0.00000000000E+00  0.00000000000E+00  0.54399888315E+03  0.54399888315E+03  0.00000000000E+00 0. -1.
         21   -1    0    0  501  502  0.00000000000E+00 -0.00000000000E+00 -0.31954394763E+03  0.31954394763E+03  0.00000000000E+00 0.  1.
         24    2    1    2    0    0  0.32237437451E+02  0.33523450250E+02  0.83886146469E+02  0.12467744263E+03  0.79652401353E+02 0.  0.
         23    2    1    2    0    0 -0.13669325895E+03 -0.69077362606E+02  0.47682564298E+02  0.18512599649E+03  0.92419037923E+02 0.  0.
        -13    1    3    3    0    0 -0.21043640737E+02  0.16053394649E+02  0.56247415967E+02  0.62163639679E+02  0.00000000000E+00 0.  1.
         14    1    3    3    0    0  0.53281078188E+02  0.17470055601E+02  0.27638730502E+02  0.62513802951E+02  0.00000000000E+00 0. -1.
        -13    1    4    4    0    0 -0.11289014008E+03 -0.15515290173E+02  0.77737150657E+01  0.11421619238E+03  0.00000000000E+00 0.  1.
         13    1    4    4    0    0 -0.23803118871E+02 -0.53562072433E+02  0.39908849232E+02  0.70909804106E+02  0.00000000000E+00 0. -1.
         21    1    1    2  503  502  0.67681159059E+02 -0.34990337594E+01 -0.22313389109E+03  0.23319887625E+03  0.00000000000E+00 0.  1.
          1    1    1    2  501    0  0.36774662442E+02  0.39052946115E+02  0.31602011585E+03  0.32054051541E+03  0.00000000000E+00 0. -1.
<scales pt_clust_5="13000.00000" pt_clust_6="13000.00000" pt_clust_7="13000.00000" pt_clust_8="13000.00000" pt_clust_9="67.77155" pt_clust_10="13000.00000"></scales>
<clustering>
<clus scale="   67.772">  2  9  1 -1</clus>
<clus scale="   79.652">  5  6 -1 -1</clus>
<clus scale="   92.419">  7  8 -1 -1</clus>
<clus scale="   54.742">  7 10 -1 -1</clus>
<clus scale="   98.275">  1  5  2 -1</clus>
<clus scale="   67.772">  2  5  1 -1</clus>
</clustering>
</event>
<event>
10    4  0.2565852E-005  0.5177834E+03  0.7546771E-02  0.1060431E+00
          4   -1    0    0  502    0 -0.00000000000E+00  0.00000000000E+00  0.49543233702E+03  0.49543233702E+03  0.00000000000E+00 0. -1.
         21   -1    0    0  503  502  0.00000000000E+00 -0.00000000000E+00 -0.28962102565E+03  0.28962102565E+03  0.00000000000E+00 0.  1.
         24    2    1    2    0    0  0.50010375317E+02  0.41990649593E+02 -0.72308669242E+02  0.12707346455E+03  0.81577383224E+02 0.  0.
         23    2    1    2    0    0  0.15322228785E+03 -0.13754344602E+01 -0.31563294698E+02  0.18355553180E+03  0.96007449533E+02 0.  0.
        -13    1    3    3    0    0  0.12330691169E+02  0.39200238258E+02 -0.78672439137E+02  0.88758421031E+02  0.00000000000E+00 0.  1.
         14    1    3    3    0    0  0.37679684148E+02  0.27904113351E+01  0.63637698948E+01  0.38315043523E+02  0.00000000000E+00 0. -1.
        -11    1    4    4    0    0  0.10962478820E+03 -0.44098148354E+02 -0.32348055559E+02  0.12250974482E+03  0.00000000000E+00 0.  1.
         11    1    4    4    0    0  0.43597499650E+02  0.42722713894E+02  0.78476086185E+00  0.61045786978E+02  0.00000000000E+00 0. -1.
         21    1    1    2  503  501  0.55199427096E+02 -0.11787372616E+02 -0.15042041166E+02  0.58413884542E+02  0.00000000000E+00 0.  1.
          3    1    1    2  501    0 -0.25843209026E+03 -0.28827842517E+02  0.32472531648E+03  0.41601048177E+03  0.00000000000E+00 0. -1.
<scales pt_clust_5="13000.00000" pt_clust_6="13000.00000" pt_clust_7="13000.00000" pt_clust_8="13000.00000" pt_clust_9="56.44394" pt_clust_10="13000.00000"></scales>
<clustering>
<clus scale="   56.444">  2  9  1 -1</clus>
<clus scale="   81.577">  5  6 -1 -1</clus>
<clus scale="   96.007">  7  8 -1 -1</clus>
<clus scale="  114.893">  1  5  2 -1</clus>
<clus scale="  193.552">  7 10 -1 -1</clus>
<clus scale="   56.444">  2  5  1 -1</clus>
</clustering>
</event>
<event>
10    4  0.2565852E-005  0.1721880E+03  0.7546771E-02  0.1195496E+00
         21   -1    0    0  501  502  0.00000000000E+00  0.00000000000E+00  0.23422851869E+02  0.23422851869E+02  0.00000000000E+00 0. -1.
          2   -1    0    0  503    0 -0.00000000000E+00 -0.00000000000E+00 -0.16109527922E+04  0.16109527922E+04  0.00000000000E+00 0. -1.
         24    2    1    2    0    0  0.69799038330E+02 -0.33106722497E+02 -0.47009166388E+03  0.48290995039E+03  0.79043576004E+02 0.  0.
         23    2    1    2    0    0  0.16961358995E+02  0.34192164490E+02 -0.42918989805E+03  0.43991102009E+03  0.88661971496E+02 0.  0.
        -11    1    3    3    0    0  0.10182094741E+02 -0.42674917972E+02 -0.12264792411E+03  0.13025873086E+03  0.00000000000E+00 0.  1.
         12    1    3    3    0    0  0.59616943589E+02  0.95681954755E+01 -0.34744373977E+03  0.35265121953E+03  0.00000000000E+00 0. -1.
        -11    1    4    4    0    0 -0.27878601905E+02  0.40927272030E+02 -0.26436260707E+03  0.26896067753E+03  0.00000000000E+00 0. -1.
         11    1    4    4    0    0  0.44839960899E+02 -0.67351075402E+01 -0.16482729098E+03  0.17095034256E+03  0.00000000000E+00 0.  1.
         21    1    1    2  503  502 -0.11405655500E+03  0.45564990862E+02 -0.40573133160E+03  0.42391388226E+03  0.00000000000E+00 0. -1.
          1    1    1    2  501    0  0.27296157679E+02 -0.46650432855E+02 -0.28251704681E+03  0.28764079134E+03  0.00000000000E+00 0. -1.
<scales pt_clust_5="13000.00000" pt_clust_6="13000.00000" pt_clust_7="13000.00000" pt_clust_8="13000.00000" pt_clust_9="94.64555" pt_clust_10="13000.00000"></scales>
<clustering>
<clus scale="   79.044">  5  6 -1 -1</clus>
<clus scale="   88.662">  7  8 -1 -1</clus>
<clus scale="   54.049">  7 10 -1 -1</clus>
<clus scale="  110.525">  2  5  1 -1</clus>
<clus scale="   94.646">  1  9  2 -1</clus>
<clus scale="   94.646">  1  5  2 -1</clus>
</clustering>
</event>
<event>
10    4  0.2565852E-005  0.4181614E+03  0.7546771E-02  0.1066558E+00
          2   -1    0    0  503    0 -0.00000000000E+00  0.00000000000E+00  0.63059220354E+03  0.63059220354E+03  0.00000000000E+00 0. -1.
         21   -1    0    0  501  502  0.00000000000E+00 -0.00000000000E+00 -0.38413624778E+03  0.38413624778E+03  0.00000000000E+00 0. -1.
         24    2    1    2    0    0  0.74204051146E+02 -0.16049215835E+03 -0.48863398175E+02  0.20038310011E+03  0.80633622222E+02 0.  0.
         23    2    1    2    0    0 -0.14997430203E+03 -0.14686801612E+03  0.16940462744E+03  0.28445476866E+03  0.90299956764E+02 0.  0.
        -13    1    3    3    0    0 -0.16570818186E+02 -0.41141050779E+02 -0.12685758455E+02  0.46131405161E+02  0.00000000000E+00 0.  1.
         14    1    3    3    0    0  0.90774869332E+02 -0.11935110757E+03 -0.36177639720E+02  0.15425169495E+03  0.00000000000E+00 0. -1.
        -13    1    4    4    0    0 -0.96500163161E+00 -0.47632984366E+02  0.21663966219E+02  0.52336983674E+02  0.00000000000E+00 0.  1.
         13    1    4    4    0    0 -0.14900930040E+03 -0.99235031751E+02  0.14774066122E+03  0.23211778499E+03  0.00000000000E+00 0. -1.
         21    1    1    2  503  502  0.11031833400E+03  0.12048574749E+03 -0.13164864167E+03  0.20980542180E+03  0.00000000000E+00 0. -1.
          1    1    1    2  501    0 -0.34548083116E+02  0.18687442698E+03  0.25756336817E+03  0.32008516074E+03  0.00000000000E+00 0. -1.
<scales pt_clust_5="13000.00000" pt_clust_6="13000.00000" pt_clust_7="13000.00000" pt_clust_8="13000.00000" pt_clust_9="163.36141" pt_clust_10="13000.00000"></scales>
<clustering>
<clus scale="   80.634">  5  6 -1 -1</clus>
<clus scale="   90.300">  7  8 -1 -1</clus>
<clus scale="  163.361">  2  9  1 -1</clus>
<clus scale="  183.964">  1  5  2 -1</clus>
<clus scale="  162.338">  7 10 -1 -1</clus>
<clus scale="  163.361">  2  5  1 -1</clus>
</clustering>
</event>
<event>
10    4  0.2565852E-005  0.2176031E+03  0.7546771E-02  0.1164618E+00
          2   -1    0    0  503    0 -0.00000000000E+00  0.00000000000E+00  0.52584973162E+03  0.52584973162E+03  0.00000000000E+00 0. -1.
         21   -1    0    0  501  502  0.00000000000E+00 -0.00000000000E+00 -0.72575931068E+02  0.72575931068E+02  0.00000000000E+00 0. -1.
         24    2    1    2    0    0 -0.43563169213E+02  0.71583445569E+02  0.22485233250E+03  0.25218056314E+03  0.77553372609E+02 0.  0.
         23    2    1    2    0    0 -0.17789956677E+02 -0.10218316977E+03  0.12963448120E+03  0.18906011496E+03  0.90447474307E+02 0.  0.
        -11    1    3    3    0    0 -0.37738938510E+02  0.48455266520E+01  0.38397714134E+02  0.54056369274E+02  0.00000000000E+00 0.  1.
         12    1    3    3    0    0 -0.58242307029E+01  0.66737918917E+02  0.18645461836E+03  0.19812419386E+03  0.00000000000E+00 0. -1.
        -11    1    4    4    0    0 -0.27665081082E+02 -0.77017577494E+01  0.73042165673E+02  0.78484595622E+02  0.00000000000E+00 0.  1.
         11    1    4    4    0    0  0.98751244052E+01 -0.94481412020E+02  0.56592315526E+02  0.11057551933E+03  0.00000000000E+00 0. -1.
         21    1    1    2  503  502  0.13106853853E+02 -0.21084865726E+02 -0.10553122153E+02  0.26976463219E+02  0.00000000000E+00 0. -1.
          1    1    1    2  501    0  0.48246272036E+02  0.51684589926E+02  0.10934010901E+03  0.13020852137E+03  0.00000000000E+00 0. -1.
<scales pt_clust_5="13000.00000" pt_clust_6="13000.00000" pt_clust_7="13000.00000" pt_clust_8="13000.00000" pt_clust_9="24.82662" pt_clust_10="13000.00000"></scales>
<clustering>
<clus scale="   24.827">  2  9  1 -1</clus>
<clus scale="   77.553">  5  6 -1 -1</clus>
<clus scale="   90.447">  7  8 -1 -1</clus>
<clus scale="   69.605">  7 10 -1 -1</clus>
<clus scale="  109.634">  1  5  2 -1</clus>
<clus scale="   24.827">  2  5  1 -1</clus>
</clustering>
</event>
<event>
10    4  0.2565852E-005  0.3549872E+03  0.7546771E-02  0.1093687E+00
          2   -1    0    0  503    0 -0.00000000000E+00  0.00000000000E+00  0.16232531585E+04  0.16232531585E+04  0.00000000000E+00 0. -1.
         21   -1    0    0  501  502  0.00000000000E+00 -0.00000000000E+00 -0.75130530773E+02  0.75130530773E+02  0.00000000000E+00 0. -1.
         24    2    1    2    0    0 -0.12803095713E+03 -0.14746003050E+01  0.94910577541E+03  0.96130629385E+03  0.83149968417E+02 0.  0.
         23    2    1    2    0    0  0.84431302596E+02  0.52235451254E+02  0.49526397280E+03  0.51308478444E+03  0.90068896073E+02 0.  0.
        -11    1    3    3    0    0 -0.61262807264E+02 -0.20818983414E+02  0.23245758080E+03  0.24129460934E+03  0.00000000000E+00 0.  1.
         12    1    3    3    0    0 -0.66768149864E+02  0.19344383109E+02  0.71664819462E+03  0.72001168452E+03  0.00000000000E+00 0. -1.
        -13    1    4    4    0    0 -0.74777698444E+01  0.37696973577E+02  0.19429657340E+03  0.19806094339E+03  0.00000000000E+00 0. -1.
         13    1    4    4    0    0  0.91909072440E+02  0.14538477677E+02  0.30096739940E+03  0.31502384105E+03  0.00000000000E+00 0.  1.
         21    1    1    2  503  502  0.91095797555E+02  0.12496605600E+02  0.11148575541E+03  0.14451187890E+03  0.00000000000E+00 0. -1.
          1    1    1    2  501    0 -0.47496143022E+02 -0.63257456549E+02 -0.77328758509E+01  0.79480732130E+02  0.00000000000E+00 0. -1.
<scales pt_clust_5="13000.00000" pt_clust_6="13000.00000" pt_clust_7="13000.00000" pt_clust_8="13000.00000" pt_clust_9="91.94895" pt_clust_10="13000.00000"></scales>
<clustering>
<clus scale="   83.150">  5  6 -1 -1</clus>
<clus scale="   90.069">  7  8 -1 -1</clus>
<clus scale="   79.104">  7 10 -1 -1</clus>
<clus scale="   91.949">  2  9  1 -1</clus>
<clus scale="  144.804">  1  5  2 -1</clus>
<clus scale="   91.949">  2  5  1 -1</clus>
</clustering>
</event>
<event>
10    4  0.2565852E-005  0.2317189E+03  0.7546771E-02  0.1143874E+00
         21   -1    0    0  503  502  0.00000000000E+00  0.00000000000E+00  0.35560066003E+03  0.35560066003E+03  0.00000000000E+00 0. -1.
          2   -1    0    0  502    0 -0.00000000000E+00 -0.00000000000E+00 -0.55470256384E+03  0.55470256384E+03  0.00000000000E+00 0. -1.
         24    2    1    2    0    0  0.17558906954E+03  0.48992964975E+02 -0.10418770279E+03  0.22447503330E+03  0.79385963531E+02 0.  0.
         23    2    1    2    0    0 -0.12399389395E+03  0.18577939605E+02 -0.16257860165E+03  0.22444525789E+03  0.90687631446E+02 0.  0.
        -13    1    3    3    0    0  0.15270837026E+03  0.23960908846E+02 -0.11045798414E+03  0.18998667785E+03  0.00000000000E+00 0.  1.
         14    1    3    3    0    0  0.22880699281E+02  0.25032056129E+02  0.62702813543E+01  0.34488355454E+02  0.00000000000E+00 0. -1.
        -13    1    4    4    0    0 -0.34760931388E+02  0.43288811222E+02 -0.94196042701E+02  0.10933955363E+03  0.00000000000E+00 0.  1.
         13    1    4    4    0    0 -0.89232962567E+02 -0.24710871617E+02 -0.68382558949E+02  0.11510570426E+03  0.00000000000E+00 0. -1.
         21    1    1    2  503  501 -0.77876114935E+02 -0.77873608873E+02  0.25193908355E+03  0.27495870610E+03  0.00000000000E+00 0. -1.
          1    1    1    2  501    0  0.26280939351E+02  0.10302704294E+02 -0.18427468293E+03  0.18642422658E+03  0.00000000000E+00 0. -1.
<scales pt_clust_5="13000.00000" pt_clust_6="13000.00000" pt_clust_7="13000.00000" pt_clust_8="13000.00000" pt_clust_9="110.13169" pt_clust_10="13000.00000"></scales>
<clustering>
<clus scale="   79.386">  5  6 -1 -1</clus>
<clus scale="   90.688">  7  8 -1 -1</clus>
<clus scale="   28.228">  7 10 -1 -1</clus>
<clus scale="  110.132">  1  9  2 -1</clus>
<clus scale="  147.889">  2  5  1 -1</clus>
<clus scale="  110.132">  1  5  2 -1</clus>
</clustering>
</event>
<event>
10    4  0.2565852E-005  0.4409419E+03  0.7546771E-02  0.1073873E+00
         21   -1    0    0  501  502  0.00000000000E+00  0.00000000000E+00  0.17257976786E+03  0.17257976786E+03  0.00000000000E+00 0. -1.
          2   -1    0    0  503    0 -0.00000000000E+00 -0.00000000000E+00 -0.64347611278E+03  0.64347611278E+03  0.00000000000E+00 0. -1.
         24    2    1    2    0    0 -0.89466569665E+02  0.37627284351E+02 -0.21028088767E+03  0.24517515580E+03  0.80453251563E+02 0.  0.
         23    2    1    2    0    0 -0.40961732880E+01  0.93974278974E+02  0.51976702859E+02  0.14151178042E+03  0.92065534337E+02 0.  0.
        -11    1    3    3    0    0 -0.20862169840E+01  0.38353019830E+02 -0.71822603363E+02  0.81448098721E+02  0.00000000000E+00 0.  1.
         12    1    3    3    0    0 -0.87380352681E+02 -0.72573547923E+00 -0.13845828431E+03  0.16372705708E+03  0.00000000000E+00 0. -1.
        -13    1    4    4    0    0  0.34178701868E+02  0.10123247588E+02  0.30394183067E+02  0.46845172296E+02  0.00000000000E+00 0.  1.
         13    1    4    4    0    0 -0.38274875156E+02  0.83851031386E+02  0.21582519792E+02  0.94666608122E+02  0.00000000000E+00 0. -1.
         21    1    1    2  503  502 -0.14662695795E+02  0.25638045260E+02  0.26863439415E+02  0.39924283211E+02  0.00000000000E+00 0.  1.
          1    1    1    2  501    0  0.10822543875E+03 -0.15723960858E+03 -0.33945559952E+03  0.38944466121E+03  0.00000000000E+00 0. -1.
<scales pt_clust_5="13000.00000" pt_clust_6="13000.00000" pt_clust_7="13000.00000" pt_clust_8="13000.00000" pt_clust_9="29.53479" pt_clust_10="13000.00000"></scales>
<clustering>
<clus scale="   29.535">  1  9  2 -1</clus>
<clus scale="   80.453">  5  6 -1 -1</clus>
<clus scale="   92.066">  7  8 -1 -1</clus>
<clus scale="  128.364">  2  5  1 -1</clus>
<clus scale="  121.185">  7 10 -1 -1</clus>
<clus scale="   29.535">  1  5  2 -1</clus>
</clustering>
</event>
<event>
10    4  0.2565852E-005  0.6155910E+03  0.7546771E-02  0.1023298E+00
          2   -1    0    0  502    0 -0.00000000000E+00  0.00000000000E+00  0.17919557960E+04  0.17919557960E+04  0.00000000000E+00 0. -1.
         21   -1    0    0  503  502  0.00000000000E+00 -0.00000000000E+00 -0.13053691415E+03  0.13053691415E+03  0.00000000000E+00 0.  1.
         24    2    1    2    0    0  0.96434097455E+02 -0.16748740725E+03  0.33147548852E+03  0.39196461675E+03  0.80054322519E+02 0.  0.
         23    2    1    2    0    0  0.19352602680E+03  0.19222991980E+03  0.94127105710E+03  0.98428256698E+03  0.91740414293E+02 0.  0.
        -11    1    3    3    0    0  0.53070446361E+02 -0.22372824338E+02  0.97849877382E+02  0.11354124383E+03  0.00000000000E+00 0.  1.
         12    1    3    3    0    0  0.43363651094E+02 -0.14511458292E+03  0.23362561114E+03  0.27842337293E+03  0.00000000000E+00 0. -1.
        -13    1    4    4    0    0  0.12588188711E+03  0.61508213438E+02  0.43024928331E+03  0.45248641483E+03  0.00000000000E+00 0.  1.
         13    1    4    4    0    0  0.67644139686E+02  0.13072170636E+03  0.51102177379E+03  0.53179615215E+03  0.00000000000E+00 0. -1.
         21    1    1    2  503  501 -0.10552446816E+02  0.27662725455E+02 -0.28714094863E+02  0.41244148157E+02  0.00000000000E+00 0. -1.
          1    1    1    2  501    0 -0.27940767744E+03 -0.52405238002E+02  0.41738643107E+03  0.50500137824E+03  0.00000000000E+00 0. -1.
<scales pt_clust_5="13000.00000" pt_clust_6="13000.00000" pt_clust_7="13000.00000" pt_clust_8="13000.00000" pt_clust_9="29.60710" pt_clust_10="13000.00000"></scales>
<clustering>
<clus scale="   29.607">  2  9  1 -1</clus>
<clus scale="   80.054">  5  6 -1 -1</clus>
<clus scale="   91.740">  7  8 -1 -1</clus>
<clus scale="  200.677">  1  5  2 -1</clus>
<clus scale="  269.895">  7 10 -1 -1</clus>
<clus scale="   29.607">  2  5  1 -1</clus>
</clustering>
</event>
<event>
10    4  0.2565852E-005  0.2698935E+03  0.7546771E-02  0.1138608E+00
         21   -1    0    0  503  502  0.00000000000E+00  0.00000000000E+00  0.27327220561E+03  0.27327220561E+03  0.00000000000E+00 0. -1.
          2   -1    0    0  502    0 -0.00000000000E+00 -0.00000000000E+00 -0.79308671742E+03  0.79308671742E+03  0.00000000000E+00 0. -1.
         24    2    1    2    0    0 -0.79364082040E+02 -0.95608657211E+02 -0.17940105093E+03  0.23238306639E+03  0.79859123586E+02 0.  0.
         23    2    1    2    0    0 -0.69588754357E+02 -0.88353913420E+02 -0.27966860641E+03  0.31629296351E+03  0.95800316330E+02 0.  0.
        -11    1    3    3    0    0  0.12493043677E+02 -0.18945739942E+02 -0.56378250838E+02  0.60774372640E+02  0.00000000000E+00 0.  1.
         12    1    3    3    0    0 -0.91857125717E+02 -0.76662917269E+02 -0.12302280009E+03  0.17160869375E+03  0.00000000000E+00 0. -1.
        -13    1    4    4    0    0 -0.16313569477E+02 -0.90472598407E+02 -0.20367297466E+03  0.22345940172E+03  0.00000000000E+00 0. -1.
         13    1    4    4    0    0 -0.53275184880E+02  0.21186849876E+01 -0.75995631749E+02  0.92833561792E+02  0.00000000000E+00 0.  1.
         21    1    1    2  503  501  0.37323658709E+02  0.14051225160E+03  0.19032555694E+03  0.23950065965E+03  0.00000000000E+00 0. -1.
          1    1    1    2  501    0  0.11162917769E+03  0.43450319030E+02 -0.25107041141E+03  0.27818223348E+03  0.00000000000E+00 0. -1.
<scales pt_clust_5="13000.00000" pt_clust_6="13000.00000" pt_clust_7="13000.00000" pt_clust_8="13000.00000" pt_clust_9="145.38483" pt_clust_10="13000.00000"></scales>
<clustering>
<clus scale="   79.859">  5  6 -1 -1</clus>
<clus scale="   95.800">  7  8 -1 -1</clus>
<clus scale="  119.787">  7 10 -1 -1</clus>
<clus scale="  145.385">  1  9  2 -1</clus>
<clus scale="  106.240">  2  5  1 -1</clus>
<clus scale="  145.385">  1  5  2 -1</clus>
</clustering>
</event>
<event>
10    4  0.2565852E-005  0.2367570E+03  0.7546771E-02  0.1145357E+00
          2   -1    0    0  503    0 -0.00000000000E+00  0.00000000000E+00  0.83532105780E+03  0.83532105780E+03  0.00000000000E+00 0. -1.
         21   -1    0    0  501  502  0.00000000000E+00 -0.00000000000E+00 -0.70717797106E+02  0.70717797106E+02  0.00000000000E+00 0.  1.
         24    2    1    2    0    0 -0.73386991953E+02 -0.63194733172E+02  0.78182382177E+02  0.14924149246E+03  0.82348729798E+02 0.  0.
         23    2    1    2    0    0 -0.10430556468E+02 -0.29050371408E+01  0.14531400839E+03  0.17236059543E+03  0.92058557845E+02 0.  0.
        -13    1    3    3    0    0 -0.19359260777E+02 -0.56061431449E+02  0.71901687639E+01  0.59744151185E+02  0.00000000000E+00 0.  1.
         14    1    3    3    0    0 -0.54027731177E+02 -0.71333017226E+01  0.70992213413E+02  0.89497341273E+02  0.00000000000E+00 0. -1.
        -13    1    4    4    0    0  0.30246027976E+02 -0.21172037223E+02  0.26474238040E+02  0.45430855685E+02  0.00000000000E+00 0. -1.
         13    1    4    4    0    0 -0.40676584443E+02  0.18267000082E+02  0.11883977035E+03  0.12692973974E+03  0.00000000000E+00 0.  1.
         21    1    1    2  503  502 -0.28541863594E+02  0.16918363162E+02  0.39018105273E+01  0.33407979809E+02  0.00000000000E+00 0.  1.
          1    1    1    2  501    0  0.11235941202E+03  0.49181407151E+02  0.53720505960E+03  0.55102878721E+03  0.00000000000E+00 0. -1.
<scales pt_clust_5="13000.00000" pt_clust_6="13000.00000" pt_clust_7="13000.00000" pt_clust_8="13000.00000" pt_clust_9="33.17935" pt_clust_10="13000.00000"></scales>
<clustering>
<clus scale="   33.179">  2  9  1 -1</clus>
<clus scale="   82.349">  5  6 -1 -1</clus>
<clus scale="   92.059">  7  8 -1 -1</clus>
<clus scale="  120.306">  7 10 -1 -1</clus>
<clus scale="  133.814">  1  5  2 -1</clus>
<clus scale="   33.179">  2  5  1 -1</clus>
</clustering>
</event>
<event>
10    4  0.2565852E-005  0.2407362E+03  0.7546771E-02  0.1164818E+00
          2   -1    0    0  503    0 -0.00000000000E+00  0.00000000000E+00  0.47945790391E+03  0.47945790391E+03  0.00000000000E+00 0. -1.
         21   -1    0    0  501  502  0.00000000000E+00 -0.00000000000E+00 -0.77383016260E+02  0.77383016260E+02  0.00000000000E+00 0. -1.
         24    2    1    2    0    0 -0.10934318884E+02  0.51981248274E+01  0.18601623143E+03  0.20285380742E+03  0.80006555980E+02 0.  0.
         23    2    1    2    0    0  0.52600737576E+02  0.17977796309E+02  0.10301625532E+02  0.10799098214E+03  0.92010271068E+02 0.  0.
        -13    1    3    3    0    0  0.28028020394E+02  0.84976438846E+00  0.26468448921E+02  0.38559963887E+02  0.00000000000E+00 0.  1.
         14    1    3    3    0    0 -0.38962339277E+02  0.43483604389E+01  0.15954778251E+03  0.16429384354E+03  0.00000000000E+00 0. -1.
        -11    1    4    4    0    0  0.19349296960E+02 -0.13050889615E+02 -0.36119284350E+02  0.43003763958E+02  0.00000000000E+00 0. -1.
         11    1    4    4    0    0  0.33251440616E+02  0.31028685924E+02  0.46420909882E+02  0.64987218186E+02  0.00000000000E+00 0.  1.
         21    1    1    2  503  502  0.11500799976E+02 -0.17758394688E+02 -0.10226365580E+02  0.23499096472E+02  0.00000000000E+00 0. -1.
          1    1    1    2  501    0 -0.53167218669E+02 -0.54175264481E+01  0.21598339627E+03  0.22249703413E+03  0.00000000000E+00 0. -1.
<scales pt_clust_5="13000.00000" pt_clust_6="13000.00000" pt_clust_7="13000.00000" pt_clust_8="13000.00000" pt_clust_9="21.15724" pt_clust_10="13000.00000"></scales>
<clustering>
<clus scale="   21.157">  2  9  1 -1</clus>
<clus scale="   80.007">  5  6 -1 -1</clus>
<clus scale="   80.595">  1  5  2 -1</clus>
<clus scale="   92.010">  7  8 -1 -1</clus>
<clus scale="   59.758">  7 10 -1 -1</clus>
<clus scale="   21.157">  2  5  1 -1</clus>
</clustering>
</event>
<event>
10    4  0.2565852E-005  0.3994330E+03  0.7546771E-02  0.1100463E+00
         21   -1    0    0  503  502  0.00000000000E+00  0.00000000000E+00  0.12627345330E+03  0.12627345330E+03  0.00000000000E+00 0. -1.
          2   -1    0    0  502    0 -0.00000000000E+00 -0.00000000000E+00 -0.61470679941E+03  0.61470679941E+03  0.00000000000E+00 0. -1.
         24    2    1    2    0    0 -0.32340554869E+02  0.12307650914E+02 -0.54850579553E+01  0.87643161626E+02  0.80335846039E+02 0.  0.
         23    2    1    2    0    0 -0.17590577005E+03  0.30196474648E+02 -0.18035807403E+03  0.26943729438E+03  0.90624244619E+02 0.  0.
        -13    1    3    3    0    0  0.25093905642E+02  0.16018452708E+02 -0.42762482156E+01  0.30076256854E+02  0.00000000000E+00 0.  1.
         14    1    3    3    0    0 -0.57434460510E+02 -0.37108017938E+01 -0.12088097397E+01  0.57566904772E+02  0.00000000000E+00 0. -1.
        -13    1    4    4    0    0 -0.10688076649E+03  0.81256663419E+00 -0.15873151437E+03  0.19136314213E+03  0.00000000000E+00 0.  1.
         13    1    4    4    0    0 -0.69025003556E+02  0.29383908013E+02 -0.21626559662E+02  0.78074152246E+02  0.00000000000E+00 0. -1.
         21    1    1    2  503  501  0.26110018362E+02  0.12036153458E+02 -0.27776996308E+01  0.28884557538E+02  0.00000000000E+00 0.  1.
          1    1    1    2  501    0  0.18213630656E+03 -0.54540279020E+02 -0.29981251448E+03  0.35501523917E+03  0.00000000000E+00 0. -1.
<scales pt_clust_5="13000.00000" pt_clust_6="13000.00000" pt_clust_7="13000.00000" pt_clust_8="13000.00000" pt_clust_9="28.75069" pt_clust_10="13000.00000"></scales>
<clustering>
<clus scale="   28.751">  1  9  2 -1</clus>
<clus scale="   80.336">  5  6 -1 -1</clus>
<clus scale="   85.175">  2  5  1 -1</clus>
<clus scale="   90.624">  7  8 -1 -1</clus>
<clus scale="  179.149">  7 10 -1 -1</clus>
<clus scale="   28.751">  1  5  2 -1</clus>
</clustering>
</event>
<event>
10    4  0.2565852E-005  0.2889843E+03  0.7546771E-02  0.1130923E+00
          2   -1    0    0  503    0 -0.00000000000E+00  0.00000000000E+00  0.45212227552E+03  0.45212227552E+03  0.00000000000E+00 0. -1.
         21   -1    0    0  501  502  0.00000000000E+00 -0.00000000000E+00 -0.18704836874E+03  0.18704836874E+03  0.00000000000E+00 0.  1.
         24    2    1    2    0    0 -0.53241399514E+02 -0.36309440516E+02 -0.83191361098E+02  0.13254248052E+03  0.80583400823E+02 0.  0.
         23    2    1    2    0    0  0.94673724017E+02  0.68764622312E+02  0.83267256884E+02  0.17709717292E+03  0.10362569801E+03 0.  0.
        -11    1    3    3    0    0 -0.83253323327E+01  0.24134427388E+02 -0.96745202796E+01  0.27301613257E+02  0.00000000000E+00 0.  1.
         12    1    3    3    0    0 -0.44916067181E+02 -0.60443867904E+02 -0.73516840818E+02  0.10524086726E+03  0.00000000000E+00 0. -1.
        -13    1    4    4    0    0  0.53453027950E+02  0.56900065506E+02  0.10352322094E+03  0.12966071466E+03  0.00000000000E+00 0. -1.
         13    1    4    4    0    0  0.41220696067E+02  0.11864556806E+02 -0.20255964060E+02  0.47436458262E+02  0.00000000000E+00 0.  1.
         21    1    1    2  503  502  0.46458419109E+02 -0.39272759014E+02  0.12524283695E+02  0.62109516089E+02  0.00000000000E+00 0.  1.
          1    1    1    2  501    0 -0.87890743612E+02  0.68175772180E+01  0.25247372730E+03  0.26742147473E+03  0.00000000000E+00 0. -1.
<scales pt_clust_5="13000.00000" pt_clust_6="13000.00000" pt_clust_7="13000.00000" pt_clust_8="13000.00000" pt_clust_9="60.83366" pt_clust_10="13000.00000"></scales>
<clustering>
<clus scale="   60.834">  2  9  1 -1</clus>
<clus scale="   80.583">  5  6 -1 -1</clus>
<clus scale="  103.626">  7  8 -1 -1</clus>
<clus scale="   85.897">  7 10 -1 -1</clus>
<clus scale="  104.353">  1  5  2 -1</clus>
<clus scale="   60.834">  2  5  1 -1</clus>
</clustering>
</event>
<event>
10    4  0.2565852E-005  0.2033459E+03  0.7546771E-02  0.1172337E+00
          2   -1    0    0  503    0 -0.00000000000E+00  0.00000000000E+00  0.10914652727E+04  0.10914652727E+04  0.00000000000E+00 0. -1.
         21   -1    0    0  501  502  0.00000000000E+00 -0.00000000000E+00 -0.48073942933E+02  0.48073942933E+02  0.00000000000E+00 0. -1.
         24    2    1    2    0    0  0.64276637405E+02 -0.22041046495E+02  0.23963261316E+03  0.26086007288E+03  0.77504157866E+02 0.  0.
         23    2    1    2    0    0 -0.27892481171E+02 -0.35790633046E+02  0.24859836948E+03  0.26919455381E+03  0.92766365525E+02 0.  0.
        -13    1    3    3    0    0  0.52260385183E+01 -0.39788012957E+02  0.11517267233E+03  0.12196369093E+03  0.00000000000E+00 0.  1.
         14    1    3    3    0    0  0.59050598886E+02  0.17746966462E+02  0.12445994083E+03  0.13889638195E+03  0.00000000000E+00 0. -1.
        -11    1    4    4    0    0  0.15932055150E+02 -0.42165851010E+02  0.19258203869E+03  0.19778683221E+03  0.00000000000E+00 0. -1.
         11    1    4    4    0    0 -0.43824536321E+02  0.63752179636E+01  0.56016330794E+02  0.71407721595E+02  0.00000000000E+00 0.  1.
         21    1    1    2  503  502  0.35268956996E+02  0.11093225451E+02 -0.96670042558E+01  0.38215310411E+02  0.00000000000E+00 0. -1.
          1    1    1    2  501    0 -0.71653113230E+02  0.46738454090E+02  0.56482735136E+03  0.57126927851E+03  0.00000000000E+00 0. -1.
<scales pt_clust_5="13000.00000" pt_clust_6="13000.00000" pt_clust_7="13000.00000" pt_clust_8="13000.00000" pt_clust_9="36.97241" pt_clust_10="13000.00000"></scales>
<clustering>
<clus scale="   36.972">  2  9  1 -1</clus>
<clus scale="   77.504">  5  6 -1 -1</clus>
<clus scale="   92.766">  7  8 -1 -1</clus>
<clus scale="   82.503">  7 10 -1 -1</clus>
<clus scale="  112.550">  1  5  2 -1</clus>
<clus scale="   36.972">  2  5  1 -1</clus>
</clustering>
</event>
<event>
10    4  0.2565852E-005  0.2237378E+03  0.7546771E-02  0.1172194E+00
         21   -1    0    0  503  502  0.00000000000E+00  0.00000000000E+00  0.41366857421E+03  0.41366857421E+03  0.00000000000E+00 0.  1.
          2   -1    0    0  502    0 -0.00000000000E+00 -0.00000000000E+00 -0.39706138821E+03  0.39706138821E+03  0.00000000000E+00 0. -1.
         24    2    1    2    0    0 -0.21644898733E+02  0.20284560383E+02 -0.30025885555E+03  0.31199611292E+03  0.79411769331E+02 0.  0.
         23    2    1    2    0    0 -0.94010969820E+02  0.19713452279E+02  0.92476157120E+02  0.16108068689E+03  0.90379562986E+02 0.  0.
        -13    1    3    3    0    0 -0.21303736000E+02 -0.14906327994E+02 -0.31059134252E+02  0.40505772457E+02  0.00000000000E+00 0.  1.
         14    1    3    3    0    0 -0.34116273348E+00  0.35190888377E+02 -0.26919972130E+03  0.27149034046E+03  0.00000000000E+00 0. -1.
        -13    1    4    4    0    0 -0.85898932011E+02 -0.22476295985E+02  0.58842654333E+02  0.10651886392E+03  0.00000000000E+00 0.  1.
         13    1    4    4    0    0 -0.81120378095E+01  0.42189748264E+02  0.33633502788E+02  0.54561822969E+02  0.00000000000E+00 0. -1.
         21    1    1    2  503  501  0.12268285818E+03 -0.11180213500E+03  0.99787696790E+02  0.19367081740E+03  0.00000000000E+00 0.  1.
          1    1    1    2  501    0 -0.70269896272E+01  0.71804122342E+02  0.12460218764E+03  0.14398234521E+03  0.00000000000E+00 0. -1.
<scales pt_clust_5="13000.00000" pt_clust_6="13000.00000" pt_clust_7="13000.00000" pt_clust_8="13000.00000" pt_clust_9="150.67291" pt_clust_10="13000.00000"></scales>
<clustering>
<clus scale="   79.412">  5  6 -1 -1</clus>
<clus scale="   84.771">  2  5  1 -1</clus>
<clus scale="   90.380">  7  8 -1 -1</clus>
<clus scale="   74.552">  7 10 -1 -1</clus>
<clus scale="  150.673">  1  9  2 -1</clus>
<clus scale="  150.673">  1  5  2 -1</clus>
</clustering>
</event>
<event>
10    4  0.2565852E-005  0.2050614E+03  0.7546771E-02  0.1187399E+00
          2   -1    0    0  502    0 -0.00000000000E+00  0.00000000000E+00  0.35655309017E+03  0.35655309017E+03  0.00000000000E+00 0. -1.
         21   -1    0    0  503  502  0.00000000000E+00 -0.00000000000E+00 -0.10106710970E+03  0.10106710970E+03  0.00000000000E+00 0.  1.
         24    2    1    2    0    0  0.10701674735E+02  0.14244131339E+02  0.64828177313E+01  0.80405049532E+02  0.78137852189E+02 0.  0.
         23    2    1    2    0    0 -0.58286513299E+02  0.57603168250E+02  0.12003191879E+03  0.17131015180E+03  0.90686625016E+02 0.  0.
        -13    1    3    3    0    0  0.42184881143E+02  0.22010122466E+02  0.61418683469E+01  0.47976371630E+02  0.00000000000E+00 0.  1.
         14    1    3    3    0    0 -0.31483206408E+02 -0.77659911273E+01  0.34094938443E+00  0.32428677901E+02  0.00000000000E+00 0. -1.
        -13    1    4    4    0    0 -0.23822558169E+02  0.71054940836E+02  0.10977808780E+03  0.13291932687E+03  0.00000000000E+00 0. -1.
         13    1    4    4    0    0 -0.34463955130E+02 -0.13451772586E+02  0.10253830993E+02  0.38390824932E+02  0.00000000000E+00 0.  1.
         21    1    1    2  503  501 -0.21647253386E+02 -0.35086487357E+02 -0.13426226895E+02  0.43358145058E+02  0.00000000000E+00 0.  1.
          1    1    1    2  501    0  0.69232091951E+02 -0.36760812231E+02  0.14239747084E+03  0.16254685347E+03  0.00000000000E+00 0. -1.
<scales pt_clust_5="13000.00000" pt_clust_6="13000.00000" pt_clust_7="13000.00000" pt_clust_8="13000.00000" pt_clust_9="41.22700" pt_clust_10="13000.00000"></scales>
<clustering>
<clus scale="   41.227">  2  9  1 -1</clus>
<clus scale="   78.138">  5  6 -1 -1</clus>
<clus scale="   78.221">  1  5  2 -1</clus>
<clus scale="   90.687">  7  8 -1 -1</clus>
<clus scale="   79.083">  7 10 -1 -1</clus>
<clus scale="   41.227">  2  5  1 -1</clus>
</clustering>
</event>
<event>
10    4  0.2565852E-005  0.3584424E+03  0.7546771E-02  0.1101539E+00
         21   -1    0    0  501  502  0.00000000000E+00  0.00000000000E+00  0.54302122796E+03  0.54302122796E+03  0.00000000000E+00 0.  1.
         -3   -1    0    0    0  501 -0.00000000000E+00 -0.00000000000E+00 -0.12291293022E+03  0.12291293022E+03  0.00000000000E+00 0.  1.
         24    2    1    2    0    0  0.51151357176E+02 -0.67635574149E+02  0.40448727979E+02  0.12436908037E+03  0.81489485974E+02 0.  0.
         23    2    1    2    0    0  0.72300168044E+02 -0.10871860180E+03  0.18137782223E+03  0.24186915841E+03  0.92497171412E+02 0.  0.
        -13    1    3    3    0    0  0.19611252484E+02 -0.80779843906E+02  0.32736236476E+02  0.89340055877E+02  0.00000000000E+00 0.  1.
         14    1    3    3    0    0  0.31540104692E+02  0.13144269757E+02  0.77124915032E+01  0.35029024488E+02  0.00000000000E+00 0. -1.
        -13    1    4    4    0    0  0.72953673617E+02 -0.37204933425E+02  0.62027107230E+02  0.10273172634E+03  0.00000000000E+00 0.  1.
         13    1    4    4    0    0 -0.65350557251E+00 -0.71513668371E+02  0.11935071500E+03  0.13913743207E+03  0.00000000000E+00 0. -1.
         21    1    1    2  503  502 -0.22098028420E+02  0.14315878674E+02  0.54497498386E+02  0.60524743474E+02  0.00000000000E+00 0.  1.
         -4    1    1    2    0  503 -0.10135349680E+03  0.16203829727E+03  0.14378424914E+03  0.23917117593E+03  0.00000000000E+00 0.  1.
<scales pt_clust_5="13000.00000" pt_clust_6="13000.00000" pt_clust_7="13000.00000" pt_clust_8="13000.00000" pt_clust_9="26.32997" pt_clust_10="13000.00000"></scales>
<clustering>
<clus scale="   26.330">  1  9  2 -1</clus>
<clus scale="   81.489">  5  6 -1 -1</clus>
<clus scale="   92.497">  7  8 -1 -1</clus>
<clus scale="  114.626">  2  5  1 -1</clus>
<clus scale="  148.515">  7 10 -1 -1</clus>
<clus scale="   26.330">  1  5  2 -1</clus>
</clustering>
</event>
<event>
10    4  0.2565852E-005  0.1374696E+03  0.7546771E-02  0.1233667E+00
         21   -1    0    0  501  502  0.00000000000E+00  0.00000000000E+00  0.17256798996E+03  0.17256798996E+03  0.00000000000E+00 0. -1.
          2   -1    0    0  503    0 -0.00000000000E+00 -0.00000000000E+00 -0.29804516079E+03  0.29804516079E+03  0.00000000000E+00 0. -1.
         24    2    1    2    0    0 -0.39550048172E+02  0.37064226605E+02 -0.23267859097E+03  0.25179024126E+03  0.79504941326E+02 0.  0.
         23    2    1    2    0    0  0.32529525607E+02 -0.50008556378E+02  0.96833889967E+02  0.14538016103E+03  0.90551439675E+02 0.  0.
        -13    1    3    3    0    0 -0.15752910605E+02 -0.24543171778E+02 -0.55365185080E+02  0.62576554654E+02  0.00000000000E+00 0.  1.
         14    1    3    3    0    0 -0.23797137567E+02  0.61607398382E+02 -0.17731340589E+03  0.18921368661E+03  0.00000000000E+00 0. -1.
        -11    1    4    4    0    0  0.16894184747E+02 -0.34816558835E+02  0.11221455971E+03  0.11870009966E+03  0.00000000000E+00 0. -1.
         11    1    4    4    0    0  0.15635340860E+02 -0.15191997543E+02 -0.15380669742E+02  0.26680061373E+02  0.00000000000E+00 0.  1.
         21    1    1    2  503  502  0.18961225047E+02  0.37698112017E+02  0.16455891563E+02  0.45293179090E+02  0.00000000000E+00 0.  1.
          1    1    1    2  501    0 -0.11940702482E+02 -0.24753782244E+02 -0.60883613957E+01  0.28149569368E+02  0.00000000000E+00 0. -1.
<scales pt_clust_5="13000.00000" pt_clust_6="13000.00000" pt_clust_7="13000.00000" pt_clust_8="13000.00000" pt_clust_9="42.19805" pt_clust_10="13000.00000"></scales>
<clustering>
<clus scale="   42.198">  1  9  2 -1</clus>
<clus scale="   79.505">  5  6 -1 -1</clus>
<clus scale="   90.551">  7  8 -1 -1</clus>
<clus scale="   24.199">  7 10 -1 -1</clus>
<clus scale="   96.718">  2  5  1 -1</clus>
<clus scale="   42.198">  1  5  2 -1</clus>
</clustering>
</event>
<event>
10    4  0.2565852E-005  0.2771802E+03  0.7546771E-02  0.1152137E+00
         21   -1    0    0  503  502  0.00000000000E+00  0.00000000000E+00  0.21813557212E+03  0.21813557212E+03  0.00000000000E+00 0.  1.
         -1   -1    0    0    0  501 -0.00000000000E+00 -0.00000000000E+00 -0.29232758693E+03  0.29232758693E+03  0.00000000000E+00 0.  1.
         24    2    1    2    0    0 -0.24421196679E+02  0.12347474191E+02  0.65914323798E+02  0.95032192074E+02  0.62750015797E+02 0.  0.
         23    2    1    2    0    0  0.60679311574E+02 -0.55321625247E+00 -0.25226284017E+03  0.27559081862E+03  0.92905725757E+02 0.  0.
        -13    1    3    3    0    0 -0.24448759390E+02  0.36691092299E+02  0.43645687898E+02  0.62039698274E+02  0.00000000000E+00 0.  1.
         14    1    3    3    0    0  0.27562711274E-01 -0.24343618108E+02  0.22268635900E+02  0.32992493800E+02  0.00000000000E+00 0. -1.
        -11    1    4    4    0    0 -0.18624923127E+02 -0.21595753407E+02 -0.55251884427E+02  0.62177448158E+02  0.00000000000E+00 0. -1.
         11    1    4    4    0    0  0.79304234701E+02  0.21042537154E+02 -0.19701095574E+03  0.21341337046E+03  0.00000000000E+00 0.  1.
         21    1    1    2  503  501  0.36773098030E+01  0.22653263136E+02  0.65573740748E+02  0.69473796599E+02  0.00000000000E+00 0.  1.
         -2    1    1    2    0  502 -0.39935424698E+02 -0.34447521075E+02  0.46582760817E+02  0.70366351756E+02  0.00000000000E+00 0.  1.
<scales pt_clust_5="13000.00000" pt_clust_6="13000.00000" pt_clust_7="13000.00000" pt_clust_8="13000.00000" pt_clust_9="22.94979" pt_clust_10="13000.00000"></scales>
<clustering>
<clus scale="   22.950">  1  9  2 -1</clus>
<clus scale="   62.750">  5  6 -1 -1</clus>
<clus scale="   70.991">  2  5  1 -1</clus>
<clus scale="   92.906">  7  8 -1 -1</clus>
<clus scale="   46.477">  7 10 -1 -1</clus>
<clus scale="   22.950">  1  5  2 -1</clus>
</clustering>
</event>
<event>
10    4  0.2565852E-005  0.3261575E+03  0.7546771E-02  0.1114880E+00
          2   -1    0    0  503    0 -0.00000000000E+00  0.00000000000E+00  0.78849153362E+03  0.78849153362E+03  0.00000000000E+00 0. -1.
         21   -1    0    0  501  502  0.00000000000E+00 -0.00000000000E+00 -0.12346001377E+03  0.12346001377E+03  0.00000000000E+00 0. -1.
         24    2    1    2    0    0  0.45178663825E+02  0.62672435077E+02  0.36692948279E+03  0.38316253950E+03  0.78786677500E+02 0.  0.
         23    2    1    2    0    0  0.76060706555E+01  0.93827270595E+02  0.51797156462E+02  0.14227715381E+03  0.93265395844E+02 0.  0.
        -13    1    3    3    0    0  0.37136483502E+02  0.14102006808E+02  0.57781861326E+02  0.70119387484E+02  0.00000000000E+00 0.  1.
         14    1    3    3    0    0  0.80421803237E+01  0.48570428269E+02  0.30914762146E+03  0.31304315201E+03  0.00000000000E+00 0. -1.
        -13    1    4    4    0    0  0.26879953210E+02  0.59999250701E+02  0.72756136973E+02  0.98060682419E+02  0.00000000000E+00 0.  1.
         13    1    4    4    0    0 -0.19273882554E+02  0.33828019893E+02 -0.20958980510E+02  0.44216471395E+02  0.00000000000E+00 0. -1.
         21    1    1    2  503  502 -0.50122198583E+02 -0.11539917529E+00 -0.37407774250E+02  0.62542702869E+02  0.00000000000E+00 0. -1.
          1    1    1    2  501    0 -0.26625358979E+01 -0.15638430650E+03  0.28371265485E+03  0.32396915122E+03  0.00000000000E+00 0. -1.
<scales pt_clust_5="13000.00000" pt_clust_6="13000.00000" pt_clust_7="13000.00000" pt_clust_8="13000.00000" pt_clust_9="50.12233" pt_clust_10="13000.00000"></scales>
<clustering>
<clus scale="   50.122">  2  9  1 -1</clus>
<clus scale="   78.787">  5  6 -1 -1</clus>
<clus scale="   93.265">  7  8 -1 -1</clus>
<clus scale="  108.190">  1  5  2 -1</clus>
<clus scale="  111.368">  7 10 -1 -1</clus>
<clus scale="   50.122">  2  5  1 -1</clus>
</clustering>
</event>
<event>
10    4  0.2565852E-005  0.3598471E+03  0.7546771E-02  0.1112889E+00
          2   -1    0    0  502    0 -0.00000000000E+00  0.00000000000E+00  0.10078768306E+04  0.10078768306E+04  0.00000000000E+00 0. -1.
         21   -1    0    0  503  502  0.00000000000E+00 -0.00000000000E+00 -0.70718301875E+03  0.70718301875E+03  0.00000000000E+00 0. -1.
         24    2    1    2    0    0 -0.41825613797E+02  0.34664627855E+02  0.10500049857E+03  0.14329562736E+03  0.80978476938E+02 0.  0.
         23    2    1    2    0    0  0.12486961167E+03  0.99717663523E+02  0.48553483461E+03  0.51925955543E+03  0.91380402468E+02 0.  0.
        -11    1    3    3    0    0 -0.64454274477E+02  0.25963623336E+02  0.93416640466E+02  0.11642650880E+03  0.00000000000E+00 0.  1.
         12    1    3    3    0    0  0.22628660680E+02  0.87010045197E+01  0.11583858104E+02  0.26869118564E+02  0.00000000000E+00 0. -1.
        -13    1    4    4    0    0  0.64840411557E+02  0.94335356923E+02  0.23257858819E+03  0.25922237215E+03  0.00000000000E+00 0.  1.
         13    1    4    4    0    0  0.60029200113E+02  0.53823065994E+01  0.25295624642E+03  0.26003718329E+03  0.00000000000E+00 0. -1.
         21    1    1    2  503  501  0.69760756882E+02 -0.51054124494E+02 -0.64829347093E+03  0.65403173568E+03  0.00000000000E+00 0. -1.
          1    1    1    2  501    0 -0.15280475476E+03 -0.83328166884E+02  0.35845194958E+03  0.39847293086E+03  0.00000000000E+00 0. -1.
<scales pt_clust_5="13000.00000" pt_clust_6="13000.00000" pt_clust_7="13000.00000" pt_clust_8="13000.00000" pt_clust_9="86.44702" pt_clust_10="13000.00000"></scales>
<clustering>
<clus scale="   80.978">  5  6 -1 -1</clus>
<clus scale="   86.447">  2  9  1 -1</clus>
<clus scale="   84.718">  1  5  2 -1</clus>
<clus scale="   91.380">  7  8 -1 -1</clus>
<clus scale="  164.880">  7 10 -1 -1</clus>
<clus scale="   86.447">  2  5  1 -1</clus>
</clustering>
</event>
<event>
10    4  0.2565852E-005  0.1456771E+03  0.7546771E-02  0.1231565E+00
         21   -1    0    0  501  502  0.00000000000E+00  0.00000000000E+00  0.15546793947E+03  0.15546793947E+03  0.00000000000E+00 0. -1.
          2   -1    0    0  503    0 -0.00000000000E+00 -0.00000000000E+00 -0.66602833737E+03  0.66602833737E+03  0.00000000000E+00 0. -1.
         24    2    1    2    0    0  0.11688080371E+02 -0.21319578434E+02 -0.60577413094E+03  0.61169924049E+03  0.81378912810E+02 0.  0.
         23    2    1    2    0    0 -0.57516817516E+01  0.86524200065E+01 -0.21383925855E+00  0.91970752060E+02  0.91381766738E+02 0.  0.
        -13    1    3    3    0    0  0.12302153160E+02  0.18067315598E+02 -0.50472864075E+02  0.55002553334E+02  0.00000000000E+00 0.  1.
         14    1    3    3    0    0 -0.61407278856E+00 -0.39386894032E+02 -0.55530126686E+03  0.55669668715E+03  0.00000000000E+00 0. -1.
        -13    1    4    4    0    0 -0.19564010714E+02 -0.19270104235E+02  0.35304374999E+02  0.44726796515E+02  0.00000000000E+00 0.  1.
         13    1    4    4    0    0  0.13812328962E+02  0.27922524242E+02 -0.35518214258E+02  0.47243955544E+02  0.00000000000E+00 0. -1.
         21    1    1    2  503  502  0.24460278421E+02  0.24733965400E+02  0.36431920722E+02  0.50372205752E+02  0.00000000000E+00 0.  1.
          1    1    1    2  501    0 -0.30396677041E+02 -0.12066806973E+02  0.58995651580E+02  0.67454078535E+02  0.00000000000E+00 0. -1.
<scales pt_clust_5="13000.00000" pt_clust_6="13000.00000" pt_clust_7="13000.00000" pt_clust_8="13000.00000" pt_clust_9="34.78612" pt_clust_10="13000.00000"></scales>
<clustering>
<clus scale="   34.786">  1  9  2 -1</clus>
<clus scale="   81.379">  5  6 -1 -1</clus>
<clus scale="   84.863">  2  5  1 -1</clus>
<clus scale="   91.382">  7  8 -1 -1</clus>
<clus scale="   15.237">  7 10 -1 -1</clus>
<clus scale="   34.786">  1  5  2 -1</clus>
</clustering>
</event>
<event>
10    4  0.2565852E-005  0.2415287E+03  0.7546771E-02  0.1142823E+00
          2   -1    0    0  502    0 -0.00000000000E+00  0.00000000000E+00  0.51004645694E+03  0.51004645694E+03  0.00000000000E+00 0. -1.
         21   -1    0    0  503  502  0.00000000000E+00 -0.00000000000E+00 -0.99330327645E+02  0.99330327645E+02  0.00000000000E+00 0. -1.
         24    2    1    2    0    0  0.10875065446E+03  0.35238322943E+02  0.26931210475E+03  0.30325801381E+03  0.79799554669E+02 0.  0.
         23    2    1    2    0    0 -0.45958058882E+02  0.44790182726E+02  0.73882997126E+01  0.11212630161E+03  0.91648332747E+02 0.  0.
        -13    1    3    3    0    0  0.56084620100E+02 -0.17008872143E+02  0.74436895170E+02  0.94739842230E+02  0.00000000000E+00 0.  1.
         14    1    3    3    0    0  0.52666034360E+02  0.52247195086E+02  0.19487520958E+03  0.20851817158E+03  0.00000000000E+00 0. -1.
        -13    1    4    4    0    0 -0.58879309013E+01 -0.26088342499E+02  0.14451930475E+02  0.30399467743E+02  0.00000000000E+00 0.  1.
         13    1    4    4    0    0 -0.40070127981E+02  0.70878525224E+02 -0.70636307624E+01  0.81726833867E+02  0.00000000000E+00 0. -1.
         21    1    1    2  503  501 -0.37368799510E+02  0.61959671214E+01  0.72160218358E+01  0.38560188751E+02  0.00000000000E+00 0. -1.
          1    1    1    2  501    0 -0.25423796067E+02 -0.86224472790E+02  0.12679970299E+03  0.15543228041E+03  0.00000000000E+00 0. -1.
<scales pt_clust_5="13000.00000" pt_clust_6="13000.00000" pt_clust_7="13000.00000" pt_clust_8="13000.00000" pt_clust_9="37.87898" pt_clust_10="13000.00000"></scales>
<clustering>
<clus scale="   37.879">  2  9  1 -1</clus>
<clus scale="   79.800">  5  6 -1 -1</clus>
<clus scale="   91.648">  7  8 -1 -1</clus>
<clus scale="   90.914">  7 10 -1 -1</clus>
<clus scale="  133.922">  1  5  2 -1</clus>
<clus scale="   37.879">  2  5  1 -1</clus>
</clustering>
</event>
<event>
10    4  0.2565852E-005  0.9606019E+03  0.7546771E-02  0.1004258E+00
         -1   -1    0    0    0  501 -0.00000000000E+00  0.00000000000E+00  0.52932048423E+03  0.52932048423E+03  0.00000000000E+00 0.  1.
         21   -1    0    0  503  502  0.00000000000E+00 -0.00000000000E+00 -0.27498350355E+04  0.27498350355E+04  0.00000000000E+00 0.  1.
         24    2    1    2    0    0  0.32999255105E+02  0.36698170366E+02  0.24793623509E+03  0.26539508458E+03  0.80786556424E+02 0.  0.
         23    2    1    2    0    0  0.11328641312E+02 -0.66877917503E+02  0.19310178767E+03  0.22543724465E+03  0.94512734123E+02 0.  0.
        -13    1    3    3    0    0  0.71901896696E+01  0.55425807847E+02  0.20118738805E+03  0.20880633159E+03  0.00000000000E+00 0.  1.
         14    1    3    3    0    0  0.25809065435E+02 -0.18727637481E+02  0.46748847046E+02  0.56588752985E+02  0.00000000000E+00 0. -1.
        -11    1    4    4    0    0 -0.25094173363E+02  0.79786298930E+01  0.85067968741E+02  0.89050184601E+02  0.00000000000E+00 0. -1.
         11    1    4    4    0    0  0.36422814675E+02 -0.74856547396E+02  0.10803381892E+03  0.13638706005E+03  0.00000000000E+00 0.  1.
         21    1    1    2  503  501 -0.41783762545E+03  0.51974893928E+02 -0.18077972934E+04  0.18561844534E+04  0.00000000000E+00 0.  1.
         -2    1    1    2    0  502  0.37350972903E+03 -0.21795146791E+02 -0.85375528064E+03  0.93213873716E+03  0.00000000000E+00 0.  1.
<scales pt_clust_5="13000.00000" pt_clust_6="13000.00000" pt_clust_7="13000.00000" pt_clust_8="13000.00000" pt_clust_9="418.56944" pt_clust_10="13000.00000"></scales>
<clustering>
<clus scale="   80.787">  5  6 -1 -1</clus>
<clus scale="   94.513">  7  8 -1 -1</clus>
<clus scale="   94.669">  1  5  2 -1</clus>
<clus scale="  378.614">  7 10 -1 -1</clus>
<clus scale="  418.569">  2  9  1 -1</clus>
<clus scale="  418.569">  2  5  1 -1</clus>
</clustering>
</event>
<event>
10    4  0.2565852E-005  0.2754075E+03  0.7546771E-02  0.1121963E+00
          2   -1    0    0  502    0 -0.00000000000E+00  0.00000000000E+00  0.34006415173E+03  0.34006415173E+03  0.00000000000E+00 0. -1.
         21   -1    0    0  503  502  0.00000000000E+00 -0.00000000000E+00 -0.15508430679E+03  0.15508430679E+03  0.00000000000E+00 0.  1.
         24    2    1    2    0    0  0.10806879511E+03  0.80837492779E+02  0.11007560314E+03  0.19022683863E+03  0.76524813065E+02 0.  0.
         23    2    1    2    0    0 -0.23920213880E+02 -0.53933517024E+01 -0.62644812226E+02  0.11392290831E+03  0.91939064956E+02 0.  0.
        -11    1    3    3    0    0  0.10707484498E+03  0.67621292083E+02  0.63239729465E+02  0.14155184546E+03  0.00000000000E+00 0.  1.
         12    1    3    3    0    0  0.99395012923E+00  0.13216200696E+02  0.46835873670E+02  0.48674993171E+02  0.00000000000E+00 0. -1.
        -13    1    4    4    0    0 -0.53042727652E+02 -0.20220554893E+02 -0.57572794058E+02  0.80851891831E+02  0.00000000000E+00 0.  1.
         13    1    4    4    0    0  0.29122513772E+02  0.14827203191E+02 -0.50720181676E+01  0.33071016482E+02  0.00000000000E+00 0. -1.
         21    1    1    2  503  501 -0.60821270142E+01 -0.24606506037E+02  0.58405455844E+00  0.25353767532E+02  0.00000000000E+00 0.  1.
          1    1    1    2  501    0 -0.78066454213E+02 -0.50837635040E+02  0.13696499947E+03  0.16564494405E+03  0.00000000000E+00 0. -1.
<scales pt_clust_5="13000.00000" pt_clust_6="13000.00000" pt_clust_7="13000.00000" pt_clust_8="13000.00000" pt_clust_9="25.34704" pt_clust_10="13000.00000"></scales>
<clustering>
<clus scale="   25.347">  2  9  1 -1</clus>
<clus scale="   76.525">  5  6 -1 -1</clus>
<clus scale="   91.939">  7  8 -1 -1</clus>
<clus scale="   95.038">  7 10 -1 -1</clus>
<clus scale="  150.445">  1  5  2 -1</clus>
<clus scale="   25.347">  2  5  1 -1</clus>
</clustering>
</event>
<event>
10    4  0.2565852E-005  0.3505519E+03  0.7546771E-02  0.1116075E+00
         21   -1    0    0  503  502  0.00000000000E+00  0.00000000000E+00  0.59561854373E+03  0.59561854373E+03  0.00000000000E+00 0.  1.
         -3   -1    0    0    0  501 -0.00000000000E+00 -0.00000000000E+00 -0.13076942324E+03  0.13076942324E+03  0.00000000000E+00 0.  1.
         24    2    1    2    0    0 -0.80057970565E+01 -0.13113939593E+02  0.30957294928E+02  0.90561630302E+02  0.83707745015E+02 0.  0.
         23    2    1    2    0    0 -0.39672540738E+02  0.18900252801E+01 -0.73054760333E+02  0.12232169487E+03  0.89711294415E+02 0.  0.
        -13    1    3    3    0    0 -0.38885919374E+02 -0.30288032858E+02  0.22748704157E+02  0.54286123464E+02  0.00000000000E+00 0.  1.
         14    1    3    3    0    0  0.30880122318E+02  0.17174093265E+02  0.82085907718E+01  0.36275506837E+02  0.00000000000E+00 0. -1.
        -11    1    4    4    0    0 -0.42707818899E+02  0.30654756621E+02 -0.10789905393E+02  0.53666506845E+02  0.00000000000E+00 0. -1.
         11    1    4    4    0    0  0.30352781616E+01 -0.28764731340E+02 -0.62264854941E+02  0.68655188030E+02  0.00000000000E+00 0.  1.
         21    1    1    2  503  501 -0.19422552803E+01  0.27857697923E+02  0.22668906154E+03  0.22840261450E+03  0.00000000000E+00 0.  1.
         -4    1    1    2    0  502  0.49620593074E+02 -0.16633783610E+02  0.28025752435E+03  0.28510202730E+03  0.00000000000E+00 0.  1.
<scales pt_clust_5="13000.00000" pt_clust_6="13000.00000" pt_clust_7="13000.00000" pt_clust_8="13000.00000" pt_clust_9="27.92532" pt_clust_10="13000.00000"></scales>
<clustering>
<clus scale="   27.925">  1  9  2 -1</clus>
<clus scale="   83.708">  5  6 -1 -1</clus>
<clus scale="   84.551">  2  5  1 -1</clus>
<clus scale="   89.711">  7  8 -1 -1</clus>
<clus scale="   48.082">  7 10 -1 -1</clus>
<clus scale="   27.925">  1  5  2 -1</clus>
</clustering>
</event>
<event>
10    4  0.2565852E-005  0.2567809E+03  0.7546771E-02  0.1157426E+00
         -3   -1    0    0    0  501 -0.00000000000E+00  0.00000000000E+00  0.33945046870E+03  0.33945046870E+03  0.00000000000E+00 0.  1.
         21   -1    0    0  503  502  0.00000000000E+00 -0.00000000000E+00 -0.10551628306E+03  0.10551628306E+03  0.00000000000E+00 0.  1.
         24    2    1    2    0    0  0.13605928327E+02  0.11665376654E+02  0.32798983107E+02  0.83013562890E+02  0.74123383845E+02 0.  0.
         23    2    1    2    0    0  0.60727785392E+02 -0.35451426108E+02  0.18521258356E+03  0.21446202192E+03  0.82131542093E+02 0.  0.
        -13    1    3    3    0    0  0.37054970708E+02  0.25596228955E+02  0.72012262802E+01  0.45608063441E+02  0.00000000000E+00 0.  1.
         14    1    3    3    0    0 -0.23449042381E+02 -0.13930852301E+02  0.25597756827E+02  0.37405499448E+02  0.00000000000E+00 0. -1.
        -13    1    4    4    0    0  0.93004143572E+01  0.25400614232E+02  0.63138013153E+02  0.68688409615E+02  0.00000000000E+00 0. -1.
         13    1    4    4    0    0  0.51427371034E+02 -0.60852040340E+02  0.12207457040E+03  0.14577361230E+03  0.00000000000E+00 0.  1.
         21    1    1    2  503  501  0.35155748473E+02  0.58386495551E+01  0.53733514739E+01  0.36040108011E+02  0.00000000000E+00 0. -1.
         -4    1    1    2    0  502 -0.10948946219E+03  0.17947399899E+02  0.10549267511E+02  0.11145105894E+03  0.00000000000E+00 0.  1.
<scales pt_clust_5="13000.00000" pt_clust_6="13000.00000" pt_clust_7="13000.00000" pt_clust_8="13000.00000" pt_clust_9="35.63729" pt_clust_10="13000.00000"></scales>
<clustering>
<clus scale="   35.637">  2  9  1 -1</clus>
<clus scale="   74.123">  5  6 -1 -1</clus>
<clus scale="   78.855">  1  5  2 -1</clus>
<clus scale="   82.132">  7  8 -1 -1</clus>
<clus scale="   88.373">  7 10 -1 -1</clus>
<clus scale="   35.637">  2  5  1 -1</clus>
</clustering>
</event>
<event>
10    4  0.2565852E-005  0.2285318E+03  0.7546771E-02  0.1136711E+00
         -1   -1    0    0    0  501 -0.00000000000E+00  0.00000000000E+00  0.66654800270E+03  0.66654800270E+03  0.00000000000E+00 0.  1.
         21   -1    0    0  501  502  0.00000000000E+00 -0.00000000000E+00 -0.31448395062E+03  0.31448395062E+03  0.00000000000E+00 0.  1.
         24    2    1    2    0    0 -0.95641101992E+02  0.96232194143E+02  0.22214857910E+03  0.27311954372E+03  0.82682757496E+02 0.  0.
         23    2    1    2    0    0  0.52370216547E+02 -0.25374322291E+02  0.16605770217E+03  0.19922985235E+03  0.93439166335E+02 0.  0.
        -13    1    3    3    0    0 -0.79222645207E+02  0.80707621488E+02  0.22349922795E+03  0.25048323811E+03  0.00000000000E+00 0.  1.
         14    1    3    3    0    0 -0.16418456785E+02  0.15524572655E+02 -0.13506488529E+01  0.22636305610E+02  0.00000000000E+00 0. -1.
        -13    1    4    4    0    0  0.24886127460E+02 -0.39598276471E+02  0.16127037412E+03  0.16791508690E+03  0.00000000000E+00 0. -1.
         13    1    4    4    0    0  0.27484089087E+02  0.14223954180E+02  0.47873280487E+01  0.31314765452E+02  0.00000000000E+00 0.  1.
         21    1    1    2  503  502 -0.92284080327E+02  0.96143161903E+01 -0.23632160480E+03  0.25388321617E+03  0.00000000000E+00 0.  1.
         -2    1    1    2    0  503  0.13555496577E+03 -0.80472188042E+02  0.20017937561E+03  0.25479934108E+03  0.00000000000E+00 0.  1.
<scales pt_clust_5="13000.00000" pt_clust_6="13000.00000" pt_clust_7="13000.00000" pt_clust_8="13000.00000" pt_clust_9="92.78355" pt_clust_10="13000.00000"></scales>
<clustering>
<clus scale="   82.683">  5  6 -1 -1</clus>
<clus scale="   92.784">  2  9  1 -1</clus>
<clus scale="   93.439">  7  8 -1 -1</clus>
<clus scale="  125.410">  7 10 -1 -1</clus>
<clus scale="  183.220">  1  5  2 -1</clus>
<clus scale="   92.784">  2  5  1 -1</clus>
</clustering>
</event>
<event>
10    4  0.2565852E-005  0.3978318E+03  0.7546771E-02  0.1098595E+00
         21   -1    0    0  501  502  0.00000000000E+00  0.00000000000E+00  0.24064266056E+03  0.24064266056E+03  0.00000000000E+00 0. -1.
          2   -1    0    0  503    0 -0.00000000000E+00 -0.00000000000E+00 -0.35324371172E+03  0.35324371172E+03  0.00000000000E+00 0. -1.
         24    2    1    2    0    0 -0.46434145940E+01 -0.33427515621E+02 -0.31198869676E+02  0.91797133656E+02  0.79463099479E+02 0.  0.
         23    2    1    2    0    0 -0.61611327306E+02 -0.12435084362E+02 -0.22226305633E+03  0.24821113547E+03  0.90869767151E+02 0.  0.
        -11    1    3    3    0    0  0.31963114745E+02 -0.33291236154E+02 -0.30243199871E+02  0.55177878242E+02  0.00000000000E+00 0.  1.
         12    1    3    3    0    0 -0.36606529339E+02 -0.13627946686E+00 -0.95566980447E+00  0.36619255414E+02  0.00000000000E+00 0. -1.
        -13    1    4    4    0    0 -0.39908179939E+02  0.18412230037E+02 -0.19922325295E+03  0.20401367003E+03  0.00000000000E+00 0. -1.
         13    1    4    4    0    0 -0.21703147367E+02 -0.30847314399E+02 -0.23039803383E+02  0.44197465438E+02  0.00000000000E+00 0.  1.
         21    1    1    2  503  502 -0.43805011529E+02 -0.49076881272E+02  0.40612563259E+02  0.77309763969E+02  0.00000000000E+00 0. -1.
          1    1    1    2  501    0  0.11005975343E+03  0.94939481255E+02  0.10024831159E+03  0.17656833919E+03  0.00000000000E+00 0. -1.
<scales pt_clust_5="13000.00000" pt_clust_6="13000.00000" pt_clust_7="13000.00000" pt_clust_8="13000.00000" pt_clust_9="65.78312" pt_clust_10="13000.00000"></scales>
<clustering>
<clus scale="   65.783">  1  9  2 -1</clus>
<clus scale="   79.463">  5  6 -1 -1</clus>
<clus scale="   90.492">  2  5  1 -1</clus>
<clus scale="   90.870">  7  8 -1 -1</clus>
<clus scale="   91.720">  7 10 -1 -1</clus>
<clus scale="   65.783">  1  5  2 -1</clus>
</clustering>
</event>
<event>
10    4  0.2565852E-005  0.1990192E+03  0.7546771E-02  0.1186723E+00
          2   -1    0    0  502    0 -0.00000000000E+00  0.00000000000E+00  0.11778084770E+04  0.11778084770E+04  0.00000000000E+00 0. -1.
         21   -1    0    0  503  502  0.00000000000E+00 -0.00000000000E+00 -0.10064083250E+03  0.10064083250E+03  0.00000000000E+00 0.  1.
         24    2    1    2    0    0 -0.89254686428E+01  0.32108819200E+02  0.21131437182E+03  0.22846891434E+03  0.80209979537E+02 0.  0.
         23    2    1    2    0    0  0.86284421984E+02 -0.40076210122E+02  0.41507773436E+03  0.43533237684E+03  0.90408233408E+02 0.  0.
        -13    1    3    3    0    0 -0.36803096132E+02 -0.29029177710E+01  0.57970975958E+02  0.68727933695E+02  0.00000000000E+00 0.  1.
         14    1    3    3    0    0  0.27877627489E+02  0.35011736971E+02  0.15334339587E+03  0.15974098064E+03  0.00000000000E+00 0. -1.
        -11    1    4    4    0    0  0.83575839402E+02 -0.18106120804E+02  0.39877392715E+03  0.40783991653E+03  0.00000000000E+00 0.  1.
         11    1    4    4    0    0  0.27085825825E+01 -0.21970089317E+02  0.16303807212E+02  0.27492460309E+02  0.00000000000E+00 0. -1.
         21    1    1    2  503  501 -0.54285452437E+02  0.71213561122E+02 -0.54553510977E+02  0.10485402803E+03  0.00000000000E+00 0.  1.
          1    1    1    2  501    0 -0.23073500904E+02 -0.63246170201E+02  0.50532904927E+03  0.50979399028E+03  0.00000000000E+00 0. -1.
<scales pt_clust_5="13000.00000" pt_clust_6="13000.00000" pt_clust_7="13000.00000" pt_clust_8="13000.00000" pt_clust_9="90.35795" pt_clust_10="13000.00000"></scales>
<clustering>
<clus scale="   80.210">  5  6 -1 -1</clus>
<clus scale="   86.858">  1  5  2 -1</clus>
<clus scale="   90.358">  2  9  1 -1</clus>
<clus scale="   90.408">  7  8 -1 -1</clus>
<clus scale="   51.006">  7 10 -1 -1</clus>
<clus scale="   90.358">  2  5  1 -1</clus>
</clustering>
</event>
<event>
10    4  0.2565852E-005  0.8878922E+03  0.7546771E-02  0.9903378E-01
         21   -1    0    0  503  502  0.00000000000E+00  0.00000000000E+00  0.51350253991E+03  0.51350253991E+03  0.00000000000E+00 0. -1.
          2   -1    0    0  502    0 -0.00000000000E+00 -0.00000000000E+00 -0.12327295456E+04  0.12327295456E+04  0.00000000000E+00 0. -1.
         24    2    1    2    0    0  0.13394637066E+03  0.10108788868E+03 -0.78734049501E+03  0.80909466531E+03  0.81047707539E+02 0.  0.
         23    2    1    2    0    0  0.13728885842E+03 -0.34269539192E+03 -0.24771613326E+03  0.45365136458E+03  0.90265805346E+02 0.  0.
        -13    1    3    3    0    0  0.27615536949E+02  0.11891819802E+02 -0.46555797799E+02  0.55420894687E+02  0.00000000000E+00 0.  1.
         14    1    3    3    0    0  0.10633083371E+03  0.89196068879E+02 -0.74078469722E+03  0.75367377063E+03  0.00000000000E+00 0. -1.
        -13    1    4    4    0    0  0.19500399757E+02 -0.16935049466E+03 -0.11165162921E+03  0.20377914990E+03  0.00000000000E+00 0.  1.
         13    1    4    4    0    0  0.11778845867E+03 -0.17334489726E+03 -0.13606450405E+03  0.24987221467E+03  0.00000000000E+00 0. -1.
         21    1    1    2  503  501 -0.16452982760E+02  0.21980947768E+02  0.39797538529E+02  0.48349837429E+02  0.00000000000E+00 0. -1.
          1    1    1    2  501    0 -0.25478224632E+03  0.21962655547E+03  0.27603208409E+03  0.43513621816E+03  0.00000000000E+00 0. -1.
<scales pt_clust_5="13000.00000" pt_clust_6="13000.00000" pt_clust_7="13000.00000" pt_clust_8="13000.00000" pt_clust_9="27.45656" pt_clust_10="13000.00000"></scales>
<clustering>
<clus scale="   27.457">  1  9  2 -1</clus>
<clus scale="   81.048">  5  6 -1 -1</clus>
<clus scale="   90.266">  7  8 -1 -1</clus>
<clus scale="  186.361">  2  5  1 -1</clus>
<clus scale="  351.474">  7 10 -1 -1</clus>
<clus scale="   27.457">  1  5  2 -1</clus>
</clustering>
</event>
<event>
10    4  0.2565852E-005  0.2134840E+03  0.7546771E-02  0.1158330E+00
          2   -1    0    0  503    0 -0.00000000000E+00  0.00000000000E+00  0.15981901310E+04  0.15981901310E+04  0.00000000000E+00 0. -1.
         21   -1    0    0  501  502  0.00000000000E+00 -0.00000000000E+00 -0.18407114084E+03  0.18407114084E+03  0.00000000000E+00 0. -1.
         24    2    1    2    0    0  0.89711708610E+02  0.60469706880E+02  0.15157922262E+04  0.15217535509E+04  0.80018874865E+02 0.  0.
         23    2    1    2    0    0 -0.42463134195E+02  0.31281758869E+02 -0.41259775193E+02  0.11191674897E+03  0.89673426651E+02 0.  0.
        -11    1    3    3    0    0  0.24424152450E+02 -0.80575223982E+01  0.11847650438E+03  0.12123590631E+03  0.00000000000E+00 0.  1.
         12    1    3    3    0    0  0.65287556160E+02  0.68527229279E+02  0.13973157219E+04  0.14005176446E+04  0.00000000000E+00 0. -1.
        -11    1    4    4    0    0 -0.37989471495E+02 -0.24722857940E+02 -0.63424808351E+01  0.45767310521E+02  0.00000000000E+00 0.  1.
         11    1    4    4    0    0 -0.44736627001E+01  0.56004616808E+02 -0.34917294358E+02  0.66149438449E+02  0.00000000000E+00 0. -1.
         21    1    1    2  503  502 -0.21426714306E+02  0.86842217156E+01 -0.34787849325E+02  0.41769776794E+02  0.00000000000E+00 0. -1.
          1    1    1    2  501    0 -0.25821860109E+02 -0.10043568746E+03 -0.25625611572E+02  0.10682119520E+03  0.00000000000E+00 0. -1.
<scales pt_clust_5="13000.00000" pt_clust_6="13000.00000" pt_clust_7="13000.00000" pt_clust_8="13000.00000" pt_clust_9="23.11968" pt_clust_10="13000.00000"></scales>
<clustering>
<clus scale="   23.120">  2  9  1 -1</clus>
<clus scale="   80.019">  5  6 -1 -1</clus>
<clus scale="   89.673">  7  8 -1 -1</clus>
<clus scale="  102.833">  7 10 -1 -1</clus>
<clus scale="  134.354">  1  5  2 -1</clus>
<clus scale="   23.120">  2  5  1 -1</clus>
</clustering>
</event>
<event>
10    4  0.2565852E-005  0.1735229E+03  0.7546771E-02  0.1193832E+00
         21   -1    0    0  503  502  0.00000000000E+00  0.00000000000E+00  0.13528775863E+03  0.13528775863E+03  0.00000000000E+00 0.  1.
         -1   -1    0    0    0  501 -0.00000000000E+00 -0.00000000000E+00 -0.46769905464E+03  0.46769905464E+03  0.00000000000E+00 0.  1.
         24    2    1    2    0    0  0.48469276938E+02 -0.39397933697E+02 -0.21759130949E+03  0.24419051792E+03  0.91550877050E+02 0.  0.
         23    2    1    2    0    0 -0.15494892305E+02 -0.44356010924E+02 -0.84672017174E+02  0.12344964128E+03  0.76569680989E+02 0.  0.
        -13    1    3    3    0    0  0.90004901776E+01 -0.36257052671E+02 -0.19422021686E+02  0.42104603290E+02  0.00000000000E+00 0.  1.
         14    1    3    3    0    0  0.39468786760E+02 -0.31408810259E+01 -0.19816928781E+03  0.20208591463E+03  0.00000000000E+00 0. -1.
        -13    1    4    4    0    0  0.27014993398E+02 -0.72616386180E+00 -0.15019944606E+02  0.30918213373E+02  0.00000000000E+00 0.  1.
         13    1    4    4    0    0 -0.42509885702E+02 -0.43629847062E+02 -0.69652072568E+02  0.92531427905E+02  0.00000000000E+00 0. -1.
         21    1    1    2  503  501  0.21827749987E+02  0.18072032499E+02  0.86312831208E+02  0.90845769628E+02  0.00000000000E+00 0.  1.
         -2    1    1    2    0  502 -0.54802134621E+02  0.65681912122E+02 -0.11646080055E+03  0.14450088444E+03  0.00000000000E+00 0.  1.
<scales pt_clust_5="13000.00000" pt_clust_6="13000.00000" pt_clust_7="13000.00000" pt_clust_8="13000.00000" pt_clust_9="28.33812" pt_clust_10="13000.00000"></scales>
<clustering>
<clus scale="   28.338">  1  9  2 -1</clus>
<clus scale="   76.570">  7  8 -1 -1</clus>
<clus scale="   85.932">  7 10 -1 -1</clus>
<clus scale="   91.551">  5  6 -1 -1</clus>
<clus scale="  112.005">  2  5  1 -1</clus>
<clus scale="   28.338">  1  5  2 -1</clus>
</clustering>
</event>
<event>
10    4  0.2565852E-005  0.1588855E+03  0.7546771E-02  0.1211307E+00
         -3   -1    0    0    0  501 -0.00000000000E+00  0.00000000000E+00  0.36085566377E+02  0.36085566377E+02  0.00000000000E+00 0.  1.
         21   -1    0    0  503  502  0.00000000000E+00 -0.00000000000E+00 -0.14267959523E+04  0.14267959523E+04  0.00000000000E+00 0. -1.
         24    2    1    2    0    0  0.10127487394E+02 -0.93692398526E+02 -0.88656292436E+03  0.89472663774E+03  0.75240320925E+02 0.  0.
         23    2    1    2    0    0 -0.21003816241E+02 -0.45687914658E+01 -0.68924583780E+02  0.10245697677E+03  0.72696627758E+02 0.  0.
        -11    1    3    3    0    0  0.94277523977E+01 -0.53851784786E+02 -0.21027680497E+03  0.21726765048E+03  0.00000000000E+00 0.  1.
         12    1    3    3    0    0  0.69973499647E+00 -0.39840613739E+02 -0.67628611939E+03  0.67745898726E+03  0.00000000000E+00 0. -1.
        -13    1    4    4    0    0  0.16982265085E+02 -0.15342228412E+02  0.15798615543E+00  0.22886814101E+02  0.00000000000E+00 0. -1.
         13    1    4    4    0    0 -0.37986081326E+02  0.10773436946E+02 -0.69082569936E+02  0.79570162668E+02  0.00000000000E+00 0.  1.
         21    1    1    2  503  501 -0.44169502430E+02  0.40874790665E+02 -0.32055961062E+03  0.32615971152E+03  0.00000000000E+00 0. -1.
         -4    1    1    2    0  502  0.55045831276E+02  0.57386399327E+02 -0.11466326712E+03  0.13953819260E+03  0.00000000000E+00 0.  1.
<scales pt_clust_5="13000.00000" pt_clust_6="13000.00000" pt_clust_7="13000.00000" pt_clust_8="13000.00000" pt_clust_9="60.18051" pt_clust_10="13000.00000"></scales>
<clustering>
<clus scale="   60.181">  2  9  1 -1</clus>
<clus scale="   72.697">  7  8 -1 -1</clus>
<clus scale="   75.240">  5  6 -1 -1</clus>
<clus scale="   79.697">  7 10 -1 -1</clus>
<clus scale="   99.985">  1  5  2 -1</clus>
<clus scale="   60.181">  2  5  1 -1</clus>
</clustering>
</event>
<event>
10    4  0.2565852E-005  0.1816522E+03  0.7546771E-02  0.1193796E+00
          2   -1    0    0  502    0 -0.00000000000E+00  0.00000000000E+00  0.72794089775E+03  0.72794089775E+03  0.00000000000E+00 0. -1.
         21   -1    0    0  503  502  0.00000000000E+00 -0.00000000000E+00 -0.80453046513E+02  0.80453046513E+02  0.00000000000E+00 0. -1.
         24    2    1    2    0    0 -0.91258888845E+01 -0.67420335249E+02  0.13065149996E+03  0.16816051137E+03  0.81113252234E+02 0.  0.
         23    2    1    2    0    0 -0.39250367032E+02 -0.28377961249E+01  0.33711214152E+03  0.35166460794E+03  0.92058438603E+02 0.  0.
        -11    1    3    3    0    0  0.30735641615E+02 -0.15311737139E+02  0.73603977618E+02  0.81219914312E+02  0.00000000000E+00 0.  1.
         12    1    3    3    0    0 -0.39861530499E+02 -0.52108598110E+02  0.57047522343E+02  0.86940597055E+02  0.00000000000E+00 0. -1.
        -11    1    4    4    0    0 -0.43004422063E+01  0.40981136367E+02  0.10300737462E+03  0.11094352873E+03  0.00000000000E+00 0.  1.
         11    1    4    4    0    0 -0.34949924826E+02 -0.43818932492E+02  0.23410476690E+03  0.24072107921E+03  0.00000000000E+00 0. -1.
         21    1    1    2  503  501 -0.19027507985E+02  0.29333065648E+02 -0.41174857680E+02  0.54017068649E+02  0.00000000000E+00 0.  1.
          1    1    1    2  501    0  0.67403763902E+02  0.40925065726E+02  0.22089906744E+03  0.23455175631E+03  0.00000000000E+00 0. -1.
<scales pt_clust_5="13000.00000" pt_clust_6="13000.00000" pt_clust_7="13000.00000" pt_clust_8="13000.00000" pt_clust_9="34.96391" pt_clust_10="13000.00000"></scales>
<clustering>
<clus scale="   34.964">  2  9  1 -1</clus>
<clus scale="   81.113">  5  6 -1 -1</clus>
<clus scale="   92.058">  7  8 -1 -1</clus>
<clus scale="   78.973">  7 10 -1 -1</clus>
<clus scale="   97.709">  1  5  2 -1</clus>
<clus scale="   34.964">  2  5  1 -1</clus>
</clustering>
</event>
<event>
10    4  0.2565852E-005  0.2259807E+03  0.7546771E-02  0.1150728E+00
          2   -1    0    0  503    0 -0.00000000000E+00  0.00000000000E+00  0.69933582937E+03  0.69933582937E+03  0.00000000000E+00 0. -1.
         21   -1    0    0  501  502  0.00000000000E+00 -0.00000000000E+00 -0.37832410456E+03  0.37832410456E+03  0.00000000000E+00 0.  1.
         24    2    1    2    0    0  0.59066744013E+02 -0.11672241031E+03  0.37903999351E+03  0.40900428929E+03  0.80623759902E+02 0.  0.
         23    2    1    2    0    0 -0.32987353820E+02  0.68923004155E+02  0.27785847531E+03  0.31204780045E+03  0.11970777522E+03 0.  0.
        -11    1    3    3    0    0 -0.15918386951E+02 -0.36230165290E+02  0.14658842217E+03  0.15183604787E+03  0.00000000000E+00 0.  1.
         12    1    3    3    0    0  0.74985130964E+02 -0.80492245015E+02  0.23245157134E+03  0.25716824141E+03  0.00000000000E+00 0. -1.
        -11    1    4    4    0    0 -0.25846704855E+01  0.48157313744E+02  0.27016408066E+03  0.27443476067E+03  0.00000000000E+00 0. -1.
         11    1    4    4    0    0 -0.30402683334E+02  0.20765690411E+02  0.76943946583E+01  0.37613039778E+02  0.00000000000E+00 0.  1.
         21    1    1    2  503  502 -0.42042743347E+02  0.61635726129E+02 -0.32376826659E+03  0.33225358606E+03  0.00000000000E+00 0.  1.
          1    1    1    2  501    0  0.15963353154E+02 -0.13836319979E+02 -0.12118477423E+02  0.24354258139E+02  0.00000000000E+00 0. -1.
<scales pt_clust_5="13000.00000" pt_clust_6="13000.00000" pt_clust_7="13000.00000" pt_clust_8="13000.00000" pt_clust_9="74.60935" pt_clust_10="13000.00000"></scales>
<clustering>
<clus scale="   74.609">  2  9  1 -1</clus>
<clus scale="   80.624">  5  6 -1 -1</clus>
<clus scale="  119.708">  7  8 -1 -1</clus>
<clus scale="    8.535">  7 10 -1 -1</clus>
<clus scale="  135.437">  1  5  2 -1</clus>
<clus scale="   74.609">  2  5  1 -1</clus>
</clustering>
</event>
<event>
10    4  0.2565852E-005  0.1843607E+03  0.7546771E-02  0.1181671E+00
         21   -1    0    0  501  502  0.00000000000E+00  0.00000000000E+00  0.12174060599E+04  0.12174060599E+04  0.00000000000E+00 0.  1.
          2   -1    0    0  503    0 -0.00000000000E+00 -0.00000000000E+00 -0.38306988771E+02  0.38306988771E+02  0.00000000000E+00 0. -1.
         24    2    1    2    0    0  0.70912850488E+02  0.34301101596E+02  0.15856864698E+03  0.19458148302E+03  0.80701547643E+02 0.  0.
         23    2    1    2    0    0 -0.86179709230E+02 -0.51451123456E+02  0.62013883878E+03  0.63478513831E+03  0.91136337770E+02 0.  0.
        -13    1    3    3    0    0  0.49290008558E+02 -0.13399370379E+02  0.11718048293E+03  0.12782923629E+03  0.00000000000E+00 0.  1.
         14    1    3    3    0    0  0.21622841930E+02  0.47700471975E+02  0.41388164054E+02  0.66752246730E+02  0.00000000000E+00 0. -1.
        -13    1    4    4    0    0 -0.10506413240E+03 -0.37812718604E+02  0.53419357039E+03  0.54573898913E+03  0.00000000000E+00 0.  1.
         13    1    4    4    0    0  0.18884423168E+02 -0.13638404852E+02  0.85945268393E+02  0.89046149184E+02  0.00000000000E+00 0. -1.
         21    1    1    2  503  502  0.44707251957E+02  0.52156895867E+02  0.35613546471E+03  0.36270035758E+03  0.00000000000E+00 0. -1.
          1    1    1    2  501    0 -0.29440393215E+02 -0.35006874007E+02  0.44256120628E+02  0.63646069741E+02  0.00000000000E+00 0. -1.
<scales pt_clust_5="13000.00000" pt_clust_6="13000.00000" pt_clust_7="13000.00000" pt_clust_8="13000.00000" pt_clust_9="68.69556" pt_clust_10="13000.00000"></scales>
<clustering>
<clus scale="   68.696">  1  9  2 -1</clus>
<clus scale="   80.702">  5  6 -1 -1</clus>
<clus scale="   91.136">  7  8 -1 -1</clus>
<clus scale="   41.421">  7 10 -1 -1</clus>
<clus scale="  122.307">  2  5  1 -1</clus>
<clus scale="   68.696">  1  5  2 -1</clus>
</clustering>
</event>
<event>
10    4  0.2565852E-005  0.4750680E+03  0.7546771E-02  0.1046029E+00
         21   -1    0    0  501  502  0.00000000000E+00  0.00000000000E+00  0.34707769358E+03  0.34707769358E+03  0.00000000000E+00 0.  1.
          2   -1    0    0  503    0 -0.00000000000E+00 -0.00000000000E+00 -0.61557137521E+03  0.61557137521E+03  0.00000000000E+00 0. -1.
         24    2    1    2    0    0  0.74435582283E+02 -0.18546561296E+03 -0.72896490409E+02  0.22714514143E+03  0.79642121133E+02 0.  0.
         23    2    1    2    0    0 -0.72449993270E+02  0.34916330891E+02  0.72158052490E+02  0.14131681993E+03  0.91079675930E+02 0.  0.
        -11    1    3    3    0    0  0.91092217171E+02 -0.16311690998E+03 -0.68153776485E+02  0.19887145497E+03  0.00000000000E+00 0.  1.
         12    1    3    3    0    0 -0.16656634888E+02 -0.22348702979E+02 -0.47427139244E+01  0.28273686460E+02  0.00000000000E+00 0. -1.
        -13    1    4    4    0    0  0.16331496497E+02  0.28047503501E+02  0.18823925683E+02  0.37519600325E+02  0.00000000000E+00 0. -1.
         13    1    4    4    0    0 -0.88781489766E+02  0.68688273905E+01  0.53334126806E+02  0.10379721960E+03  0.00000000000E+00 0.  1.
         21    1    1    2  503  502 -0.24242656417E+01 -0.27053181425E+02  0.14359101151E+03  0.14613736783E+03  0.00000000000E+00 0.  1.
          1    1    1    2  501    0  0.43867662832E+00  0.17760246350E+03 -0.41134625522E+03  0.44804973961E+03  0.00000000000E+00 0. -1.
<scales pt_clust_5="13000.00000" pt_clust_6="13000.00000" pt_clust_7="13000.00000" pt_clust_8="13000.00000" pt_clust_9="27.16158" pt_clust_10="13000.00000"></scales>
<clustering>
<clus scale="   27.162">  1  9  2 -1</clus>
<clus scale="   79.642">  5  6 -1 -1</clus>
<clus scale="   91.080">  7  8 -1 -1</clus>
<clus scale="  175.147">  7 10 -1 -1</clus>
<clus scale="  223.781">  2  5  1 -1</clus>
<clus scale="   27.162">  1  5  2 -1</clus>
</clustering>
</event>
<event>
10    4  0.2565852E-005  0.2243877E+03  0.7546771E-02  0.1155235E+00
         21   -1    0    0  503  502  0.00000000000E+00  0.00000000000E+00  0.53138414618E+03  0.53138414618E+03  0.00000000000E+00 0.  1.
          2   -1    0    0  502    0 -0.00000000000E+00 -0.00000000000E+00 -0.11782070150E+03  0.11782070150E+03  0.00000000000E+00 0. -1.
         24    2    1    2    0    0 -0.81860797130E+02 -0.62460974175E+02  0.23296866497E+03  0.26725303181E+03  0.80914898221E+02 0.  0.
         23    2    1    2    0    0  0.83413239721E+02  0.36422616184E+02 -0.50272396625E+02  0.13952447852E+03  0.93034352336E+02 0.  0.
        -11    1    3    3    0    0 -0.66178773917E+02 -0.57047585776E+02  0.98102474329E+02  0.13137028823E+03  0.00000000000E+00 0.  1.
         12    1    3    3    0    0 -0.15682023212E+02 -0.54133883986E+01  0.13486619064E+03  0.13588274358E+03  0.00000000000E+00 0. -1.
        -13    1    4    4    0    0  0.38776676104E+02  0.48465417496E+02  0.10722430354E+02  0.62988076772E+02  0.00000000000E+00 0.  1.
         13    1    4    4    0    0  0.44636563617E+02 -0.12042801312E+02 -0.60994826979E+02  0.76536401752E+02  0.00000000000E+00 0. -1.
         21    1    1    2  503  501 -0.11377777650E+02  0.48215341384E+02  0.14701209223E+03  0.15513454880E+03  0.00000000000E+00 0.  1.
          1    1    1    2  501    0  0.98253350594E+01 -0.22176983393E+02  0.83855084112E+02  0.87292788551E+02  0.00000000000E+00 0. -1.
<scales pt_clust_5="13000.00000" pt_clust_6="13000.00000" pt_clust_7="13000.00000" pt_clust_8="13000.00000" pt_clust_9="49.53961" pt_clust_10="13000.00000"></scales>
<clustering>
<clus scale="   49.540">  1  9  2 -1</clus>
<clus scale="   80.915">  5  6 -1 -1</clus>
<clus scale="   93.034">  7  8 -1 -1</clus>
<clus scale="   13.458">  7 10 -1 -1</clus>
<clus scale="  124.399">  2  5  1 -1</clus>
<clus scale="   49.540">  1  5  2 -1</clus>
</clustering>
</event>
<event>
10    4  0.2565852E-005  0.3672580E+03  0.7546771E-02  0.1108751E+00
          2   -1    0    0  502    0 -0.00000000000E+00  0.00000000000E+00  0.47658690769E+03  0.47658690769E+03  0.00000000000E+00 0. -1.
         21   -1    0    0  503  502  0.00000000000E+00 -0.00000000000E+00 -0.17911738339E+03  0.17911738339E+03  0.00000000000E+00 0. -1.
         24    2    1    2    0    0 -0.13551511720E+02  0.91505851247E+01  0.75074437336E+01  0.82603206976E+02  0.80619795418E+02 0.  0.
         23    2    1    2    0    0  0.35206086094E+02  0.84991432377E+02  0.30328155268E+03  0.32990000479E+03  0.91604044058E+02 0.  0.
        -11    1    3    3    0    0  0.74157994491E+01  0.25505328686E+02  0.35274719018E+02  0.44156785148E+02  0.00000000000E+00 0.  1.
         12    1    3    3    0    0 -0.20967311169E+02 -0.16354743561E+02 -0.27767275285E+02  0.38446421827E+02  0.00000000000E+00 0. -1.
        -13    1    4    4    0    0  0.48206071553E+02  0.49137957408E+01  0.12330067960E+03  0.13248029406E+03  0.00000000000E+00 0.  1.
         13    1    4    4    0    0 -0.12999985459E+02  0.80077636637E+02  0.17998087308E+03  0.19741971073E+03  0.00000000000E+00 0. -1.
         21    1    1    2  503  501 -0.24653856776E+02  0.68837633745E+02 -0.30633274327E+02  0.79276919526E+02  0.00000000000E+00 0. -1.
          1    1    1    2  501    0  0.29992824017E+01 -0.16297965125E+03  0.17313802224E+02  0.16392415979E+03  0.00000000000E+00 0. -1.
<scales pt_clust_5="13000.00000" pt_clust_6="13000.00000" pt_clust_7="13000.00000" pt_clust_8="13000.00000" pt_clust_9="73.11930" pt_clust_10="13000.00000"></scales>
<clustering>
<clus scale="   73.119">  2  9  1 -1</clus>
<clus scale="   80.620">  5  6 -1 -1</clus>
<clus scale="   88.538">  1  5  2 -1</clus>
<clus scale="   91.604">  7  8 -1 -1</clus>
<clus scale="  118.165">  7 10 -1 -1</clus>
<clus scale="   73.119">  2  5  1 -1</clus>
</clustering>
</event>
<event>
10    4  0.2565852E-005  0.3840032E+03  0.7546771E-02  0.1099465E+00
          2   -1    0    0  503    0 -0.00000000000E+00  0.00000000000E+00  0.34684239205E+03  0.34684239205E+03  0.00000000000E+00 0. -1.
         21   -1    0    0  501  502  0.00000000000E+00 -0.00000000000E+00 -0.38578041782E+03  0.38578041782E+03  0.00000000000E+00 0.  1.
         24    2    1    2    0    0 -0.50293168137E+02  0.19187959114E+02  0.18227132421E+02  0.99546883540E+02  0.81729879053E+02 0.  0.
         23    2    1    2    0    0  0.32471999926E+02 -0.44128179558E+02  0.25608784155E+03  0.27759614304E+03  0.92070131032E+02 0.  0.
        -13    1    3    3    0    0 -0.47229046077E+02 -0.23135747230E+02 -0.18037934707E+01  0.52622231653E+02  0.00000000000E+00 0.  1.
         14    1    3    3    0    0 -0.30641220602E+01  0.42323706344E+02  0.20030925891E+02  0.46924651888E+02  0.00000000000E+00 0. -1.
        -13    1    4    4    0    0  0.32118140307E+02  0.21424139786E+02  0.12818457004E+03  0.13387252406E+03  0.00000000000E+00 0. -1.
         13    1    4    4    0    0  0.35385961889E+00 -0.65552319344E+02  0.12790327151E+03  0.14372361898E+03  0.00000000000E+00 0.  1.
         21    1    1    2  503  502 -0.17811389673E+02 -0.58176106248E+02 -0.20798688326E+03  0.21670313461E+03  0.00000000000E+00 0.  1.
          1    1    1    2  501    0  0.35632557885E+02  0.83116326692E+02 -0.10526611647E+03  0.13877664869E+03  0.00000000000E+00 0. -1.
<scales pt_clust_5="13000.00000" pt_clust_6="13000.00000" pt_clust_7="13000.00000" pt_clust_8="13000.00000" pt_clust_9="60.84164" pt_clust_10="13000.00000"></scales>
<clustering>
<clus scale="   60.842">  2  9  1 -1</clus>
<clus scale="   81.730">  5  6 -1 -1</clus>
<clus scale="   92.070">  7  8 -1 -1</clus>
<clus scale="   48.097">  7 10 -1 -1</clus>
<clus scale="   98.374">  1  5  2 -1</clus>
<clus scale="   60.842">  2  5  1 -1</clus>
</clustering>
</event>
<event>
10    4  0.2565852E-005  0.1808725E+03  0.7546771E-02  0.1195990E+00
          2   -1    0    0  503    0 -0.00000000000E+00  0.00000000000E+00  0.10171672051E+03  0.10171672051E+03  0.00000000000E+00 0. -1.
         21   -1    0    0  501  502  0.00000000000E+00 -0.00000000000E+00 -0.54917353794E+03  0.54917353794E+03  0.00000000000E+00 0. -1.
         24    2    1    2    0    0  0.43608464250E+02 -0.52755132094E+02 -0.30939312141E+02  0.10932680844E+03  0.79437446411E+02 0.  0.
         23    2    1    2    0    0  0.74708758175E+02  0.34012253479E+02 -0.69285908621E+02  0.14356858879E+03  0.95253192174E+02 0.  0.
        -13    1    3    3    0    0  0.31533073591E+02  0.14842991303E+02 -0.18782535280E+02  0.39590816517E+02  0.00000000000E+00 0.  1.
         14    1    3    3    0    0  0.12075390658E+02 -0.67598123397E+02 -0.12156776861E+02  0.69735991927E+02  0.00000000000E+00 0. -1.
        -11    1    4    4    0    0  0.51966660915E+02  0.66119568559E+02 -0.33972998578E+02  0.90700032114E+02  0.00000000000E+00 0. -1.
         11    1    4    4    0    0  0.22742097261E+02 -0.32107315080E+02 -0.35312910043E+02  0.52868556677E+02  0.00000000000E+00 0.  1.
         21    1    1    2  503  502 -0.68020776698E+02  0.18036908086E+02 -0.33996423343E+03  0.34717119138E+03  0.00000000000E+00 0. -1.
          1    1    1    2  501    0 -0.50296445727E+02  0.70597052850E+00 -0.72673632434E+01  0.50823669837E+02  0.00000000000E+00 0. -1.
<scales pt_clust_5="13000.00000" pt_clust_6="13000.00000" pt_clust_7="13000.00000" pt_clust_8="13000.00000" pt_clust_9="70.37156" pt_clust_10="13000.00000"></scales>
<clustering>
<clus scale="   70.372">  2  9  1 -1</clus>
<clus scale="   79.437">  5  6 -1 -1</clus>
<clus scale="   94.332">  1  5  2 -1</clus>
<clus scale="   95.253">  7  8 -1 -1</clus>
<clus scale="   53.623">  7 10 -1 -1</clus>
<clus scale="   70.372">  2  5  1 -1</clus>
</clustering>
</event>
<event>
10    4  0.2565852E-005  0.2879983E+03  0.7546771E-02  0.1103650E+00
          2   -1    0    0  502    0 -0.00000000000E+00  0.00000000000E+00  0.43734688893E+03  0.43734688893E+03  0.00000000000E+00 0. -1.
         21   -1    0    0  503  502  0.00000000000E+00 -0.00000000000E+00 -0.38169889104E+03  0.38169889104E+03  0.00000000000E+00 0. -1.
         24    2    1    2    0    0 -0.10988319348E+02  0.19580228012E+03  0.33367718406E+03  0.39499157929E+03  0.78858154239E+02 0.  0.
         23    2    1    2    0    0  0.27788218134E+01 -0.10089944321E+02 -0.17369793797E+02  0.95874291173E+02  0.93705075339E+02 0.  0.
        -13    1    3    3    0    0 -0.42323175387E+02  0.74831918227E+02  0.14860549223E+03  0.17168185542E+03  0.00000000000E+00 0.  1.
         14    1    3    3    0    0  0.31334856039E+02  0.12097036189E+03  0.18507169183E+03  0.22330972387E+03  0.00000000000E+00 0. -1.
        -13    1    4    4    0    0 -0.23798080830E+02 -0.17364232494E+01 -0.48528436636E+02  0.54077472012E+02  0.00000000000E+00 0. -1.
         13    1    4    4    0    0  0.26576902643E+02 -0.83535210716E+01  0.31158642839E+02  0.41796819161E+02  0.00000000000E+00 0.  1.
         21    1    1    2  503  501 -0.11534586326E+00 -0.21925888530E+02 -0.85344786925E+02  0.88116346655E+02  0.00000000000E+00 0.  1.
          1    1    1    2  501    0  0.83248433980E+01 -0.16378644727E+03 -0.17531460544E+03  0.24006356285E+03  0.00000000000E+00 0. -1.
<scales pt_clust_5="13000.00000" pt_clust_6="13000.00000" pt_clust_7="13000.00000" pt_clust_8="13000.00000" pt_clust_9="21.92619" pt_clust_10="13000.00000"></scales>
<clustering>
<clus scale="   21.926">  2  9  1 -1</clus>
<clus scale="   78.858">  5  6 -1 -1</clus>
<clus scale="   93.705">  7  8 -1 -1</clus>
<clus scale="  179.414">  7 10 -1 -1</clus>
<clus scale="  209.263">  1  5  2 -1</clus>
<clus scale="   21.926">  2  5  1 -1</clus>
</clustering>
</event>
<event>
10    4  0.2565852E-005  0.3277814E+03  0.7546771E-02  0.1115111E+00
          2   -1    0    0  502    0 -0.00000000000E+00  0.00000000000E+00  0.67869475776E+03  0.67869475776E+03  0.00000000000E+00 0. -1.
         21   -1    0    0  503  502  0.00000000000E+00 -0.00000000000E+00 -0.15313888592E+03  0.15313888592E+03  0.00000000000E+00 0. -1.
         24    2    1    2    0    0 -0.34322400360E+02  0.44677340982E+02  0.11186023415E+03  0.14838436677E+03  0.79568312488E+02 0.  0.
         23    2    1    2    0    0  0.98354814625E+02 -0.21241584989E+01  0.35363157790E+03  0.37847419563E+03  0.92245554180E+02 0.  0.
        -13    1    3    3    0    0 -0.55471644623E+02  0.96863222125E+01  0.59031509657E+02  0.81582150791E+02  0.00000000000E+00 0.  1.
         14    1    3    3    0    0  0.21149244263E+02  0.34991018769E+02  0.52828724495E+02  0.66802215976E+02  0.00000000000E+00 0. -1.
        -13    1    4    4    0    0  0.36917946547E+02 -0.39762574477E+02  0.22070756394E+03  0.22727918049E+03  0.00000000000E+00 0. -1.
         13    1    4    4    0    0  0.61436868078E+02  0.37638415978E+02  0.13292401396E+03  0.15119501514E+03  0.00000000000E+00 0.  1.
         21    1    1    2  503  501  0.40635427871E+02  0.86856884903E+02 -0.47287288055E+02  0.10691793145E+03  0.00000000000E+00 0. -1.
          1    1    1    2  501    0 -0.10466784214E+03 -0.12941006739E+03  0.10735134784E+03  0.19805714984E+03  0.00000000000E+00 0. -1.
<scales pt_clust_5="13000.00000" pt_clust_6="13000.00000" pt_clust_7="13000.00000" pt_clust_8="13000.00000" pt_clust_9="95.89242" pt_clust_10="13000.00000"></scales>
<clustering>
<clus scale="   79.568">  5  6 -1 -1</clus>
<clus scale="   92.246">  7  8 -1 -1</clus>
<clus scale="   95.892">  2  9  1 -1</clus>
<clus scale="  105.970">  1  5  2 -1</clus>
<clus scale="  106.937">  7 10 -1 -1</clus>
<clus scale="   95.892">  2  5  1 -1</clus>
</clustering>
</event>
<event>
10    4  0.2565852E-005  0.5920875E+03  0.7546771E-02  0.1039322E+00
          2   -1    0    0  503    0 -0.00000000000E+00  0.00000000000E+00  0.91715480311E+03  0.91715480311E+03  0.00000000000E+00 0. -1.
         21   -1    0    0  501  502  0.00000000000E+00 -0.00000000000E+00 -0.22198415113E+03  0.22198415113E+03  0.00000000000E+00 0.  1.
         24    2    1    2    0    0  0.84355548759E+01 -0.84051601433E+02 -0.48056524491E+02  0.12600124987E+03  0.80193859695E+02 0.  0.
         23    2    1    2    0    0 -0.10658237082E+03 -0.78656353903E+02 -0.16454272766E+02  0.16099142885E+03  0.90004851495E+02 0.  0.
        -13    1    3    3    0    0  0.70888700401E+01 -0.50277964908E+02 -0.69425991124E+02  0.86012174006E+02  0.00000000000E+00 0.  1.
         14    1    3    3    0    0  0.13466848357E+01 -0.33773636526E+02  0.21369466632E+02  0.39989075863E+02  0.00000000000E+00 0. -1.
        -11    1    4    4    0    0 -0.12025149536E+03 -0.61447860613E+02 -0.27063847467E+01  0.13506882034E+03  0.00000000000E+00 0.  1.
         11    1    4    4    0    0  0.13669124540E+02 -0.17208493290E+02 -0.13747888020E+02  0.25922608511E+02  0.00000000000E+00 0. -1.
         21    1    1    2  503  502  0.16593040553E+02 -0.67447449911E+02  0.18645529119E+02  0.71917614326E+02  0.00000000000E+00 0. -1.
          1    1    1    2  501    0  0.81553775387E+02  0.23015540525E+03  0.74103592012E+03  0.78022866119E+03  0.00000000000E+00 0. -1.
<scales pt_clust_5="13000.00000" pt_clust_6="13000.00000" pt_clust_7="13000.00000" pt_clust_8="13000.00000" pt_clust_9="69.45853" pt_clust_10="13000.00000"></scales>
<clustering>
<clus scale="   69.459">  2  9  1 -1</clus>
<clus scale="   80.194">  5  6 -1 -1</clus>
<clus scale="   90.005">  7  8 -1 -1</clus>
<clus scale="  140.358">  1  5  2 -1</clus>
<clus scale="  157.579">  7 10 -1 -1</clus>
<clus scale="   69.459">  2  5  1 -1</clus>
</clustering>
</event>
<event>
10    4  0.2565852E-005  0.4825552E+03  0.7546771E-02  0.1077205E+00
          2   -1    0    0  503    0 -0.00000000000E+00  0.00000000000E+00  0.20564814904E+03  0.20564814904E+03  0.00000000000E+00 0. -1.
         21   -1    0    0  501  502  0.00000000000E+00 -0.00000000000E+00 -0.88463959454E+03  0.88463959454E+03  0.00000000000E+00 0. -1.
         24    2    1    2    0    0  0.39321336508E+02  0.44903724555E+01  0.65438484175E+02  0.11083988435E+03  0.80230628830E+02 0.  0.
         23    2    1    2    0    0  0.12602260330E+03  0.29382698430E+02 -0.26112605741E+02  0.16028837197E+03  0.90914545045E+02 0.  0.
        -11    1    3    3    0    0  0.15514003114E+02 -0.37705187922E+02  0.33965174434E+02  0.53065983108E+02  0.00000000000E+00 0.  1.
         12    1    3    3    0    0  0.23807333394E+02  0.42195560378E+02  0.31473309741E+02  0.57773901244E+02  0.00000000000E+00 0. -1.
        -13    1    4    4    0    0  0.78224171071E+02  0.60173066297E+02 -0.24976433854E+01  0.98722120468E+02  0.00000000000E+00 0. -1.
         13    1    4    4    0    0  0.47798432234E+02 -0.30790367867E+02 -0.23614962356E+02  0.61566251506E+02  0.00000000000E+00 0.  1.
         21    1    1    2  503  502  0.32543661697E+02 -0.14778555959E+03 -0.18492162194E+03  0.23894699789E+03  0.00000000000E+00 0.  1.
          1    1    1    2  501    0 -0.19788760151E+03  0.11391248870E+03 -0.53339570199E+03  0.58021248937E+03  0.00000000000E+00 0. -1.
<scales pt_clust_5="13000.00000" pt_clust_6="13000.00000" pt_clust_7="13000.00000" pt_clust_8="13000.00000" pt_clust_9="152.53086" pt_clust_10="13000.00000"></scales>
<clustering>
<clus scale="   80.231">  5  6 -1 -1</clus>
<clus scale="   89.461">  1  5  2 -1</clus>
<clus scale="   90.915">  7  8 -1 -1</clus>
<clus scale="  152.531">  2  9  1 -1</clus>
<clus scale="  156.808">  7 10 -1 -1</clus>
<clus scale="  152.531">  2  5  1 -1</clus>
</clustering>
</event>
<event>
10    4  0.2565852E-005  0.2361166E+03  0.7546771E-02  0.1143075E+00
         21   -1    0    0  501  502  0.00000000000E+00  0.00000000000E+00  0.88091973768E+03  0.88091973768E+03  0.00000000000E+00 0. -1.
          2   -1    0    0  503    0 -0.00000000000E+00 -0.00000000000E+00 -0.12725627234E+03  0.12725627234E+03  0.00000000000E+00 0. -1.
         24    2    1    2    0    0  0.10961884067E+03 -0.31035194119E+02 -0.12557098395E+02  0.14303338794E+03  0.85565155521E+02 0.  0.
         23    2    1    2    0    0  0.16265263497E+02  0.97890928280E+02  0.18758599581E+03  0.23072293027E+03  0.90539340011E+02 0.  0.
        -13    1    3    3    0    0  0.25182009148E+02  0.29340519842E+02 -0.25126617996E+01  0.38746782559E+02  0.00000000000E+00 0.  1.
         14    1    3    3    0    0  0.84436831526E+02 -0.60375713961E+02 -0.10044436596E+02  0.10428660538E+03  0.00000000000E+00 0. -1.
        -11    1    4    4    0    0 -0.22428350582E+02  0.13481251599E+02  0.98958949442E+02  0.10236038652E+03  0.00000000000E+00 0.  1.
         11    1    4    4    0    0  0.38693614079E+02  0.84409676681E+02  0.88627046370E+02  0.12836254374E+03  0.00000000000E+00 0. -1.
         21    1    1    2  503  502 -0.18594894761E+03 -0.28772230787E+02  0.44198327964E+03  0.48036868326E+03  0.00000000000E+00 0. -1.
          1    1    1    2  501    0  0.60064843439E+02 -0.38083503374E+02  0.13665128829E+03  0.15405100856E+03  0.00000000000E+00 0. -1.
<scales pt_clust_5="13000.00000" pt_clust_6="13000.00000" pt_clust_7="13000.00000" pt_clust_8="13000.00000" pt_clust_9="149.10774" pt_clust_10="13000.00000"></scales>
<clustering>
<clus scale="   85.565">  5  6 -1 -1</clus>
<clus scale="   90.539">  7  8 -1 -1</clus>
<clus scale="   71.121">  7 10 -1 -1</clus>
<clus scale="  142.481">  2  5  1 -1</clus>
<clus scale="  149.108">  1  9  2 -1</clus>
<clus scale="  149.108">  1  5  2 -1</clus>
</clustering>
</event>
<event>
10    4  0.2565852E-005  0.1989969E+03  0.7546771E-02  0.1165260E+00
         21   -1    0    0  503  502  0.00000000000E+00  0.00000000000E+00  0.13237045642E+03  0.13237045642E+03  0.00000000000E+00 0.  1.
          2   -1    0    0  502    0 -0.00000000000E+00 -0.00000000000E+00 -0.86314960171E+03  0.86314960171E+03  0.00000000000E+00 0. -1.
         24    2    1    2    0    0 -0.26048782522E+02  0.73290226984E+02 -0.24212677677E+02  0.11416215218E+03  0.79979664841E+02 0.  0.
         23    2    1    2    0    0 -0.12147217445E+02 -0.73067994735E+02 -0.31101825502E+03  0.33248955837E+03  0.91271379554E+02 0.  0.
        -11    1    3    3    0    0  0.18638085946E+02  0.38367809993E+02  0.14995781442E+02  0.45214384354E+02  0.00000000000E+00 0.  1.
         12    1    3    3    0    0 -0.44686868468E+02  0.34922416991E+02 -0.39208459119E+02  0.68947767828E+02  0.00000000000E+00 0. -1.
        -11    1    4    4    0    0 -0.15292552463E+02  0.17848381425E+02 -0.99498952116E+02  0.10223731390E+03  0.00000000000E+00 0. -1.
         11    1    4    4    0    0  0.31453350179E+01 -0.90916376160E+02 -0.21151930290E+03  0.23025224448E+03  0.00000000000E+00 0.  1.
         21    1    1    2  503  501 -0.14847965515E+02  0.48022790409E+02  0.65339041016E+02  0.82436889555E+02  0.00000000000E+00 0.  1.
          1    1    1    2  501    0  0.53043965483E+02 -0.48245022659E+02 -0.46088725361E+03  0.46643145802E+03  0.00000000000E+00 0. -1.
<scales pt_clust_5="13000.00000" pt_clust_6="13000.00000" pt_clust_7="13000.00000" pt_clust_8="13000.00000" pt_clust_9="50.26580" pt_clust_10="13000.00000"></scales>
<clustering>
<clus scale="   50.266">  1  9  2 -1</clus>
<clus scale="   79.980">  5  6 -1 -1</clus>
<clus scale="   91.271">  7  8 -1 -1</clus>
<clus scale="   69.661">  7 10 -1 -1</clus>
<clus scale="  141.242">  2  5  1 -1</clus>
<clus scale="   50.266">  1  5  2 -1</clus>
</clustering>
</event>
<event>
10    4  0.2565852E-005  0.2931794E+03  0.7546771E-02  0.1111085E+00
          2   -1    0    0  503    0 -0.00000000000E+00  0.00000000000E+00  0.36188964878E+03  0.36188964878E+03  0.00000000000E+00 0. -1.
         21   -1    0    0  501  502  0.00000000000E+00 -0.00000000000E+00 -0.19210290078E+03  0.19210290078E+03  0.00000000000E+00 0. -1.
         24    2    1    2    0    0  0.19792614865E+02 -0.14671913727E+03  0.15278863674E+03  0.22807206869E+03  0.82184232996E+02 0.  0.
         23    2    1    2    0    0 -0.59397242926E+02 -0.27550314798E+02  0.52104218068E+02  0.12494450738E+03  0.92785926043E+02 0.  0.
        -11    1    3    3    0    0 -0.24610747590E+02 -0.94895557187E+02  0.68382388789E+02  0.11952826765E+03  0.00000000000E+00 0.  1.
         12    1    3    3    0    0  0.44403362455E+02 -0.51823580078E+02  0.84406247955E+02  0.10854380104E+03  0.00000000000E+00 0. -1.
        -11    1    4    4    0    0 -0.58091407576E+02  0.15036570223E+02  0.56106343452E+02  0.82150056931E+02  0.00000000000E+00 0.  1.
         11    1    4    4    0    0 -0.13058353499E+01 -0.42586885021E+02 -0.40021253845E+01  0.42794450450E+02  0.00000000000E+00 0. -1.
         21    1    1    2  503  502 -0.20266804211E+02  0.24059175747E+02 -0.22710735335E+02  0.38799030787E+02  0.00000000000E+00 0. -1.
          1    1    1    2  501    0  0.59871432272E+02  0.15021027632E+03 -0.12395371479E+02  0.16217694271E+03  0.00000000000E+00 0. -1.
<scales pt_clust_5="13000.00000" pt_clust_6="13000.00000" pt_clust_7="13000.00000" pt_clust_8="13000.00000" pt_clust_9="31.45771" pt_clust_10="13000.00000"></scales>
<clustering>
<clus scale="   31.458">  2  9  1 -1</clus>
<clus scale="   82.184">  5  6 -1 -1</clus>
<clus scale="   92.786">  7  8 -1 -1</clus>
<clus scale="  163.988">  1  5  2 -1</clus>
<clus scale="  111.193">  7 10 -1 -1</clus>
<clus scale="   31.458">  2  5  1 -1</clus>
</clustering>
</event>
<event>
10    4  0.2565852E-005  0.5908426E+03  0.7546771E-02  0.1049187E+00
         -1   -1    0    0    0  501 -0.00000000000E+00  0.00000000000E+00  0.26869081947E+03  0.26869081947E+03  0.00000000000E+00 0.  1.
         21   -1    0    0  503  502  0.00000000000E+00 -0.00000000000E+00 -0.72175588369E+03  0.72175588369E+03  0.00000000000E+00 0. -1.
         24    2    1    2    0    0  0.45791927263E+02  0.53230704926E+02 -0.26666966793E+02  0.10999187283E+03  0.80353446856E+02 0.  0.
         23    2    1    2    0    0  0.18881749201E+03  0.11865357039E+03 -0.20153519114E+03  0.31384908016E+03  0.90300037634E+02 0.  0.
        -13    1    3    3    0    0  0.48703573568E+02 -0.35722327232E+01 -0.19821880552E+02  0.52703945522E+02  0.00000000000E+00 0.  1.
         14    1    3    3    0    0 -0.29116463053E+01  0.56802937649E+02 -0.68450862413E+01  0.57287927310E+02  0.00000000000E+00 0. -1.
        -11    1    4    4    0    0  0.13648133301E+03  0.47869440287E+02 -0.16252550740E+03  0.21756189493E+03  0.00000000000E+00 0. -1.
         11    1    4    4    0    0  0.52336159000E+02  0.70784130101E+02 -0.39009683739E+02  0.96287185225E+02  0.00000000000E+00 0.  1.
         21    1    1    2  503  501  0.30542825308E+02 -0.35386094306E+02 -0.26194696396E+03  0.26608504613E+03  0.00000000000E+00 0. -1.
         -2    1    1    2    0  502 -0.26515224458E+03 -0.13649818101E+03  0.37084057664E+02  0.30052070404E+03  0.00000000000E+00 0.  1.
<scales pt_clust_5="13000.00000" pt_clust_6="13000.00000" pt_clust_7="13000.00000" pt_clust_8="13000.00000" pt_clust_9="46.74441" pt_clust_10="13000.00000"></scales>
<clustering>
<clus scale="   46.744">  2  9  1 -1</clus>
<clus scale="   80.353">  5  6 -1 -1</clus>
<clus scale="   90.300">  7  8 -1 -1</clus>
<clus scale="  106.259">  1  5  2 -1</clus>
<clus scale="  246.189">  7 10 -1 -1</clus>
<clus scale="   46.744">  2  5  1 -1</clus>
</clustering>
</event>
<event>
10    4  0.2565852E-005  0.2288009E+03  0.7546771E-02  0.1143482E+00
          2   -1    0    0  502    0 -0.00000000000E+00  0.00000000000E+00  0.13050855707E+04  0.13050855707E+04  0.00000000000E+00 0. -1.
         21   -1    0    0  503  502  0.00000000000E+00 -0.00000000000E+00 -0.44321954723E+02  0.44321954723E+02  0.00000000000E+00 0. -1.
         24    2    1    2    0    0  0.93099689351E+02 -0.97570329349E+02  0.87378024114E+03  0.88780737615E+03  0.80762033233E+02 0.  0.
         23    2    1    2    0    0 -0.38459733865E+02  0.84814666497E+02  0.95812226341E+02  0.16186292835E+03  0.91361622561E+02 0.  0.
        -11    1    3    3    0    0  0.19912758652E+02 -0.72499367506E+02  0.32387939469E+03  0.33249141125E+03  0.00000000000E+00 0.  1.
         12    1    3    3    0    0  0.73186930700E+02 -0.25070961843E+02  0.54990084644E+03  0.55531596490E+03  0.00000000000E+00 0. -1.
        -11    1    4    4    0    0 -0.37085083625E+02 -0.69850417942E+01  0.19494631577E+02  0.42475109143E+02  0.00000000000E+00 0.  1.
         11    1    4    4    0    0 -0.13746502400E+01  0.91799708291E+02  0.76317594763E+02  0.11938781921E+03  0.00000000000E+00 0. -1.
         21    1    1    2  503  501 -0.27020147065E+02 -0.51539275434E+01  0.57297454082E+02  0.63558237553E+02  0.00000000000E+00 0. -1.
          1    1    1    2  501    0 -0.27619808421E+02  0.17909590396E+02  0.23387369442E+03  0.23617898337E+03  0.00000000000E+00 0. -1.
<scales pt_clust_5="13000.00000" pt_clust_6="13000.00000" pt_clust_7="13000.00000" pt_clust_8="13000.00000" pt_clust_9="27.50730" pt_clust_10="13000.00000"></scales>
<clustering>
<clus scale="   27.507">  2  9  1 -1</clus>
<clus scale="   80.762">  5  6 -1 -1</clus>
<clus scale="   91.362">  7  8 -1 -1</clus>
<clus scale="   33.478">  7 10 -1 -1</clus>
<clus scale="  155.070">  1  5  2 -1</clus>
<clus scale="   27.507">  2  5  1 -1</clus>
</clustering>
</event>
<event>
10    4  0.2565852E-005  0.2833039E+03  0.7546771E-02  0.1142209E+00
         21   -1    0    0  501  502  0.00000000000E+00  0.00000000000E+00  0.14885558894E+03  0.14885558894E+03  0.00000000000E+00 0. -1.
          2   -1    0    0  503    0 -0.00000000000E+00 -0.00000000000E+00 -0.35388066260E+03  0.35388066260E+03  0.00000000000E+00 0. -1.
         24    2    1    2    0    0  0.15532644821E+02 -0.21225374799E+02 -0.10622811511E+03  0.13664558391E+03  0.81828012149E+02 0.  0.
         23    2    1    2    0    0  0.13458355462E+03 -0.44317727919E+02 -0.61116243329E+02  0.17824290689E+03  0.89210674683E+02 0.  0.
        -11    1    3    3    0    0  0.36474970607E+02 -0.90109008828E+01 -0.10593433308E+03  0.11239974529E+03  0.00000000000E+00 0.  1.
         12    1    3    3    0    0 -0.20942325786E+02 -0.12214473917E+02 -0.29378202209E+00  0.24245838618E+02  0.00000000000E+00 0. -1.
        -11    1    4    4    0    0  0.79515717880E+02 -0.36787082208E+02 -0.80895377517E+02  0.11924806460E+03  0.00000000000E+00 0. -1.
         11    1    4    4    0    0  0.55067836741E+02 -0.75306457110E+01  0.19779134188E+02  0.58994842295E+02  0.00000000000E+00 0.  1.
         21    1    1    2  503  502 -0.43850319848E+02  0.38832678149E+02 -0.50748469965E+02  0.77499900946E+02  0.00000000000E+00 0. -1.
          1    1    1    2  501    0 -0.10626587959E+03  0.26710424569E+02  0.13067754739E+02  0.11034785979E+03  0.00000000000E+00 0. -1.
<scales pt_clust_5="13000.00000" pt_clust_6="13000.00000" pt_clust_7="13000.00000" pt_clust_8="13000.00000" pt_clust_9="58.57329" pt_clust_10="13000.00000"></scales>
<clustering>
<clus scale="   58.573">  1  9  2 -1</clus>
<clus scale="   81.828">  5  6 -1 -1</clus>
<clus scale="   84.219">  2  5  1 -1</clus>
<clus scale="   89.211">  7  8 -1 -1</clus>
<clus scale="  126.968">  7 10 -1 -1</clus>
<clus scale="   58.573">  1  5  2 -1</clus>
</clustering>
</event>
<event>
10    4  0.2565852E-005  0.4439515E+03  0.7546771E-02  0.1070845E+00
         21   -1    0    0  503  502  0.00000000000E+00  0.00000000000E+00  0.19374772293E+03  0.19374772293E+03  0.00000000000E+00 0. -1.
          2   -1    0    0  502    0 -0.00000000000E+00 -0.00000000000E+00 -0.60268952793E+03  0.60268952793E+03  0.00000000000E+00 0. -1.
         24    2    1    2    0    0  0.89694056758E+02 -0.60992114502E+02 -0.15536701427E+03  0.20640700356E+03  0.81852795578E+02 0.  0.
         23    2    1    2    0    0  0.59606660228E+02  0.14806372826E+03 -0.29417826632E+02  0.18685606249E+03  0.92595669421E+02 0.  0.
        -13    1    3    3    0    0  0.71802142529E+02 -0.10242527354E+01 -0.98139469664E+02  0.12160572466E+03  0.00000000000E+00 0.  1.
         14    1    3    3    0    0  0.17891914230E+02 -0.59967861766E+02 -0.57227544609E+02  0.84801278891E+02  0.00000000000E+00 0. -1.
        -13    1    4    4    0    0 -0.15195634899E+02  0.85841412023E+02 -0.11702431051E+02  0.87957957176E+02  0.00000000000E+00 0. -1.
         13    1    4    4    0    0  0.74802295127E+02  0.62222316241E+02 -0.17715395581E+02  0.98898105317E+02  0.00000000000E+00 0.  1.
         21    1    1    2  503  501  0.44298195935E+02  0.62568198257E+02 -0.87151350654E+01  0.77156096165E+02  0.00000000000E+00 0.  1.
          1    1    1    2  501    0 -0.19359891292E+03 -0.14963981202E+03 -0.21544182903E+03  0.32601808864E+03  0.00000000000E+00 0. -1.
<scales pt_clust_5="13000.00000" pt_clust_6="13000.00000" pt_clust_7="13000.00000" pt_clust_8="13000.00000" pt_clust_9="76.66231" pt_clust_10="13000.00000"></scales>
<clustering>
<clus scale="   76.662">  1  9  2 -1</clus>
<clus scale="   81.853">  5  6 -1 -1</clus>
<clus scale="   92.596">  7  8 -1 -1</clus>
<clus scale="  136.622">  2  5  1 -1</clus>
<clus scale="  199.523">  7 10 -1 -1</clus>
<clus scale="   76.662">  1  5  2 -1</clus>
</clustering>
</event>
<event>
10    4  0.2565852E-005  0.3143313E+03  0.7546771E-02  0.1115547E+00
         21   -1    0    0  503  502  0.00000000000E+00  0.00000000000E+00  0.25179434587E+03  0.25179434587E+03  0.00000000000E+00 0.  1.
         -1   -1    0    0    0  501 -0.00000000000E+00 -0.00000000000E+00 -0.35958623354E+03  0.35958623354E+03  0.00000000000E+00 0.  1.
         24    2    1    2    0    0 -0.66231245239E+02 -0.58634438076E+02  0.42884624452E+02  0.12634834326E+03  0.79374036403E+02 0.  0.
         23    2    1    2    0    0  0.42875079282E+02 -0.68532774332E+02 -0.10621638796E+03  0.16005683708E+03  0.88324721591E+02 0.  0.
        -11    1    3    3    0    0  0.24005674810E+01 -0.25896036180E+02  0.43064016888E+02  0.50307822101E+02  0.00000000000E+00 0.  1.
         12    1    3    3    0    0 -0.68631812720E+02 -0.32738401896E+02 -0.17939243556E+00  0.76040521155E+02  0.00000000000E+00 0. -1.
        -13    1    4    4    0    0  0.57427913453E+01 -0.69877064590E+02 -0.10038467950E+03  0.12244536613E+03  0.00000000000E+00 0.  1.
         13    1    4    4    0    0  0.37132287937E+02  0.13442902582E+01 -0.58317084623E+01  0.37611470954E+02  0.00000000000E+00 0. -1.
         21    1    1    2  503  501  0.12219451637E+03 -0.26855710376E+02  0.27894726605E+02  0.12818285683E+03  0.00000000000E+00 0.  1.
         -2    1    1    2    0  502 -0.98838350416E+02  0.15402292278E+03 -0.72354850762E+02  0.19679254225E+03  0.00000000000E+00 0.  1.
<scales pt_clust_5="13000.00000" pt_clust_6="13000.00000" pt_clust_7="13000.00000" pt_clust_8="13000.00000" pt_clust_9="117.43422" pt_clust_10="13000.00000"></scales>
<clustering>
<clus scale="   79.374">  5  6 -1 -1</clus>
<clus scale="   88.325">  7  8 -1 -1</clus>
<clus scale="  118.848">  2  5  1 -1</clus>
<clus scale="  117.434">  1  9  2 -1</clus>
<clus scale="  129.306">  7 10 -1 -1</clus>
<clus scale="  117.434">  1  5  2 -1</clus>
</clustering>
</event>
<event>
10    4  0.2565852E-005  0.5931913E+03  0.7546771E-02  0.1037047E+00
         21   -1    0    0  503  502  0.00000000000E+00  0.00000000000E+00  0.21890000241E+03  0.21890000241E+03  0.00000000000E+00 0. -1.
          2   -1    0    0  502    0 -0.00000000000E+00 -0.00000000000E+00 -0.17779281289E+04  0.17779281289E+04  0.00000000000E+00 0. -1.
         24    2    1    2    0    0  0.29100352734E+02 -0.12373959472E+03 -0.62728990600E+03  0.64465843713E+03  0.77029582350E+02 0.  0.
         23    2    1    2    0    0 -0.42535721931E+02 -0.20705262311E+03 -0.59291017058E+03  0.63649397782E+03  0.94350607076E+02 0.  0.
        -13    1    3    3    0    0 -0.14391109727E+02 -0.76877693967E+02 -0.24871558736E+03  0.26072346896E+03  0.00000000000E+00 0.  1.
         14    1    3    3    0    0  0.43491462461E+02 -0.46861900751E+02 -0.37857431864E+03  0.38393496817E+03  0.00000000000E+00 0. -1.
        -11    1    4    4    0    0 -0.30092365880E+02 -0.58308451962E+02 -0.30735174500E+03  0.31427777714E+03  0.00000000000E+00 0.  1.
         11    1    4    4    0    0 -0.12443356051E+02 -0.14874417115E+03 -0.28555842558E+03  0.32221620068E+03  0.00000000000E+00 0. -1.
         21    1    1    2  503  501 -0.17432464951E+02 -0.10250521828E+02  0.13197124240E+03  0.13351169557E+03  0.00000000000E+00 0. -1.
          1    1    1    2  501    0  0.30867834148E+02  0.34104273966E+03 -0.47079929231E+03  0.58216402078E+03  0.00000000000E+00 0. -1.
<scales pt_clust_5="13000.00000" pt_clust_6="13000.00000" pt_clust_7="13000.00000" pt_clust_8="13000.00000" pt_clust_9="20.22286" pt_clust_10="13000.00000"></scales>
<clustering>
<clus scale="   20.223">  1  9  2 -1</clus>
<clus scale="   77.030">  5  6 -1 -1</clus>
<clus scale="   94.351">  7  8 -1 -1</clus>
<clus scale="  149.163">  2  5  1 -1</clus>
<clus scale="  280.836">  7 10 -1 -1</clus>
<clus scale="   20.223">  1  5  2 -1</clus>
</clustering>
</event>
<event>
10    4  0.2565852E-005  0.1872067E+03  0.7546771E-02  0.1194051E+00
          2   -1    0    0  503    0 -0.00000000000E+00  0.00000000000E+00  0.83400965028E+03  0.83400965028E+03  0.00000000000E+00 0. -1.
         21   -1    0    0  501  502  0.00000000000E+00 -0.00000000000E+00 -0.60469689228E+02  0.60469689228E+02  0.00000000000E+00 0. -1.
         24    2    1    2    0    0  0.30643366955E+02 -0.13151748297E+02  0.60928409101E+03  0.61573388243E+03  0.82396152773E+02 0.  0.
         23    2    1    2    0    0 -0.83331358689E+02 -0.26566123937E+02  0.15770727430E+03  0.20173118555E+03  0.90410245959E+02 0.  0.
        -11    1    3    3    0    0  0.17730176694E+02  0.32024071014E+02  0.16719986702E+03  0.17115985459E+03  0.00000000000E+00 0.  1.
         12    1    3    3    0    0  0.12913190261E+02 -0.45175819311E+02  0.44208422399E+03  0.44457402784E+03  0.00000000000E+00 0. -1.
        -11    1    4    4    0    0  0.15816357981E+02 -0.15062052605E+02  0.11447401910E+02  0.24658986576E+02  0.00000000000E+00 0.  1.
         11    1    4    4    0    0 -0.99147716670E+02 -0.11504071332E+02  0.14625987239E+03  0.17707219897E+03  0.00000000000E+00 0. -1.
         21    1    1    2  503  502  0.49976604674E+01  0.24575973714E+02 -0.52107654320E+01  0.25614589017E+02  0.00000000000E+00 0. -1.
          1    1    1    2  501    0  0.47690331267E+02  0.15141898520E+02  0.11759361175E+02  0.51399682512E+02  0.00000000000E+00 0. -1.
<scales pt_clust_5="13000.00000" pt_clust_6="13000.00000" pt_clust_7="13000.00000" pt_clust_8="13000.00000" pt_clust_9="25.07898" pt_clust_10="13000.00000"></scales>
<clustering>
<clus scale="   25.079">  2  9  1 -1</clus>
<clus scale="   82.396">  5  6 -1 -1</clus>
<clus scale="   88.769">  1  5  2 -1</clus>
<clus scale="   90.410">  7  8 -1 -1</clus>
<clus scale="   61.152">  7 10 -1 -1</clus>
<clus scale="   25.079">  2  5  1 -1</clus>
</clustering>
</event>
<event>
10    4  0.2565852E-005  0.2324732E+03  0.7546771E-02  0.1133535E+00
          2   -1    0    0  502    0 -0.00000000000E+00  0.00000000000E+00  0.35292788764E+03  0.35292788764E+03  0.00000000000E+00 0. -1.
         21   -1    0    0  503  502  0.00000000000E+00 -0.00000000000E+00 -0.36643270722E+03  0.36643270722E+03  0.00000000000E+00 0. -1.
         24    2    1    2    0    0  0.16423752643E+03 -0.13141636251E+02 -0.95539149433E+02  0.20661870104E+03  0.80105498268E+02 0.  0.
         23    2    1    2    0    0 -0.64177806006E+02  0.66210473305E+01  0.66958399312E+02  0.12914134069E+03  0.89618243590E+02 0.  0.
        -11    1    3    3    0    0  0.11889000410E+03 -0.36060193341E+02 -0.38138550336E+02  0.12996045414E+03  0.00000000000E+00 0.  1.
         12    1    3    3    0    0  0.45347522330E+02  0.22918557090E+02 -0.57400599097E+02  0.76658246897E+02  0.00000000000E+00 0. -1.
        -13    1    4    4    0    0 -0.85275529367E+02 -0.10094774845E+01  0.63755549825E+02  0.10647866024E+03  0.00000000000E+00 0.  1.
         13    1    4    4    0    0  0.21097723362E+02  0.76305248150E+01  0.32028494875E+01  0.22662680443E+02  0.00000000000E+00 0. -1.
         21    1    1    2  503  501  0.74360719965E+01  0.27899363759E+02 -0.16787075337E+03  0.17033572585E+03  0.00000000000E+00 0. -1.
          1    1    1    2  501    0 -0.10749579242E+03 -0.21378774839E+02  0.18294668391E+03  0.21326482728E+03  0.00000000000E+00 0. -1.
<scales pt_clust_5="13000.00000" pt_clust_6="13000.00000" pt_clust_7="13000.00000" pt_clust_8="13000.00000" pt_clust_9="28.87334" pt_clust_10="13000.00000"></scales>
<clustering>
<clus scale="   28.873">  2  9  1 -1</clus>
<clus scale="   80.105">  5  6 -1 -1</clus>
<clus scale="   89.618">  7  8 -1 -1</clus>
<clus scale="  108.641">  7 10 -1 -1</clus>
<clus scale="  188.045">  1  5  2 -1</clus>
<clus scale="   28.873">  2  5  1 -1</clus>
</clustering>
</event>
<event>
10    4  0.2565852E-005  0.4972218E+03  0.7546771E-02  0.1024464E+00
          2   -1    0    0  503    0 -0.00000000000E+00  0.00000000000E+00  0.16490923191E+03  0.16490923191E+03  0.00000000000E+00 0. -1.
         21   -1    0    0  501  502  0.00000000000E+00 -0.00000000000E+00 -0.19295869757E+04  0.19295869757E+04  0.00000000000E+00 0.  1.
         24    2    1    2    0    0 -0.36005374129E+03  0.64670521134E+02 -0.12424576837E+04  0.12981466103E+04  0.87536010772E+02 0.  0.
         23    2    1    2    0    0  0.17426877488E+02 -0.11743926046E+03 -0.26189953553E+02  0.15343222473E+03  0.93594112867E+02 0.  0.
        -13    1    3    3    0    0 -0.36015129019E+03  0.62247924657E+02 -0.11724557233E+04  0.12281026745E+04  0.00000000000E+00 0.  1.
         14    1    3    3    0    0  0.97548902254E-01  0.24225964776E+01 -0.70001960338E+02  0.70043935788E+02  0.00000000000E+00 0. -1.
        -11    1    4    4    0    0 -0.37160748370E+02 -0.47709230444E+02  0.19735149621E+01  0.60506087712E+02  0.00000000000E+00 0.  1.
         11    1    4    4    0    0  0.54587625858E+02 -0.69730030014E+02 -0.28163468515E+02  0.92926137019E+02  0.00000000000E+00 0. -1.
         21    1    1    2  503  502  0.20405371607E+02  0.37440900495E+02 -0.20195176511E+03  0.20640425299E+03  0.00000000000E+00 0. -1.
          1    1    1    2  501    0  0.32222149219E+03  0.15327838828E+02 -0.29407834146E+03  0.43651311960E+03  0.00000000000E+00 0. -1.
<scales pt_clust_5="13000.00000" pt_clust_6="13000.00000" pt_clust_7="13000.00000" pt_clust_8="13000.00000" pt_clust_9="42.64036" pt_clust_10="13000.00000"></scales>
<clustering>
<clus scale="   42.640">  2  9  1 -1</clus>
<clus scale="   87.536">  5  6 -1 -1</clus>
<clus scale="   93.594">  7  8 -1 -1</clus>
<clus scale="  327.369">  7 10 -1 -1</clus>
<clus scale="  367.718">  1  5  2 -1</clus>
<clus scale="   42.640">  2  5  1 -1</clus>
</clustering>
</event>
<event>
10    4  0.2565852E-005  0.3782320E+03  0.7546771E-02  0.1075082E+00
         21   -1    0    0  501  502  0.00000000000E+00  0.00000000000E+00  0.52231450999E+02  0.52231450999E+02  0.00000000000E+00 0. -1.
          2   -1    0    0  503    0 -0.00000000000E+00 -0.00000000000E+00 -0.27535260904E+04  0.27535260904E+04  0.00000000000E+00 0. -1.
         24    2    1    2    0    0 -0.13895460567E+03 -0.12005868740E+03 -0.12532615286E+04  0.12693331722E+04  0.82581910819E+02 0.  0.
         23    2    1    2    0    0 -0.56004756584E+02  0.13364087367E+03 -0.51317317716E+03  0.54101436870E+03  0.91397054113E+02 0.  0.
        -11    1    3    3    0    0 -0.11902968270E+02 -0.18163312020E+02 -0.43101230394E+02  0.48262849260E+02  0.00000000000E+00 0.  1.
         12    1    3    3    0    0 -0.12705163740E+03 -0.10189537538E+03 -0.12101602982E+04  0.12210703229E+04  0.00000000000E+00 0. -1.
        -11    1    4    4    0    0 -0.72904605645E+02  0.80542789137E+02 -0.40519536012E+03  0.41950626011E+03  0.00000000000E+00 0.  1.
         11    1    4    4    0    0  0.16899849061E+02  0.53098084534E+02 -0.10797781704E+03  0.12150810859E+03  0.00000000000E+00 0. -1.
         21    1    1    2  503  502  0.88324852176E+01  0.19639164732E+02  0.15431787936E+02  0.26492445440E+02  0.00000000000E+00 0. -1.
          1    1    1    2  501    0  0.18612687703E+03 -0.33221351002E+02 -0.95029172158E+03  0.96891755512E+03  0.00000000000E+00 0. -1.
<scales pt_clust_5="13000.00000" pt_clust_6="13000.00000" pt_clust_7="13000.00000" pt_clust_8="13000.00000" pt_clust_9="21.53392" pt_clust_10="13000.00000"></scales>
<clustering>
<clus scale="   21.534">  1  9  2 -1</clus>
<clus scale="   82.582">  5  6 -1 -1</clus>
<clus scale="   91.397">  7  8 -1 -1</clus>
<clus scale="  190.732">  7 10 -1 -1</clus>
<clus scale="  196.800">  2  5  1 -1</clus>
<clus scale="   21.534">  1  5  2 -1</clus>
</clustering>
</event>
<event>
10    4  0.2565852E-005  0.2343330E+03  0.7546771E-02  0.1166528E+00
         21   -1    0    0  501  502  0.00000000000E+00  0.00000000000E+00  0.43661285280E+02  0.43661285280E+02  0.00000000000E+00 0. -1.
          2   -1    0    0  503    0 -0.00000000000E+00 -0.00000000000E+00 -0.77510404145E+03  0.77510404145E+03  0.00000000000E+00 0. -1.
         24    2    1    2    0    0  0.28858035130E+02  0.95204570558E+01 -0.22801953135E+03  0.24394585236E+03  0.81198811038E+02 0.  0.
         23    2    1    2    0    0 -0.50374629050E+02  0.14046728624E+02 -0.73581924039E+02  0.12821958565E+03  0.91055196240E+02 0.  0.
        -13    1    3    3    0    0 -0.26123189904E+01 -0.30802204984E+02 -0.12708595533E+03  0.13079159026E+03  0.00000000000E+00 0.  1.
         14    1    3    3    0    0  0.31470354121E+02  0.40322662040E+02 -0.10093357602E+03  0.11315426210E+03  0.00000000000E+00 0. -1.
        -11    1    4    4    0    0 -0.36183339276E+02  0.51358957021E+02 -0.57553755822E+02  0.85202179060E+02  0.00000000000E+00 0.  1.
         11    1    4    4    0    0 -0.14191289774E+02 -0.37312228397E+02 -0.16028168217E+02  0.43017406590E+02  0.00000000000E+00 0. -1.
         21    1    1    2  503  502 -0.42962119239E+02 -0.69632497400E+01 -0.86162314440E+02  0.96530694425E+02  0.00000000000E+00 0. -1.
          1    1    1    2  501    0  0.64478713159E+02 -0.16603935940E+02 -0.34367898634E+03  0.35006919429E+03  0.00000000000E+00 0. -1.
<scales pt_clust_5="13000.00000" pt_clust_6="13000.00000" pt_clust_7="13000.00000" pt_clust_8="13000.00000" pt_clust_9="43.52276" pt_clust_10="13000.00000"></scales>
<clustering>
<clus scale="   43.523">  1  9  2 -1</clus>
<clus scale="   81.199">  5  6 -1 -1</clus>
<clus scale="   84.007">  2  5  1 -1</clus>
<clus scale="   91.055">  7  8 -1 -1</clus>
<clus scale="   74.141">  7 10 -1 -1</clus>
<clus scale="   43.523">  1  5  2 -1</clus>
</clustering>
</event>
<event>
10    4  0.2565852E-005  0.2726304E+03  0.7546771E-02  0.1137612E+00
          2   -1    0    0  502    0 -0.00000000000E+00  0.00000000000E+00  0.35702411407E+03  0.35702411407E+03  0.00000000000E+00 0. -1.
         21   -1    0    0  503  502  0.00000000000E+00 -0.00000000000E+00 -0.11749437872E+03  0.11749437872E+03  0.00000000000E+00 0. -1.
         24    2    1    2    0    0  0.44374208519E+02  0.57938659215E+02  0.42327406240E+02  0.11594402462E+03  0.79532690836E+02 0.  0.
         23    2    1    2    0    0  0.55558925043E+02  0.48783912900E+02  0.28684105952E+02  0.12180908453E+03  0.92455453219E+02 0.  0.
        -13    1    3    3    0    0  0.58311245733E+02  0.24239112252E+02  0.47624127068E+02  0.79093573827E+02  0.00000000000E+00 0.  1.
         14    1    3    3    0    0 -0.13937037214E+02  0.33699546963E+02 -0.52967208273E+01  0.36850450789E+02  0.00000000000E+00 0. -1.
        -13    1    4    4    0    0  0.10167589962E+01  0.21796595792E+02  0.52194352864E+02  0.56571864543E+02  0.00000000000E+00 0.  1.
         13    1    4    4    0    0  0.54542166047E+02  0.26987317108E+02 -0.23510246912E+02  0.65237219987E+02  0.00000000000E+00 0. -1.
         21    1    1    2  503  501 -0.25694809237E+02  0.49570259290E+01  0.75104697511E+01  0.27225034136E+02  0.00000000000E+00 0. -1.
          1    1    1    2  501    0 -0.74238324324E+02 -0.11167959804E+03  0.16100775340E+03  0.20954034951E+03  0.00000000000E+00 0. -1.
<scales pt_clust_5="13000.00000" pt_clust_6="13000.00000" pt_clust_7="13000.00000" pt_clust_8="13000.00000" pt_clust_9="26.16859" pt_clust_10="13000.00000"></scales>
<clustering>
<clus scale="   26.169">  2  9  1 -1</clus>
<clus scale="   79.533">  5  6 -1 -1</clus>
<clus scale="   92.455">  7  8 -1 -1</clus>
<clus scale="  105.585">  1  5  2 -1</clus>
<clus scale="   87.701">  7 10 -1 -1</clus>
<clus scale="   26.169">  2  5  1 -1</clus>
</clustering>
</event>
<event>
10    4  0.2565852E-005  0.2597933E+03  0.7546771E-02  0.1150189E+00
         21   -1    0    0  503  502  0.00000000000E+00  0.00000000000E+00  0.16840516382E+03  0.16840516382E+03  0.00000000000E+00 0.  1.
         -1   -1    0    0    0  501 -0.00000000000E+00 -0.00000000000E+00 -0.31714942320E+03  0.31714942320E+03  0.00000000000E+00 0.  1.
         24    2    1    2    0    0  0.14058636375E+02 -0.38410444235E+02 -0.11886474636E+03  0.14891534564E+03  0.79836988650E+02 0.  0.
         23    2    1    2    0    0  0.49942892826E+02 -0.67927754264E+02 -0.58282903335E+02  0.13476832109E+03  0.87505035305E+02 0.  0.
        -11    1    3    3    0    0  0.42504178526E+02 -0.37630817068E+02 -0.55205296301E+02  0.79185278462E+02  0.00000000000E+00 0.  1.
         12    1    3    3    0    0 -0.28445542151E+02 -0.77962716629E+00 -0.63659450055E+02  0.69730067174E+02  0.00000000000E+00 0. -1.
        -11    1    4    4    0    0  0.23816876227E+02 -0.76773483870E+02 -0.12543515801E+02  0.81355707897E+02  0.00000000000E+00 0. -1.
         11    1    4    4    0    0  0.26126016599E+02  0.88457296063E+01 -0.45739387534E+02  0.53412613188E+02  0.00000000000E+00 0.  1.
         21    1    1    2  503  501  0.24406416305E+02  0.63847740111E-01  0.55834650298E+02  0.60935912295E+02  0.00000000000E+00 0.  1.
         -2    1    1    2    0  502 -0.88407945506E+02  0.10627435076E+03 -0.27431259981E+02  0.14093500801E+03  0.00000000000E+00 0.  1.
<scales pt_clust_5="13000.00000" pt_clust_6="13000.00000" pt_clust_7="13000.00000" pt_clust_8="13000.00000" pt_clust_9="24.40650" pt_clust_10="13000.00000"></scales>
<clustering>
<clus scale="   24.406">  1  9  2 -1</clus>
<clus scale="   79.837">  5  6 -1 -1</clus>
<clus scale="   87.505">  7  8 -1 -1</clus>
<clus scale="   90.284">  2  5  1 -1</clus>
<clus scale="  113.106">  7 10 -1 -1</clus>
<clus scale="   24.406">  1  5  2 -1</clus>
</clustering>
</event>
<event>
10    4  0.2565852E-005  0.2415552E+03  0.7546771E-02  0.1141261E+00
          2   -1    0    0  502    0 -0.00000000000E+00  0.00000000000E+00  0.75353679125E+03  0.75353679125E+03  0.00000000000E+00 0. -1.
         21   -1    0    0  503  502  0.00000000000E+00 -0.00000000000E+00 -0.12493276673E+03  0.12493276673E+03  0.00000000000E+00 0. -1.
         24    2    1    2    0    0 -0.47627980555E+02  0.10840616708E+03  0.58866701813E+03  0.60522160024E+03  0.75789218028E+02 0.  0.
         23    2    1    2    0    0 -0.65687672370E+02 -0.65268150145E+02  0.46424702100E+02  0.13924470923E+03  0.93053932527E+02 0.  0.
        -11    1    3    3    0    0  0.11376925773E+02  0.53281204940E+02  0.32270190702E+03  0.32726876117E+03  0.00000000000E+00 0.  1.
         12    1    3    3    0    0 -0.59004906328E+02  0.55124962140E+02  0.26596511111E+03  0.27795283907E+03  0.00000000000E+00 0. -1.
        -13    1    4    4    0    0 -0.42410201932E+02  0.93816772569E+01 -0.77436228028E+01  0.44120344402E+02  0.00000000000E+00 0. -1.
         13    1    4    4    0    0 -0.23277470438E+02 -0.74649827401E+02  0.54168324903E+02  0.95124364828E+02  0.00000000000E+00 0.  1.
         21    1    1    2  503  501  0.16512431556E+02 -0.17039828977E+02 -0.22231046719E+02  0.32515159629E+02  0.00000000000E+00 0. -1.
          1    1    1    2  501    0  0.96803221369E+02 -0.26098187960E+02  0.15743351009E+02  0.10148808887E+03  0.00000000000E+00 0. -1.
<scales pt_clust_5="13000.00000" pt_clust_6="13000.00000" pt_clust_7="13000.00000" pt_clust_8="13000.00000" pt_clust_9="23.72796" pt_clust_10="13000.00000"></scales>
<clustering>
<clus scale="   23.728">  2  9  1 -1</clus>
<clus scale="   75.789">  5  6 -1 -1</clus>
<clus scale="   93.054">  7  8 -1 -1</clus>
<clus scale="  109.346">  7 10 -1 -1</clus>
<clus scale="  139.002">  1  5  2 -1</clus>
<clus scale="   23.728">  2  5  1 -1</clus>
</clustering>
</event>
<event>
10    4  0.2565852E-005  0.4478386E+03  0.7546771E-02  0.1043248E+00
         21   -1    0    0  501  502  0.00000000000E+00  0.00000000000E+00  0.53286519348E+03  0.53286519348E+03  0.00000000000E+00 0.  1.
          2   -1    0    0  503    0 -0.00000000000E+00 -0.00000000000E+00 -0.96045268013E+03  0.96045268013E+03  0.00000000000E+00 0. -1.
         24    2    1    2    0    0  0.26381329716E+03  0.17453845879E+02 -0.13368222715E+03  0.30668120917E+03  0.79248556506E+02 0.  0.
         23    2    1    2    0    0 -0.27569289775E+03  0.60014554407E+02 -0.35761734323E+03  0.46379863643E+03  0.87239270767E+02 0.  0.
        -13    1    3    3    0    0  0.18323839002E+03  0.99833978735E+01 -0.13144573848E+03  0.22572983404E+03  0.00000000000E+00 0.  1.
         14    1    3    3    0    0  0.80574907140E+02  0.74704480057E+01 -0.22364886676E+01  0.80951375131E+02  0.00000000000E+00 0. -1.
        -11    1    4    4    0    0 -0.31327729291E+02 -0.15025634610E+02 -0.19234927081E+02  0.39713709696E+02  0.00000000000E+00 0.  1.
         11    1    4    4    0    0 -0.24436516846E+03  0.75040189018E+02 -0.33838241615E+03  0.42408492673E+03  0.00000000000E+00 0. -1.
         21    1    1    2  503  502  0.14986017249E+02  0.75776360217E+02  0.37126041231E+03  0.37921093237E+03  0.00000000000E+00 0.  1.
          1    1    1    2  501    0 -0.31064166538E+01 -0.15324476050E+03 -0.30754832859E+03  0.34362709565E+03  0.00000000000E+00 0. -1.
<scales pt_clust_5="13000.00000" pt_clust_6="13000.00000" pt_clust_7="13000.00000" pt_clust_8="13000.00000" pt_clust_9="77.24401" pt_clust_10="13000.00000"></scales>
<clustering>
<clus scale="   77.244">  1  9  2 -1</clus>
<clus scale="   79.249">  5  6 -1 -1</clus>
<clus scale="   87.239">  7  8 -1 -1</clus>
<clus scale="  144.580">  7 10 -1 -1</clus>
<clus scale="  289.430">  2  5  1 -1</clus>
<clus scale="   77.244">  1  5  2 -1</clus>
</clustering>
</event>
<event>
10    4  0.2565852E-005  0.2206090E+03  0.7546771E-02  0.1154596E+00
          4   -1    0    0  503    0 -0.00000000000E+00  0.00000000000E+00  0.82232472258E+03  0.82232472258E+03  0.00000000000E+00 0. -1.
         21   -1    0    0  501  502  0.00000000000E+00 -0.00000000000E+00 -0.27777037006E+03  0.27777037006E+03  0.00000000000E+00 0.  1.
         24    2    1    2    0    0  0.13010670824E+03  0.39626409224E+02 -0.42757158552E+02  0.16395441937E+03  0.80962146623E+02 0.  0.
         23    2    1    2    0    0 -0.83797234382E+02 -0.48517708763E+02  0.37309969316E+03  0.39648957921E+03  0.92869052060E+02 0.  0.
        -11    1    3    3    0    0  0.67125588671E+02  0.41316364811E+02 -0.59506933240E+02  0.98762147401E+02  0.00000000000E+00 0.  1.
         12    1    3    3    0    0  0.62981119573E+02 -0.16899555874E+01  0.16749774688E+02  0.65192271971E+02  0.00000000000E+00 0. -1.
        -13    1    4    4    0    0 -0.39058380700E+02  0.24678799279E+02  0.16639778033E+03  0.17269285317E+03  0.00000000000E+00 0. -1.
         13    1    4    4    0    0 -0.44738853682E+02 -0.73196508041E+02  0.20670191283E+03  0.22379672604E+03  0.00000000000E+00 0.  1.
         21    1    1    2  503  502 -0.10766503339E+03  0.68434519313E+02 -0.13168364724E+03  0.18334564571E+03  0.00000000000E+00 0.  1.
          3    1    1    2  501    0  0.61355559522E+02 -0.59543219774E+02  0.34589546516E+03  0.35630544835E+03  0.00000000000E+00 0. -1.
<scales pt_clust_5="13000.00000" pt_clust_6="13000.00000" pt_clust_7="13000.00000" pt_clust_8="13000.00000" pt_clust_9="127.57368" pt_clust_10="13000.00000"></scales>
<clustering>
<clus scale="   80.962">  5  6 -1 -1</clus>
<clus scale="   92.869">  7  8 -1 -1</clus>
<clus scale="   85.498">  7 10 -1 -1</clus>
<clus scale="  127.574">  2  9  1 -1</clus>
<clus scale="  132.882">  1  5  2 -1</clus>
<clus scale="  127.574">  2  5  1 -1</clus>
</clustering>
</event>
<event>
10    4  0.2565852E-005  0.1331892E+03  0.7546771E-02  0.1245044E+00
         21   -1    0    0  501  502  0.00000000000E+00  0.00000000000E+00  0.67041700246E+02  0.67041700246E+02  0.00000000000E+00 0.  1.
          2   -1    0    0  503    0 -0.00000000000E+00 -0.00000000000E+00 -0.54275625190E+03  0.54275625190E+03  0.00000000000E+00 0. -1.
         24    2    1    2    0    0 -0.18792012624E+02 -0.27760537176E+02 -0.21881258651E+02  0.90648611258E+02  0.81330154802E+02 0.  0.
         23    2    1    2    0    0 -0.26137907986E+01  0.13115875987E+01 -0.45166682057E+03  0.46070215540E+03  0.90746939468E+02 0.  0.
        -13    1    3    3    0    0  0.85405427229E+01 -0.48847097630E+02  0.34830258885E+00  0.49589324774E+02  0.00000000000E+00 0.  1.
         14    1    3    3    0    0 -0.27332555347E+02  0.21086560454E+02 -0.22229561240E+02  0.41059286483E+02  0.00000000000E+00 0. -1.
        -11    1    4    4    0    0 -0.40954025894E+02 -0.20016879485E+02 -0.19065361492E+03  0.19602731591E+03  0.00000000000E+00 0. -1.
         11    1    4    4    0    0  0.38340235095E+02  0.21328467083E+02 -0.26101320565E+03  0.26467483949E+03  0.00000000000E+00 0.  1.
         21    1    1    2  503  502  0.27216952119E+02  0.68845899468E+01  0.14953563326E+02  0.31808318370E+02  0.00000000000E+00 0.  1.
          1    1    1    2  501    0 -0.58111486970E+01  0.19564359630E+02 -0.17120035759E+02  0.26638867118E+02  0.00000000000E+00 0. -1.
<scales pt_clust_5="13000.00000" pt_clust_6="13000.00000" pt_clust_7="13000.00000" pt_clust_8="13000.00000" pt_clust_9="28.07419" pt_clust_10="13000.00000"></scales>
<clustering>
<clus scale="   28.074">  1  9  2 -1</clus>
<clus scale="   81.330">  5  6 -1 -1</clus>
<clus scale="   84.384">  2  5  1 -1</clus>
<clus scale="   90.747">  7  8 -1 -1</clus>
<clus scale="   19.419">  7 10 -1 -1</clus>
<clus scale="   28.074">  1  5  2 -1</clus>
</clustering>
</event>
<event>
10    4  0.2565852E-005  0.3033801E+03  0.7546771E-02  0.1134685E+00
         -3   -1    0    0    0  501 -0.00000000000E+00  0.00000000000E+00  0.64372474257E+03  0.64372474257E+03  0.00000000000E+00 0.  1.
         21   -1    0    0  501  502  0.00000000000E+00 -0.00000000000E+00 -0.21558122164E+03  0.21558122164E+03  0.00000000000E+00 0.  1.
         24    2    1    2    0    0  0.71338732459E+01 -0.23396315993E+02 -0.56326754335E+02  0.10086656395E+03  0.80019252175E+02 0.  0.
         23    2    1    2    0    0  0.46399197256E+02  0.79912350926E+02  0.51586277960E+03  0.53336162794E+03  0.99102721695E+02 0.  0.
        -13    1    3    3    0    0  0.15702565138E+02  0.27680280341E+02 -0.19597271248E+02  0.37374075400E+02  0.00000000000E+00 0.  1.
         14    1    3    3    0    0 -0.85686918920E+01 -0.51076596334E+02 -0.36729483087E+02  0.63492488545E+02  0.00000000000E+00 0. -1.
        -11    1    4    4    0    0  0.70157906365E+02  0.25888970525E+02  0.24573025045E+03  0.25685740520E+03  0.00000000000E+00 0. -1.
         11    1    4    4    0    0 -0.23758709109E+02  0.54023380401E+02  0.27013252915E+03  0.27650422274E+03  0.00000000000E+00 0.  1.
         21    1    1    2  503  502  0.14704019345E+02  0.21948056338E+02 -0.98060206294E+02  0.10155653313E+03  0.00000000000E+00 0.  1.
         -4    1    1    2    0  503 -0.68237089848E+02 -0.78464091271E+02  0.66667701963E+02  0.12352123921E+03  0.00000000000E+00 0.  1.
<scales pt_clust_5="13000.00000" pt_clust_6="13000.00000" pt_clust_7="13000.00000" pt_clust_8="13000.00000" pt_clust_9="26.41828" pt_clust_10="13000.00000"></scales>
<clustering>
<clus scale="   26.418">  2  9  1 -1</clus>
<clus scale="   80.019">  5  6 -1 -1</clus>
<clus scale="   82.269">  1  5  2 -1</clus>
<clus scale="   99.103">  7  8 -1 -1</clus>
<clus scale="   96.908">  7 10 -1 -1</clus>
<clus scale="   26.418">  2  5  1 -1</clus>
</clustering>
</event>
<event>
10    4  0.2565852E-005  0.8211203E+03  0.7546771E-02  0.1009981E+00
          2   -1    0    0  503    0 -0.00000000000E+00  0.00000000000E+00  0.86503193953E+03  0.86503193953E+03  0.00000000000E+00 0. -1.
         21   -1    0    0  501  502  0.00000000000E+00 -0.00000000000E+00 -0.28380872762E+03  0.28380872762E+03  0.00000000000E+00 0. -1.
         24    2    1    2    0    0 -0.65457997762E+02 -0.63244758552E+02  0.16427899672E+03  0.20808973097E+03  0.89605236549E+02 0.  0.
         23    2    1    2    0    0  0.37426123236E+03  0.91229073629E+02  0.45610141938E+03  0.60398408610E+03  0.91509876891E+02 0.  0.
        -13    1    3    3    0    0 -0.40387211289E+02  0.35856108275E+01  0.16119492895E+02  0.43632802934E+02  0.00000000000E+00 0.  1.
         14    1    3    3    0    0 -0.25070786473E+02 -0.66830369379E+02  0.14815950382E+03  0.16445692804E+03  0.00000000000E+00 0. -1.
        -11    1    4    4    0    0  0.13865229555E+03 -0.10182111452E+02  0.17352948861E+03  0.22235246316E+03  0.00000000000E+00 0.  1.
         11    1    4    4    0    0  0.23560893682E+03  0.10141118508E+03  0.28257193077E+03  0.38163162294E+03  0.00000000000E+00 0. -1.
         21    1    1    2  503  502 -0.28357110621E-01  0.21440204480E+02  0.11680287527E+01  0.21472015821E+02  0.00000000000E+00 0. -1.
          1    1    1    2  501    0 -0.30877487749E+03 -0.49424519557E+02 -0.40325232941E+02  0.31529483427E+03  0.00000000000E+00 0. -1.
<scales pt_clust_5="13000.00000" pt_clust_6="13000.00000" pt_clust_7="13000.00000" pt_clust_8="13000.00000" pt_clust_9="21.44022" pt_clust_10="13000.00000"></scales>
<clustering>
<clus scale="   21.440">  2  9  1 -1</clus>
<clus scale="   89.605">  5  6 -1 -1</clus>
<clus scale="   91.510">  7  8 -1 -1</clus>
<clus scale="  126.885">  1  5  2 -1</clus>
<clus scale="  326.300">  7 10 -1 -1</clus>
<clus scale="   21.440">  2  5  1 -1</clus>
</clustering>
</event>
<event>
10    4  0.2565852E-005  0.3016090E+03  0.7546771E-02  0.1109982E+00
         21   -1    0    0  503  502  0.00000000000E+00  0.00000000000E+00  0.21392800128E+03  0.21392800128E+03  0.00000000000E+00 0. -1.
          2   -1    0    0  502    0 -0.00000000000E+00 -0.00000000000E+00 -0.49112319652E+03  0.49112319652E+03  0.00000000000E+00 0. -1.
         24    2    1    2    0    0  0.28588362279E+01  0.12814407576E+03 -0.14522315484E+03  0.20937653304E+03  0.79496482866E+02 0.  0.
         23    2    1    2    0    0  0.98755109751E+02 -0.17560836903E+03 -0.16556942357E+03  0.27614354406E+03  0.90835851539E+02 0.  0.
        -13    1    3    3    0    0  0.33618584593E+02  0.26910002738E+02 -0.27498671332E+02  0.51093389029E+02  0.00000000000E+00 0.  1.
         14    1    3    3    0    0 -0.30759748365E+02  0.10123407302E+03 -0.11772448351E+03  0.15828314401E+03  0.00000000000E+00 0. -1.
        -11    1    4    4    0    0  0.11335795697E+03 -0.15262313580E+03 -0.12588764896E+03  0.22801655236E+03  0.00000000000E+00 0. -1.
         11    1    4    4    0    0 -0.14602847214E+02 -0.22985233239E+02 -0.39681774611E+02  0.48126991700E+02  0.00000000000E+00 0.  1.
         21    1    1    2  503  501 -0.21410086002E+02  0.15996317307E+02  0.10455470617E+03  0.10791645163E+03  0.00000000000E+00 0. -1.
          1    1    1    2  501    0 -0.80203859977E+02  0.31467975971E+02 -0.70957322991E+02  0.11161466908E+03  0.00000000000E+00 0. -1.
<scales pt_clust_5="13000.00000" pt_clust_6="13000.00000" pt_clust_7="13000.00000" pt_clust_8="13000.00000" pt_clust_9="26.72590" pt_clust_10="13000.00000"></scales>
<clustering>
<clus scale="   26.726">  1  9  2 -1</clus>
<clus scale="   79.496">  5  6 -1 -1</clus>
<clus scale="   90.836">  7  8 -1 -1</clus>
<clus scale="   91.031">  7 10 -1 -1</clus>
<clus scale="  154.909">  2  5  1 -1</clus>
<clus scale="   26.726">  1  5  2 -1</clus>
</clustering>
</event>
<event>
10    4  0.2565852E-005  0.6599090E+03  0.7546771E-02  0.1038861E+00
          2   -1    0    0  503    0 -0.00000000000E+00  0.00000000000E+00  0.68431034817E+03  0.68431034817E+03  0.00000000000E+00 0. -1.
         21   -1    0    0  501  502  0.00000000000E+00 -0.00000000000E+00 -0.27093136062E+03  0.27093136062E+03  0.00000000000E+00 0. -1.
         24    2    1    2    0    0  0.23927745712E+01 -0.68177801878E+02  0.12141735207E+03  0.15948123967E+03  0.77705562113E+02 0.  0.
         23    2    1    2    0    0 -0.79223828169E+02 -0.13592801979E+03  0.46666587908E+03  0.50088284196E+03  0.91398780924E+02 0.  0.
        -11    1    3    3    0    0 -0.35315695080E+02 -0.39366716652E+02  0.83035219632E+02  0.98446860784E+02  0.00000000000E+00 0.  1.
         12    1    3    3    0    0  0.37708469651E+02 -0.28811085225E+02  0.38382132443E+02  0.61034378888E+02  0.00000000000E+00 0. -1.
        -13    1    4    4    0    0 -0.25339776593E+02 -0.84593233150E+02  0.13754636923E+03  0.16345373370E+03  0.00000000000E+00 0.  1.
         13    1    4    4    0    0 -0.53884051575E+02 -0.51334786643E+02  0.32911950985E+03  0.33742910826E+03  0.00000000000E+00 0. -1.
         21    1    1    2  503  502  0.42051651125E+02  0.14322242335E+02 -0.37319236726E+02  0.58018905692E+02  0.00000000000E+00 0. -1.
          1    1    1    2  501    0  0.34779402472E+02  0.18978357933E+03 -0.13738500688E+03  0.23685872147E+03  0.00000000000E+00 0. -1.
<scales pt_clust_5="13000.00000" pt_clust_6="13000.00000" pt_clust_7="13000.00000" pt_clust_8="13000.00000" pt_clust_9="44.42373" pt_clust_10="13000.00000"></scales>
<clustering>
<clus scale="   44.424">  2  9  1 -1</clus>
<clus scale="   77.706">  5  6 -1 -1</clus>
<clus scale="   91.399">  7  8 -1 -1</clus>
<clus scale="  102.748">  1  5  2 -1</clus>
<clus scale="  205.650">  7 10 -1 -1</clus>
<clus scale="   44.424">  2  5  1 -1</clus>
</clustering>
</event>
<event>
10    4  0.2565852E-005  0.3097718E+03  0.7546771E-02  0.1121948E+00
         21   -1    0    0  503  502  0.00000000000E+00  0.00000000000E+00  0.11531709014E+03  0.11531709014E+03  0.00000000000E+00 0. -1.
         -1   -1    0    0    0  501 -0.00000000000E+00 -0.00000000000E+00 -0.68457574548E+03  0.68457574548E+03  0.00000000000E+00 0.  1.
         24    2    1    2    0    0  0.71078278640E+02 -0.12056909970E+02 -0.35488823336E+03  0.37101499840E+03  0.80678250388E+02 0.  0.
         23    2    1    2    0    0 -0.11508337565E+03 -0.73204626724E+02 -0.16295465945E+03  0.23331764954E+03  0.96331738425E+02 0.  0.
        -13    1    3    3    0    0  0.73248802477E+02  0.19651153426E+02 -0.23186669472E+03  0.24395433797E+03  0.00000000000E+00 0.  1.
         14    1    3    3    0    0 -0.21705238375E+01 -0.31708063396E+02 -0.12302153865E+03  0.12706066043E+03  0.00000000000E+00 0. -1.
        -11    1    4    4    0    0 -0.20526294077E+02 -0.65751536017E+02 -0.91679356626E+02  0.11467213118E+03  0.00000000000E+00 0.  1.
         11    1    4    4    0    0 -0.94557081568E+02 -0.74530907070E+01 -0.71275302822E+02  0.11864551837E+03  0.00000000000E+00 0. -1.
         21    1    1    2  503  501 -0.43261255896E+02  0.37602012705E+02 -0.73992510428E+02  0.93596683813E+02  0.00000000000E+00 0. -1.
         -2    1    1    2    0  502  0.87266352902E+02  0.47659523989E+02  0.22576747904E+02  0.10196350387E+03  0.00000000000E+00 0.  1.
<scales pt_clust_5="13000.00000" pt_clust_6="13000.00000" pt_clust_7="13000.00000" pt_clust_8="13000.00000" pt_clust_9="57.31885" pt_clust_10="13000.00000"></scales>
<clustering>
<clus scale="   57.319">  1  9  2 -1</clus>
<clus scale="   80.678">  5  6 -1 -1</clus>
<clus scale="   96.332">  7  8 -1 -1</clus>
<clus scale="   93.222">  7 10 -1 -1</clus>
<clus scale="  105.766">  2  5  1 -1</clus>
<clus scale="   57.319">  1  5  2 -1</clus>
</clustering>
</event>
<event>
10    4  0.2565852E-005  0.1635172E+03  0.7546771E-02  0.1216930E+00
         21   -1    0    0  503  502  0.00000000000E+00  0.00000000000E+00  0.10647944972E+03  0.10647944972E+03  0.00000000000E+00 0.  1.
          2   -1    0    0  502    0 -0.00000000000E+00 -0.00000000000E+00 -0.24220365399E+03  0.24220365399E+03  0.00000000000E+00 0. -1.
         24    2    1    2    0    0 -0.26244374839E+02 -0.56234011603E+01  0.74126075861E+01  0.85813139894E+02  0.81169935172E+02 0.  0.
         23    2    1    2    0    0 -0.52531089561E+02  0.79278588426E+01 -0.14200574936E+03  0.17761545508E+03  0.92516218654E+02 0.  0.
        -13    1    3    3    0    0 -0.50586644632E+02 -0.15651356690E+02  0.20035881484E+02  0.56616341530E+02  0.00000000000E+00 0.  1.
         14    1    3    3    0    0  0.24342269793E+02  0.10027955530E+02 -0.12623273898E+02  0.29196798364E+02  0.00000000000E+00 0. -1.
        -13    1    4    4    0    0 -0.72538743936E+02  0.25655634107E+02 -0.84992203543E+02  0.11464621928E+03  0.00000000000E+00 0. -1.
         13    1    4    4    0    0  0.20007654375E+02 -0.17727775264E+02 -0.57013545818E+02  0.62969235791E+02  0.00000000000E+00 0.  1.
         21    1    1    2  503  501  0.35029794153E+02  0.10477543455E+02  0.10835345415E+02  0.38134893542E+02  0.00000000000E+00 0. -1.
          1    1    1    2  501    0  0.43745670247E+02 -0.12782001137E+02 -0.11966407913E+02  0.47119615202E+02  0.00000000000E+00 0. -1.
<scales pt_clust_5="13000.00000" pt_clust_6="13000.00000" pt_clust_7="13000.00000" pt_clust_8="13000.00000" pt_clust_9="36.56317" pt_clust_10="13000.00000"></scales>
<clustering>
<clus scale="   36.563">  1  9  2 -1</clus>
<clus scale="   81.170">  5  6 -1 -1</clus>
<clus scale="   81.417">  2  5  1 -1</clus>
<clus scale="   92.516">  7  8 -1 -1</clus>
<clus scale="   50.970">  7 10 -1 -1</clus>
<clus scale="   36.563">  1  5  2 -1</clus>
</clustering>
</event>
<event>
10    4  0.2565852E-005  0.1527608E+03  0.7546771E-02  0.1216435E+00
         21   -1    0    0  503  502  0.00000000000E+00  0.00000000000E+00  0.44947885500E+03  0.44947885500E+03  0.00000000000E+00 0. -1.
          2   -1    0    0  502    0 -0.00000000000E+00 -0.00000000000E+00 -0.21364959986E+03  0.21364959986E+03  0.00000000000E+00 0. -1.
         24    2    1    2    0    0  0.39901786463E+02  0.68641105767E+02 -0.57647522012E+02  0.12657508953E+03  0.79964132788E+02 0.  0.
         23    2    1    2    0    0 -0.60370820810E+02  0.23512555452E+01 -0.38446888816E+02  0.11724515987E+03  0.92833721494E+02 0.  0.
        -11    1    3    3    0    0  0.52127036109E+02  0.69360355188E+02 -0.68238876921E+02  0.11038401645E+03  0.00000000000E+00 0.  1.
         12    1    3    3    0    0 -0.12225249646E+02 -0.71924942047E+00  0.10591354909E+02  0.16191073079E+02  0.00000000000E+00 0. -1.
        -13    1    4    4    0    0 -0.22946919567E+02 -0.42264191701E+02 -0.33891644425E+02  0.58834229659E+02  0.00000000000E+00 0.  1.
         13    1    4    4    0    0 -0.37423901243E+02  0.44615447246E+02 -0.45552443912E+01  0.58410930216E+02  0.00000000000E+00 0. -1.
         21    1    1    2  503  501 -0.56392026893E+00 -0.49605253284E+02  0.36860227118E+03  0.37192557519E+03  0.00000000000E+00 0. -1.
          1    1    1    2  501    0  0.21032954616E+02 -0.21387108028E+02 -0.36678605216E+02  0.47382630259E+02  0.00000000000E+00 0. -1.
<scales pt_clust_5="13000.00000" pt_clust_6="13000.00000" pt_clust_7="13000.00000" pt_clust_8="13000.00000" pt_clust_9="49.60846" pt_clust_10="13000.00000"></scales>
<clustering>
<clus scale="   49.608">  1  9  2 -1</clus>
<clus scale="   79.964">  5  6 -1 -1</clus>
<clus scale="   92.834">  7  8 -1 -1</clus>
<clus scale="   32.447">  7 10 -1 -1</clus>
<clus scale="  100.903">  2  5  1 -1</clus>
<clus scale="   49.608">  1  5  2 -1</clus>
</clustering>
</event>
<event>
10    4  0.2565852E-005  0.3958975E+03  0.7546771E-02  0.1086780E+00
          4   -1    0    0  503    0 -0.00000000000E+00  0.00000000000E+00  0.19222952207E+03  0.19222952207E+03  0.00000000000E+00 0. -1.
         21   -1    0    0  501  502  0.00000000000E+00 -0.00000000000E+00 -0.61987081990E+03  0.61987081990E+03  0.00000000000E+00 0. -1.
         24    2    1    2    0    0 -0.32071057175E+02 -0.46486032859E+02 -0.27045263207E+03  0.28785222591E+03  0.80776072008E+02 0.  0.
         23    2    1    2    0    0 -0.19058892303E+02  0.13603226508E+02  0.12850420303E+03  0.16255880236E+03  0.96766445016E+02 0.  0.
        -11    1    3    3    0    0 -0.17839590238E+02 -0.42793189851E+02 -0.55152788359E+02  0.72050941293E+02  0.00000000000E+00 0.  1.
         12    1    3    3    0    0 -0.14231466937E+02 -0.36928430083E+01 -0.21529984371E+03  0.21580128462E+03  0.00000000000E+00 0. -1.
        -13    1    4    4    0    0  0.35904330971E+02  0.23621782487E+02  0.46368441494E+02  0.63222954351E+02  0.00000000000E+00 0.  1.
         13    1    4    4    0    0 -0.54963223274E+02 -0.10018555978E+02  0.82135761534E+02  0.99335848007E+02  0.00000000000E+00 0. -1.
         21    1    1    2  503  502 -0.69629731265E+02 -0.37632812952E+02 -0.76614944656E+02  0.11015615204E+03  0.00000000000E+00 0. -1.
          3    1    1    2  501    0  0.12075968074E+03  0.70515619303E+02 -0.20907792414E+03  0.25153316167E+03  0.00000000000E+00 0. -1.
<scales pt_clust_5="13000.00000" pt_clust_6="13000.00000" pt_clust_7="13000.00000" pt_clust_8="13000.00000" pt_clust_9="79.14877" pt_clust_10="13000.00000"></scales>
<clustering>
<clus scale="   79.149">  2  9  1 -1</clus>
<clus scale="   80.776">  5  6 -1 -1</clus>
<clus scale="   96.766">  7  8 -1 -1</clus>
<clus scale="  105.243">  7 10 -1 -1</clus>
<clus scale="  125.294">  1  5  2 -1</clus>
<clus scale="   79.149">  2  5  1 -1</clus>
</clustering>
</event>
<event>
10    4  0.2565852E-005  0.4447596E+03  0.7546771E-02  0.1059790E+00
          2   -1    0    0  502    0 -0.00000000000E+00  0.00000000000E+00  0.99287209831E+03  0.99287209831E+03  0.00000000000E+00 0. -1.
         21   -1    0    0  503  502  0.00000000000E+00 -0.00000000000E+00 -0.35071829232E+03  0.35071829232E+03  0.00000000000E+00 0.  1.
         24    2    1    2    0    0  0.52838185085E+02 -0.15380742271E+03  0.53809921903E+03  0.56784921605E+03  0.80332842357E+02 0.  0.
         23    2    1    2    0    0  0.21301337973E+01  0.78860713739E+02 -0.74763676842E+02  0.14203013073E+03  0.91429760025E+02 0.  0.
        -13    1    3    3    0    0 -0.11039685603E+02 -0.88011230176E+02  0.29415945538E+03  0.30724198360E+03  0.00000000000E+00 0.  1.
         14    1    3    3    0    0  0.63877870688E+02 -0.65796192530E+02  0.24393976365E+03  0.26060723244E+03  0.00000000000E+00 0. -1.
        -11    1    4    4    0    0 -0.32573969851E+02  0.21591471411E+02 -0.62858240696E+02  0.74016306129E+02  0.00000000000E+00 0.  1.
         11    1    4    4    0    0  0.34704103648E+02  0.57269242327E+02 -0.11905436145E+02  0.68013824599E+02  0.00000000000E+00 0. -1.
         21    1    1    2  503  501  0.32607193740E+02 -0.22239171132E+02 -0.21507216548E+03  0.21866377428E+03  0.00000000000E+00 0.  1.
          1    1    1    2  501    0 -0.87575512623E+02  0.97185880100E+02  0.39389042928E+03  0.41504726958E+03  0.00000000000E+00 0. -1.
<scales pt_clust_5="13000.00000" pt_clust_6="13000.00000" pt_clust_7="13000.00000" pt_clust_8="13000.00000" pt_clust_9="39.46910" pt_clust_10="13000.00000"></scales>
<clustering>
<clus scale="   39.469">  2  9  1 -1</clus>
<clus scale="   80.333">  5  6 -1 -1</clus>
<clus scale="   91.430">  7  8 -1 -1</clus>
<clus scale="  127.794">  7 10 -1 -1</clus>
<clus scale="  184.565">  1  5  2 -1</clus>
<clus scale="   39.469">  2  5  1 -1</clus>
</clustering>
</event>
<event>
10    4  0.2565852E-005  0.3169911E+03  0.7546771E-02  0.1090635E+00
         21   -1    0    0  501  502  0.00000000000E+00  0.00000000000E+00  0.27723917690E+03  0.27723917690E+03  0.00000000000E+00 0. -1.
          2   -1    0    0  503    0 -0.00000000000E+00 -0.00000000000E+00 -0.48489834357E+03  0.48489834357E+03  0.00000000000E+00 0. -1.
         24    2    1    2    0    0 -0.23578018231E+03  0.10370527224E+03 -0.50421215624E+02  0.27590832710E+03  0.85064846537E+02 0.  0.
         23    2    1    2    0    0  0.90913357244E+02 -0.48649181139E+02  0.10228933995E+02  0.13876905557E+03  0.92305137131E+02 0.  0.
        -11    1    3    3    0    0 -0.38035498921E+02  0.56199486310E+02 -0.14404738542E+02  0.69372746321E+02  0.00000000000E+00 0.  1.
         12    1    3    3    0    0 -0.19774468339E+03  0.47505785933E+02 -0.36016477082E+02  0.20653558078E+03  0.00000000000E+00 0. -1.
        -13    1    4    4    0    0  0.47774793261E+02 -0.73823850852E+02  0.78738874941E+00  0.87937544921E+02  0.00000000000E+00 0.  1.
         13    1    4    4    0    0  0.43138563984E+02  0.25174669713E+02  0.94415452454E+01  0.50831510644E+02  0.00000000000E+00 0. -1.
         21    1    1    2  503  502  0.13176275971E+03  0.36450263519E+02  0.20263120755E+02  0.13820506728E+03  0.00000000000E+00 0. -1.
          1    1    1    2  501    0  0.13104065353E+02 -0.91506354623E+02 -0.18773000580E+03  0.20925507053E+03  0.00000000000E+00 0. -1.
<scales pt_clust_5="13000.00000" pt_clust_6="13000.00000" pt_clust_7="13000.00000" pt_clust_8="13000.00000" pt_clust_9="136.71155" pt_clust_10="13000.00000"></scales>
<clustering>
<clus scale="   85.065">  5  6 -1 -1</clus>
<clus scale="   92.305">  7  8 -1 -1</clus>
<clus scale="   92.440">  7 10 -1 -1</clus>
<clus scale="  136.712">  1  9  2 -1</clus>
<clus scale="  220.383">  2  5  1 -1</clus>
<clus scale="  136.712">  1  5  2 -1</clus>
</clustering>
</event>
<event>
10    4  0.2565852E-005  0.6375335E+03  0.7546771E-02  0.1015178E+00
         21   -1    0    0  501  502  0.00000000000E+00  0.00000000000E+00  0.18201972296E+03  0.18201972296E+03  0.00000000000E+00 0. -1.
          2   -1    0    0  503    0 -0.00000000000E+00 -0.00000000000E+00 -0.12257159816E+04  0.12257159816E+04  0.00000000000E+00 0. -1.
         24    2    1    2    0    0  0.22716214045E+03 -0.66336879803E+02 -0.28585519815E+03  0.37930289500E+03  0.78449169361E+02 0.  0.
         23    2    1    2    0    0 -0.18574627525E+03 -0.18692140939E+03 -0.11231124071E+03  0.30050284726E+03  0.90812192815E+02 0.  0.
        -11    1    3    3    0    0  0.88973352787E+02 -0.55143987163E+02 -0.16488333494E+03  0.19530394509E+03  0.00000000000E+00 0.  1.
         12    1    3    3    0    0  0.13818878766E+03 -0.11192892640E+02 -0.12097186321E+03  0.18399894992E+03  0.00000000000E+00 0. -1.
        -11    1    4    4    0    0 -0.18453781396E+03 -0.14644143256E+03 -0.10983587789E+03  0.25992925580E+03  0.00000000000E+00 0. -1.
         11    1    4    4    0    0 -0.12084612948E+01 -0.40479976826E+02 -0.24753628212E+01  0.40573591456E+02  0.00000000000E+00 0.  1.
         21    1    1    2  503  502 -0.64883763759E+02  0.18051465583E+02 -0.41037193216E+02  0.78865768470E+02  0.00000000000E+00 0. -1.
          1    1    1    2  501    0  0.23467898562E+02  0.23520682361E+03 -0.60449262660E+03  0.64906419386E+03  0.00000000000E+00 0. -1.
<scales pt_clust_5="13000.00000" pt_clust_6="13000.00000" pt_clust_7="13000.00000" pt_clust_8="13000.00000" pt_clust_9="67.34804" pt_clust_10="13000.00000"></scales>
<clustering>
<clus scale="   67.348">  1  9  2 -1</clus>
<clus scale="   78.449">  5  6 -1 -1</clus>
<clus scale="   90.812">  7  8 -1 -1</clus>
<clus scale="  231.083">  2  5  1 -1</clus>
<clus scale="  253.030">  7 10 -1 -1</clus>
<clus scale="   67.348">  1  5  2 -1</clus>
</clustering>
</event>
<event>
10    4  0.2565852E-005  0.1421647E+03  0.7546771E-02  0.1228443E+00
          2   -1    0    0  503    0 -0.00000000000E+00  0.00000000000E+00  0.33622843240E+03  0.33622843240E+03  0.00000000000E+00 0. -1.
         21   -1    0    0  501  502  0.00000000000E+00 -0.00000000000E+00 -0.12717945187E+03  0.12717945187E+03  0.00000000000E+00 0.  1.
         24    2    1    2    0    0 -0.46442117997E+02  0.22476210439E+02  0.21015518057E+03  0.23081001115E+03  0.80287053540E+02 0.  0.
         23    2    1    2    0    0  0.11826626774E+02 -0.39243498571E+02  0.21633947981E+02  0.10144412765E+03  0.90238362403E+02 0.  0.
        -11    1    3    3    0    0  0.16866081996E+02 -0.14375480457E+02  0.46738138254E+02  0.51725938635E+02  0.00000000000E+00 0.  1.
         12    1    3    3    0    0 -0.63308199994E+02  0.36851690897E+02  0.16341704231E+03  0.17908407251E+03  0.00000000000E+00 0. -1.
        -11    1    4    4    0    0  0.50120468703E+02 -0.22992491835E+02  0.23178451712E+02  0.59816023668E+02  0.00000000000E+00 0. -1.
         11    1    4    4    0    0 -0.38293841929E+02 -0.16251006736E+02 -0.15445037307E+01  0.41628103985E+02  0.00000000000E+00 0.  1.
         21    1    1    2  503  502 -0.10418863701E+02  0.24753369511E+02 -0.64093975530E+02  0.69493307031E+02  0.00000000000E+00 0.  1.
          1    1    1    2  501    0  0.45034354925E+02 -0.79860813793E+01  0.41353827504E+02  0.61660438439E+02  0.00000000000E+00 0. -1.
<scales pt_clust_5="13000.00000" pt_clust_6="13000.00000" pt_clust_7="13000.00000" pt_clust_8="13000.00000" pt_clust_9="26.85669" pt_clust_10="13000.00000"></scales>
<clustering>
<clus scale="   26.857">  2  9  1 -1</clus>
<clus scale="   80.287">  5  6 -1 -1</clus>
<clus scale="   90.238">  7  8 -1 -1</clus>
<clus scale="   43.451">  7 10 -1 -1</clus>
<clus scale="   97.391">  1  5  2 -1</clus>
<clus scale="   26.857">  2  5  1 -1</clus>
</clustering>
</event>
<event>
10    4  0.2565852E-005  0.6686775E+03  0.7546771E-02  0.9836598E-01
          2   -1    0    0  503    0 -0.00000000000E+00  0.00000000000E+00  0.15436238707E+04  0.15436238707E+04  0.00000000000E+00 0. -1.
         21   -1    0    0  501  502  0.00000000000E+00 -0.00000000000E+00 -0.31317259949E+03  0.31317259949E+03  0.00000000000E+00 0. -1.
         24    2    1    2    0    0  0.54190853187E+03 -0.63421655285E+02  0.64711406597E+03  0.84998650662E+03  0.77674215775E+02 0.  0.
         23    2    1    2    0    0  0.74921715898E+01  0.45788519936E+02  0.14132432720E+02  0.98910207066E+02  0.86201984978E+02 0.  0.
        -13    1    3    3    0    0  0.54439683497E+02  0.45822922462E+01  0.36499540155E+02  0.65703066694E+02  0.00000000000E+00 0.  1.
         14    1    3    3    0    0  0.48746884837E+03 -0.68003947531E+02  0.61061452582E+03  0.78428343993E+03  0.00000000000E+00 0. -1.
        -11    1    4    4    0    0 -0.41617060388E+01 -0.21880398772E+02 -0.12168970385E+02  0.25380218434E+02  0.00000000000E+00 0.  1.
         11    1    4    4    0    0  0.11653877629E+02  0.67668918708E+02  0.26301403104E+02  0.73529988631E+02  0.00000000000E+00 0. -1.
         21    1    1    2  503  502 -0.22844261949E+02 -0.87795340385E+00 -0.73418211980E+02  0.76895155612E+02  0.00000000000E+00 0. -1.
          1    1    1    2  501    0 -0.52655644151E+03  0.18511088753E+02  0.64262298450E+03  0.83100460090E+03  0.00000000000E+00 0. -1.
<scales pt_clust_5="13000.00000" pt_clust_6="13000.00000" pt_clust_7="13000.00000" pt_clust_8="13000.00000" pt_clust_9="22.86113" pt_clust_10="13000.00000"></scales>
<clustering>
<clus scale="   22.861">  2  9  1 -1</clus>
<clus scale="   77.674">  5  6 -1 -1</clus>
<clus scale="   86.202">  7  8 -1 -1</clus>
<clus scale="  535.905">  7 10 -1 -1</clus>
<clus scale="  541.582">  1  5  2 -1</clus>
<clus scale="   22.861">  2  5  1 -1</clus>
</clustering>
</event>
<event>
10    4  0.2565852E-005  0.3904790E+03  0.7546771E-02  0.1093182E+00
          2   -1    0    0  502    0 -0.00000000000E+00  0.00000000000E+00  0.21313235290E+03  0.21313235290E+03  0.00000000000E+00 0. -1.
         21   -1    0    0  503  502  0.00000000000E+00 -0.00000000000E+00 -0.89829905786E+03  0.89829905786E+03  0.00000000000E+00 0. -1.
         24    2    1    2    0    0  0.74638923696E+02 -0.32266329056E+01  0.48221148983E+02  0.12033621043E+03  0.81081096694E+02 0.  0.
         23    2    1    2    0    0  0.14805674393E+03  0.76063477260E+02 -0.14746068112E+03  0.23976916576E+03  0.89655721388E+02 0.  0.
        -11    1    3    3    0    0  0.51514585538E+01 -0.33227648669E+02  0.77426681493E+01  0.34504536968E+02  0.00000000000E+00 0.  1.
         12    1    3    3    0    0  0.69487465142E+02  0.30001015763E+02  0.40478480833E+02  0.85831673462E+02  0.00000000000E+00 0. -1.
        -11    1    4    4    0    0  0.11970947610E+03  0.19144348314E+02 -0.71647997901E+02  0.14082009922E+03  0.00000000000E+00 0.  1.
         11    1    4    4    0    0  0.28347267832E+02  0.56919128947E+02 -0.75812683214E+02  0.98949066543E+02  0.00000000000E+00 0. -1.
         21    1    1    2  503  501 -0.43538017423E+02 -0.14597063532E+03 -0.52770092083E+03  0.54924607161E+03  0.00000000000E+00 0. -1.
          1    1    1    2  501    0 -0.17915765020E+03  0.73133790963E+02 -0.58226252001E+02  0.20207996296E+03  0.00000000000E+00 0. -1.
<scales pt_clust_5="13000.00000" pt_clust_6="13000.00000" pt_clust_7="13000.00000" pt_clust_8="13000.00000" pt_clust_9="150.92180" pt_clust_10="13000.00000"></scales>
<clustering>
<clus scale="   81.081">  5  6 -1 -1</clus>
<clus scale="   89.656">  7  8 -1 -1</clus>
<clus scale="  110.252">  1  5  2 -1</clus>
<clus scale="  150.922">  2  9  1 -1</clus>
<clus scale="  151.215">  7 10 -1 -1</clus>
<clus scale="  150.922">  2  5  1 -1</clus>
</clustering>
</event>
<event>
10    4  0.2565852E-005  0.1123197E+04  0.7546771E-02  0.9436862E-01
         21   -1    0    0  503  502  0.00000000000E+00  0.00000000000E+00  0.22576502452E+04  0.22576502452E+04  0.00000000000E+00 0.  1.
         -1   -1    0    0    0  501 -0.00000000000E+00 -0.00000000000E+00 -0.37912574371E+03  0.37912574371E+03  0.00000000000E+00 0.  1.
         24    2    1    2    0    0  0.39314489433E+03 -0.21170943917E+03  0.58504798774E+03  0.74174455749E+03  0.92304095405E+02 0.  0.
         23    2    1    2    0    0  0.38534776365E+03  0.10169527446E+03  0.37519102860E+03  0.55454381949E+03  0.88970287162E+02 0.  0.
        -13    1    3    3    0    0  0.17320067505E+03 -0.13773347346E+03  0.24594035853E+03  0.33084081293E+03  0.00000000000E+00 0.  1.
         14    1    3    3    0    0  0.21994421928E+03 -0.73975965711E+02  0.33910762921E+03  0.41090374455E+03  0.00000000000E+00 0. -1.
        -13    1    4    4    0    0  0.21717549445E+03  0.95171286081E+02  0.25171175967E+03  0.34580569549E+03  0.00000000000E+00 0.  1.
         13    1    4    4    0    0  0.16817226921E+03  0.65239883815E+01  0.12347926893E+03  0.20873812400E+03  0.00000000000E+00 0. -1.
         21    1    1    2  503  501 -0.10916143636E+03 -0.11714842008E+03  0.48658110273E+03  0.51225105276E+03  0.00000000000E+00 0.  1.
         -2    1    1    2    0  502 -0.66933122163E+03  0.22716258479E+03  0.43170438246E+03  0.82823655921E+03  0.00000000000E+00 0.  1.
<scales pt_clust_5="13000.00000" pt_clust_6="13000.00000" pt_clust_7="13000.00000" pt_clust_8="13000.00000" pt_clust_9="160.12486" pt_clust_10="13000.00000"></scales>
<clustering>
<clus scale="   88.970">  7  8 -1 -1</clus>
<clus scale="   92.304">  5  6 -1 -1</clus>
<clus scale="  160.125">  1  9  2 -1</clus>
<clus scale="  444.842">  2  5  1 -1</clus>
<clus scale="  453.421">  7 10 -1 -1</clus>
<clus scale="  160.125">  1  5  2 -1</clus>
</clustering>
</event>
<event>
10    4  0.2565852E-005  0.2468310E+03  0.7546771E-02  0.1158836E+00
          4   -1    0    0  503    0 -0.00000000000E+00  0.00000000000E+00  0.39979371548E+03  0.39979371548E+03  0.00000000000E+00 0. -1.
         21   -1    0    0  501  502  0.00000000000E+00 -0.00000000000E+00 -0.12142436806E+03  0.12142436806E+03  0.00000000000E+00 0. -1.
         24    2    1    2    0    0 -0.18743673284E+02  0.25818451031E+02  0.16915678335E+03  0.19043860076E+03  0.81455052650E+02 0.  0.
         23    2    1    2    0    0 -0.75472956104E+02  0.66180952189E+02  0.31682943245E+02  0.13923228754E+03  0.91135807806E+02 0.  0.
        -13    1    3    3    0    0 -0.37836642422E+02 -0.68227265350E+01  0.38460947707E+02  0.54382033850E+02  0.00000000000E+00 0.  1.
         14    1    3    3    0    0  0.19092969138E+02  0.32641177566E+02  0.13069583565E+03  0.13605656691E+03  0.00000000000E+00 0. -1.
        -11    1    4    4    0    0 -0.96325106121E+02  0.46987951932E+02  0.23301577687E+02  0.10967842640E+03  0.00000000000E+00 0. -1.
         11    1    4    4    0    0  0.20852150017E+02  0.19193000257E+02  0.83813655574E+01  0.29553861132E+02  0.00000000000E+00 0.  1.
         21    1    1    2  503  502  0.30729415272E+02 -0.22143145009E+02 -0.30105549079E+02  0.48383467416E+02  0.00000000000E+00 0.  1.
          3    1    1    2  501    0  0.63487214116E+02 -0.69856258210E+02  0.10763516990E+03  0.14316372783E+03  0.00000000000E+00 0. -1.
<scales pt_clust_5="13000.00000" pt_clust_6="13000.00000" pt_clust_7="13000.00000" pt_clust_8="13000.00000" pt_clust_9="37.87632" pt_clust_10="13000.00000"></scales>
<clustering>
<clus scale="   37.876">  2  9  1 -1</clus>
<clus scale="   81.455">  5  6 -1 -1</clus>
<clus scale="   85.905">  1  5  2 -1</clus>
<clus scale="   91.136">  7  8 -1 -1</clus>
<clus scale="   84.600">  7 10 -1 -1</clus>
<clus scale="   37.876">  2  5  1 -1</clus>
</clustering>
</event>
<event>
10    4  0.2565852E-005  0.1943003E+03  0.7546771E-02  0.1189594E+00
         21   -1    0    0  503  502  0.00000000000E+00  0.00000000000E+00  0.11436752428E+03  0.11436752428E+03  0.00000000000E+00 0.  1.
          2   -1    0    0  502    0 -0.00000000000E+00 -0.00000000000E+00 -0.84095466087E+03  0.84095466087E+03  0.00000000000E+00 0. -1.
         24    2    1    2    0    0  0.23227203981E+02 -0.24332005161E+02 -0.29164492675E+03  0.30454292250E+03  0.80981966297E+02 0.  0.
         23    2    1    2    0    0  0.78030486704E+02  0.25893540188E+02 -0.30614104223E+03  0.33064436808E+03  0.94043224775E+02 0.  0.
        -13    1    3    3    0    0 -0.18208532754E+02  0.11413284016E+02 -0.28094528876E+02  0.35371121976E+02  0.00000000000E+00 0.  1.
         14    1    3    3    0    0  0.41435736735E+02 -0.35745289177E+02 -0.26355039788E+03  0.26917180053E+03  0.00000000000E+00 0. -1.
        -11    1    4    4    0    0  0.97210446705E+02  0.74825453182E+01 -0.22373546383E+03  0.24405617634E+03  0.00000000000E+00 0.  1.
         11    1    4    4    0    0 -0.19179960001E+02  0.18410994870E+02 -0.82405578395E+02  0.86588191737E+02  0.00000000000E+00 0. -1.
         21    1    1    2  503  501 -0.32795696879E+02 -0.21558448557E+02  0.85607244173E+02  0.94174968504E+02  0.00000000000E+00 0.  1.
          1    1    1    2  501    0 -0.68461993806E+02  0.19996913529E+02 -0.21440841178E+03  0.22595992607E+03  0.00000000000E+00 0. -1.
<scales pt_clust_5="13000.00000" pt_clust_6="13000.00000" pt_clust_7="13000.00000" pt_clust_8="13000.00000" pt_clust_9="39.24697" pt_clust_10="13000.00000"></scales>
<clustering>
<clus scale="   39.247">  1  9  2 -1</clus>
<clus scale="   80.982">  5  6 -1 -1</clus>
<clus scale="   87.587">  2  5  1 -1</clus>
<clus scale="   94.043">  7  8 -1 -1</clus>
<clus scale="   69.023">  7 10 -1 -1</clus>
<clus scale="   39.247">  1  5  2 -1</clus>
</clustering>
</event>
<event>
10    4  0.2565852E-005  0.1322694E+03  0.7546771E-02  0.1248107E+00
         21   -1    0    0  503  502  0.00000000000E+00  0.00000000000E+00  0.19892875586E+03  0.19892875586E+03  0.00000000000E+00 0. -1.
          2   -1    0    0  502    0 -0.00000000000E+00 -0.00000000000E+00 -0.38351054374E+03  0.38351054374E+03  0.00000000000E+00 0. -1.
         24    2    1    2    0    0 -0.22654587728E+02  0.13524509719E+02 -0.16012167146E+03  0.18069712433E+03  0.79475520520E+02 0.  0.
         23    2    1    2    0    0 -0.27784895217E+02  0.18131530926E+02 -0.12597469695E+03  0.16107416793E+03  0.94733893013E+02 0.  0.
        -11    1    3    3    0    0 -0.29547499635E+02 -0.26789890512E+02 -0.55329078297E+02  0.68206010537E+02  0.00000000000E+00 0.  1.
         12    1    3    3    0    0  0.68929119069E+01  0.40314400230E+02 -0.10479259317E+03  0.11249111380E+03  0.00000000000E+00 0. -1.
        -13    1    4    4    0    0 -0.38387581278E+02  0.38312624159E+02 -0.29091289134E+02  0.61544834631E+02  0.00000000000E+00 0. -1.
         13    1    4    4    0    0  0.10602686061E+02 -0.20181093233E+02 -0.96883407821E+02  0.99529333298E+02  0.00000000000E+00 0.  1.
         21    1    1    2  503  501  0.27020631218E+02 -0.64874522005E+02  0.15692902296E+03  0.17194631826E+03  0.00000000000E+00 0. -1.
          1    1    1    2  501    0  0.23418851727E+02  0.33218481360E+02 -0.55414442422E+02  0.68721689073E+02  0.00000000000E+00 0. -1.
<scales pt_clust_5="13000.00000" pt_clust_6="13000.00000" pt_clust_7="13000.00000" pt_clust_8="13000.00000" pt_clust_9="70.27673" pt_clust_10="13000.00000"></scales>
<clustering>
<clus scale="   70.277">  1  9  2 -1</clus>
<clus scale="   79.476">  5  6 -1 -1</clus>
<clus scale="   81.014">  2  5  1 -1</clus>
<clus scale="   94.734">  7  8 -1 -1</clus>
<clus scale="   31.460">  7 10 -1 -1</clus>
<clus scale="   70.277">  1  5  2 -1</clus>
</clustering>
</event>
<event>
10    4  0.2565852E-005  0.1683146E+03  0.7546771E-02  0.1208026E+00
         21   -1    0    0  503  502  0.00000000000E+00  0.00000000000E+00  0.31827098038E+03  0.31827098038E+03  0.00000000000E+00 0.  1.
          2   -1    0    0  502    0 -0.00000000000E+00 -0.00000000000E+00 -0.87071099722E+02  0.87071099722E+02  0.00000000000E+00 0. -1.
         24    2    1    2    0    0 -0.31243375703E+02 -0.29629679182E+02  0.64636984164E+02  0.11382130762E+03  0.83206273401E+02 0.  0.
         23    2    1    2    0    0 -0.10213674339E+02  0.13284393357E+02  0.83441148882E+02  0.12729292729E+03  0.94658701454E+02 0.  0.
        -11    1    3    3    0    0 -0.56155165578E+02 -0.53119714955E+01  0.26942073010E+02  0.62509958889E+02  0.00000000000E+00 0.  1.
         12    1    3    3    0    0  0.24911789875E+02 -0.24317707687E+02  0.37694911155E+02  0.51311348733E+02  0.00000000000E+00 0. -1.
        -13    1    4    4    0    0 -0.24326592526E+01  0.54230968679E+02  0.43479962370E+02  0.69551584616E+02  0.00000000000E+00 0. -1.
         13    1    4    4    0    0 -0.77810150867E+01 -0.40946575322E+02  0.39961186512E+02  0.57741342674E+02  0.00000000000E+00 0.  1.
         21    1    1    2  503  501  0.68881240296E+01  0.20739610535E+02  0.11496451992E+03  0.11702315386E+03  0.00000000000E+00 0.  1.
          1    1    1    2  501    0  0.34568926013E+02 -0.43943247103E+01 -0.31842772310E+02  0.47204691332E+02  0.00000000000E+00 0. -1.
<scales pt_clust_5="13000.00000" pt_clust_6="13000.00000" pt_clust_7="13000.00000" pt_clust_8="13000.00000" pt_clust_9="21.85355" pt_clust_10="13000.00000"></scales>
<clustering>
<clus scale="   21.854">  1  9  2 -1</clus>
<clus scale="   83.206">  5  6 -1 -1</clus>
<clus scale="   90.212">  2  5  1 -1</clus>
<clus scale="   94.659">  7  8 -1 -1</clus>
<clus scale="   23.749">  7 10 -1 -1</clus>
<clus scale="   21.854">  1  5  2 -1</clus>
</clustering>
</event>
<event>
10    4  0.2565852E-005  0.2220506E+03  0.7546771E-02  0.1168480E+00
         21   -1    0    0  501  502  0.00000000000E+00  0.00000000000E+00  0.15691714190E+03  0.15691714190E+03  0.00000000000E+00 0. -1.
          2   -1    0    0  503    0 -0.00000000000E+00 -0.00000000000E+00 -0.11844724093E+04  0.11844724093E+04  0.00000000000E+00 0. -1.
         24    2    1    2    0    0  0.68538633502E+01 -0.49173126430E+02 -0.52628409677E+03  0.53468399788E+03  0.80293556836E+02 0.  0.
         23    2    1    2    0    0  0.47090783225E+02  0.50834249471E+02 -0.21719969218E+03  0.24506308976E+03  0.89880748190E+02 0.  0.
        -11    1    3    3    0    0  0.37634261104E+02 -0.94557741262E+01 -0.14497474711E+03  0.15007806826E+03  0.00000000000E+00 0.  1.
         12    1    3    3    0    0 -0.30780397754E+02 -0.39717352304E+02 -0.38130934965E+03  0.38460592961E+03  0.00000000000E+00 0. -1.
        -11    1    4    4    0    0 -0.50769731185E+01  0.59963436043E+02 -0.10585415088E+03  0.12176407753E+03  0.00000000000E+00 0.  1.
         11    1    4    4    0    0  0.52167756344E+02 -0.91291865723E+01 -0.11134554129E+03  0.12329901222E+03  0.00000000000E+00 0. -1.
         21    1    1    2  503  502 -0.12799819988E+03 -0.10452361111E+03  0.74543447095E+02  0.18128830618E+03  0.00000000000E+00 0. -1.
          1    1    1    2  501    0  0.74053553309E+02  0.10286248807E+03 -0.35861492556E+03  0.38035415739E+03  0.00000000000E+00 0. -1.
<scales pt_clust_5="13000.00000" pt_clust_6="13000.00000" pt_clust_7="13000.00000" pt_clust_8="13000.00000" pt_clust_9="167.39435" pt_clust_10="13000.00000"></scales>
<clustering>
<clus scale="   80.294">  5  6 -1 -1</clus>
<clus scale="   89.881">  7  8 -1 -1</clus>
<clus scale="   94.404">  2  5  1 -1</clus>
<clus scale="  108.211">  7 10 -1 -1</clus>
<clus scale="  167.394">  1  9  2 -1</clus>
<clus scale="  167.394">  1  5  2 -1</clus>
</clustering>
</event>
<event>
10    4  0.2565852E-005  0.4628746E+03  0.7546771E-02  0.1061414E+00
          2   -1    0    0  503    0 -0.00000000000E+00  0.00000000000E+00  0.17723887652E+04  0.17723887652E+04  0.00000000000E+00 0. -1.
         21   -1    0    0  501  502  0.00000000000E+00 -0.00000000000E+00 -0.59983825828E+02  0.59983825828E+02  0.00000000000E+00 0. -1.
         24    2    1    2    0    0  0.60275908090E+02  0.10766529600E+03  0.48284892613E+03  0.50668464594E+03  0.91439837662E+02 0.  0.
         23    2    1    2    0    0 -0.58528713363E+02  0.14955171167E+03  0.30481706422E+03  0.35638236748E+03  0.91124225427E+02 0.  0.
        -11    1    3    3    0    0  0.64672608866E+02  0.39012915394E+02  0.16483352530E+03  0.18131366459E+03  0.00000000000E+00 0.  1.
         12    1    3    3    0    0 -0.43967007760E+01  0.68652380606E+02  0.31801540083E+03  0.32537098135E+03  0.00000000000E+00 0. -1.
        -11    1    4    4    0    0 -0.94981981834E+00  0.11623429944E+03  0.16855559426E+03  0.20474936601E+03  0.00000000000E+00 0. -1.
         11    1    4    4    0    0 -0.57578893545E+02  0.33317412224E+02  0.13626146996E+03  0.15163300147E+03  0.00000000000E+00 0.  1.
         21    1    1    2  503  502  0.25887032084E+02  0.51742736995E+01  0.97448459575E+02  0.10096095192E+03  0.00000000000E+00 0. -1.
          1    1    1    2  501    0 -0.27634226810E+02 -0.26239128137E+03  0.82729048944E+03  0.86834462568E+03  0.00000000000E+00 0. -1.
<scales pt_clust_5="13000.00000" pt_clust_6="13000.00000" pt_clust_7="13000.00000" pt_clust_8="13000.00000" pt_clust_9="26.39910" pt_clust_10="13000.00000"></scales>
<clustering>
<clus scale="   26.399">  2  9  1 -1</clus>
<clus scale="   91.124">  7  8 -1 -1</clus>
<clus scale="   91.440">  5  6 -1 -1</clus>
<clus scale="  156.468">  1  5  2 -1</clus>
<clus scale="  187.478">  7 10 -1 -1</clus>
<clus scale="   26.399">  2  5  1 -1</clus>
</clustering>
</event>
<event>
10    4  0.2565852E-005  0.7952317E+03  0.7546771E-02  0.1009446E+00
         21   -1    0    0  501  502  0.00000000000E+00  0.00000000000E+00  0.93065778912E+03  0.93065778912E+03  0.00000000000E+00 0. -1.
          2   -1    0    0  503    0 -0.00000000000E+00 -0.00000000000E+00 -0.34067276093E+03  0.34067276093E+03  0.00000000000E+00 0. -1.
         24    2    1    2    0    0 -0.11860363955E+03 -0.16029916615E+02 -0.11463723949E+03  0.18311586848E+03  0.77884164436E+02 0.  0.
         23    2    1    2    0    0 -0.20266323533E+03  0.25129986149E+03  0.11643857243E+03  0.35471238611E+03  0.89660071225E+02 0.  0.
        -13    1    3    3    0    0 -0.52245572300E+02 -0.24940659874E+02 -0.97913310047E+01  0.58715470727E+02  0.00000000000E+00 0.  1.
         14    1    3    3    0    0 -0.66358067254E+02  0.89107432590E+01 -0.10484590849E+03  0.12440039776E+03  0.00000000000E+00 0. -1.
        -13    1    4    4    0    0 -0.17824349113E+03  0.25419318895E+03  0.10729887894E+03  0.32847826239E+03  0.00000000000E+00 0. -1.
         13    1    4    4    0    0 -0.24419744199E+02 -0.28933274593E+01  0.91396934884E+01  0.26234123724E+02  0.00000000000E+00 0.  1.
         21    1    1    2  503  502  0.23184910735E+02  0.15039451703E+02 -0.65351812456E+00  0.27643304420E+02  0.00000000000E+00 0. -1.
          1    1    1    2  501    0  0.29808196415E+03 -0.25030939658E+03  0.58883721338E+03  0.70585899104E+03  0.00000000000E+00 0. -1.
<scales pt_clust_5="13000.00000" pt_clust_6="13000.00000" pt_clust_7="13000.00000" pt_clust_8="13000.00000" pt_clust_9="27.63559" pt_clust_10="13000.00000"></scales>
<clustering>
<clus scale="   27.636">  1  9  2 -1</clus>
<clus scale="   77.884">  5  6 -1 -1</clus>
<clus scale="   89.660">  7  8 -1 -1</clus>
<clus scale="  142.012">  2  5  1 -1</clus>
<clus scale="  366.325">  7 10 -1 -1</clus>
<clus scale="   27.636">  1  5  2 -1</clus>
</clustering>
</event>
<event>
10    4  0.2565852E-005  0.3202865E+03  0.7546771E-02  0.1122568E+00
         21   -1    0    0  503  502  0.00000000000E+00  0.00000000000E+00  0.14366142058E+03  0.14366142058E+03  0.00000000000E+00 0. -1.
          2   -1    0    0  502    0 -0.00000000000E+00 -0.00000000000E+00 -0.47272306692E+03  0.47272306692E+03  0.00000000000E+00 0. -1.
         24    2    1    2    0    0  0.53674475099E+02  0.60724074470E+02 -0.10858024608E+03  0.14811112599E+03  0.59823685154E+02 0.  0.
         23    2    1    2    0    0  0.12811102454E+03  0.45023500140E+02 -0.14235087172E+03  0.21652872495E+03  0.90450914194E+02 0.  0.
        -13    1    3    3    0    0  0.23116828651E+02  0.76014805586E+00 -0.62241075178E+02  0.66399676440E+02  0.00000000000E+00 0.  1.
         14    1    3    3    0    0  0.30557646447E+02  0.59963926414E+02 -0.46339170899E+02  0.81711449547E+02  0.00000000000E+00 0. -1.
        -11    1    4    4    0    0  0.47526176712E+02 -0.19100602300E+02 -0.16289093500E+02  0.53748535311E+02  0.00000000000E+00 0.  1.
         11    1    4    4    0    0  0.80584847826E+02  0.64124102440E+02 -0.12606177821E+03  0.16278018964E+03  0.00000000000E+00 0. -1.
         21    1    1    2  503  501 -0.72923456934E+02  0.25169097195E+01  0.11646649478E+02  0.73890526117E+02  0.00000000000E+00 0.  1.
          1    1    1    2  501    0 -0.10886204270E+03 -0.10826448433E+03 -0.89777178024E+02  0.17785411045E+03  0.00000000000E+00 0. -1.
<scales pt_clust_5="13000.00000" pt_clust_6="13000.00000" pt_clust_7="13000.00000" pt_clust_8="13000.00000" pt_clust_9="72.96688" pt_clust_10="13000.00000"></scales>
<clustering>
<clus scale="   59.824">  5  6 -1 -1</clus>
<clus scale="   72.967">  1  9  2 -1</clus>
<clus scale="   90.451">  7  8 -1 -1</clus>
<clus scale="   94.222">  2  5  1 -1</clus>
<clus scale="  140.328">  7 10 -1 -1</clus>
<clus scale="   72.967">  1  5  2 -1</clus>
</clustering>
</event>
<event>
10    4  0.2565852E-005  0.5007673E+03  0.7546771E-02  0.1032004E+00
          2   -1    0    0  503    0 -0.00000000000E+00  0.00000000000E+00  0.12729338969E+04  0.12729338969E+04  0.00000000000E+00 0. -1.
         21   -1    0    0  501  502  0.00000000000E+00 -0.00000000000E+00 -0.16340905151E+03  0.16340905151E+03  0.00000000000E+00 0. -1.
         24    2    1    2    0    0 -0.26984318577E+03  0.74433786903E+02  0.56444717674E+03  0.63518549329E+03  0.80649005037E+02 0.  0.
         23    2    1    2    0    0  0.10090431351E+03  0.12970523569E+03  0.11585386750E+03  0.22088905307E+03  0.91458878733E+02 0.  0.
        -13    1    3    3    0    0 -0.77630627932E+02 -0.14486233989E+02  0.13639062598E+03  0.15760319865E+03  0.00000000000E+00 0.  1.
         14    1    3    3    0    0 -0.19221255784E+03  0.88920020892E+02  0.42805655076E+03  0.47758229464E+03  0.00000000000E+00 0. -1.
        -13    1    4    4    0    0  0.59417831980E+02  0.94673183672E+02  0.24208848013E+02  0.11436589870E+03  0.00000000000E+00 0. -1.
         13    1    4    4    0    0  0.41486481533E+02  0.35032052013E+02  0.91645019490E+02  0.10652315436E+03  0.00000000000E+00 0.  1.
         21    1    1    2  503  502  0.28455070358E+02  0.44625503332E+02 -0.12337435114E+02  0.54344630663E+02  0.00000000000E+00 0. -1.
          1    1    1    2  501    0  0.14048380190E+03 -0.24876452592E+03  0.44156123627E+03  0.52592377141E+03  0.00000000000E+00 0. -1.
<scales pt_clust_5="13000.00000" pt_clust_6="13000.00000" pt_clust_7="13000.00000" pt_clust_8="13000.00000" pt_clust_9="52.92567" pt_clust_10="13000.00000"></scales>
<clustering>
<clus scale="   52.926">  2  9  1 -1</clus>
<clus scale="   80.649">  5  6 -1 -1</clus>
<clus scale="   91.459">  7  8 -1 -1</clus>
<clus scale="  278.041">  7 10 -1 -1</clus>
<clus scale="  287.572">  1  5  2 -1</clus>
<clus scale="   52.926">  2  5  1 -1</clus>
</clustering>
</event>
<event>
10    4  0.2565852E-005  0.5539049E+03  0.7546771E-02  0.1040105E+00
         21   -1    0    0  503  502  0.00000000000E+00  0.00000000000E+00  0.18989585051E+03  0.18989585051E+03  0.00000000000E+00 0. -1.
          2   -1    0    0  502    0 -0.00000000000E+00 -0.00000000000E+00 -0.14744442325E+04  0.14744442325E+04  0.00000000000E+00 0. -1.
         24    2    1    2    0    0 -0.13013471571E+03  0.81232824957E+02 -0.68265619966E+03  0.70422403227E+03  0.79863537428E+02 0.  0.
         23    2    1    2    0    0 -0.10931020002E+03  0.15927633123E+03 -0.13397933422E+03  0.25227652243E+03  0.91516732101E+02 0.  0.
        -11    1    3    3    0    0 -0.65283099386E+02  0.54736324206E+02 -0.21356212804E+03  0.22992766425E+03  0.00000000000E+00 0.  1.
         12    1    3    3    0    0 -0.64851616324E+02  0.26496500751E+02 -0.46909407162E+03  0.47429636803E+03  0.00000000000E+00 0. -1.
        -11    1    4    4    0    0 -0.35982252589E+01  0.23210085288E+02 -0.60608699465E+02  0.65000536420E+02  0.00000000000E+00 0.  1.
         11    1    4    4    0    0 -0.10571197476E+03  0.13606624594E+03 -0.73370634751E+02  0.18727598601E+03  0.00000000000E+00 0. -1.
         21    1    1    2  503  501  0.68875579112E+02 -0.44650679476E+01  0.68644666333E+02  0.97344093019E+02  0.00000000000E+00 0. -1.
          1    1    1    2  501    0  0.17056933662E+03 -0.23604408824E+03 -0.53655751443E+03  0.61049543527E+03  0.00000000000E+00 0. -1.
<scales pt_clust_5="13000.00000" pt_clust_6="13000.00000" pt_clust_7="13000.00000" pt_clust_8="13000.00000" pt_clust_9="69.02016" pt_clust_10="13000.00000"></scales>
<clustering>
<clus scale="   69.020">  1  9  2 -1</clus>
<clus scale="   79.864">  5  6 -1 -1</clus>
<clus scale="   91.517">  7  8 -1 -1</clus>
<clus scale="  167.568">  2  5  1 -1</clus>
<clus scale="  200.042">  7 10 -1 -1</clus>
<clus scale="   69.020">  1  5  2 -1</clus>
</clustering>
</event>
<event>
10    4  0.2565852E-005  0.1527410E+03  0.7546771E-02  0.1212425E+00
         21   -1    0    0  503  502  0.00000000000E+00  0.00000000000E+00  0.37759724243E+03  0.37759724243E+03  0.00000000000E+00 0.  1.
         -3   -1    0    0    0  501 -0.00000000000E+00 -0.00000000000E+00 -0.10150512584E+03  0.10150512584E+03  0.00000000000E+00 0.  1.
         24    2    1    2    0    0 -0.47584927774E+02 -0.19825310150E+02  0.57492265314E+02  0.11134998341E+03  0.80225245154E+02 0.  0.
         23    2    1    2    0    0  0.46873740562E+02  0.51006093642E+02  0.48850984810E+02  0.12172065498E+03  0.87354049649E+02 0.  0.
        -11    1    3    3    0    0 -0.67302885970E+02 -0.94801816190E+01  0.57586362304E+02  0.89082778509E+02  0.00000000000E+00 0.  1.
         12    1    3    3    0    0  0.19717958196E+02 -0.10345128531E+02 -0.94096990068E-01  0.22267204898E+02  0.00000000000E+00 0. -1.
        -11    1    4    4    0    0 -0.22042923596E+02 -0.35463489274E+01  0.28250028249E+01  0.22504393179E+02  0.00000000000E+00 0. -1.
         11    1    4    4    0    0  0.68916664158E+02  0.54552442570E+02  0.46025981985E+02  0.99216261806E+02  0.00000000000E+00 0.  1.
         21    1    1    2  503  501 -0.43615591151E+02 -0.28117056116E+02  0.19017577941E+03  0.19712867805E+03  0.00000000000E+00 0.  1.
         -4    1    1    2    0  502  0.44326778363E+02 -0.30637273760E+01 -0.20426912939E+02  0.48903051824E+02  0.00000000000E+00 0.  1.
<scales pt_clust_5="13000.00000" pt_clust_6="13000.00000" pt_clust_7="13000.00000" pt_clust_8="13000.00000" pt_clust_9="51.89305" pt_clust_10="13000.00000"></scales>
<clustering>
<clus scale="   51.893">  1  9  2 -1</clus>
<clus scale="   80.225">  5  6 -1 -1</clus>
<clus scale="   87.354">  7  8 -1 -1</clus>
<clus scale="   41.285">  7 10 -1 -1</clus>
<clus scale="  109.897">  2  5  1 -1</clus>
<clus scale="   51.893">  1  5  2 -1</clus>
</clustering>
</event>
<event>
10    4  0.2565852E-005  0.1676936E+03  0.7546771E-02  0.1197928E+00
         21   -1    0    0  503  502  0.00000000000E+00  0.00000000000E+00  0.14146600910E+03  0.14146600910E+03  0.00000000000E+00 0. -1.
         -1   -1    0    0    0  501 -0.00000000000E+00 -0.00000000000E+00 -0.21867857481E+03  0.21867857481E+03  0.00000000000E+00 0.  1.
         24    2    1    2    0    0 -0.22521418270E+02  0.90045217153E+02 -0.77809923650E+02  0.14465305493E+03  0.79087082816E+02 0.  0.
         23    2    1    2    0    0 -0.32692238279E+02 -0.11566226084E+02 -0.38644328890E+02  0.10545325919E+03  0.91784779177E+02 0.  0.
        -13    1    3    3    0    0 -0.24928008957E+02  0.26911991061E+02 -0.72498871574E+02  0.81251137056E+02  0.00000000000E+00 0.  1.
         14    1    3    3    0    0  0.24065906869E+01  0.63133226092E+02 -0.53110520753E+01  0.63401917871E+02  0.00000000000E+00 0. -1.
        -11    1    4    4    0    0  0.21342921372E+02 -0.35785854088E+01 -0.45517586109E+02  0.50400170748E+02  0.00000000000E+00 0.  1.
         11    1    4    4    0    0 -0.54035159651E+02 -0.79876406754E+01  0.68732572189E+01  0.55053088441E+02  0.00000000000E+00 0. -1.
         21    1    1    2  503  501  0.27581531179E+02 -0.28492626956E+02  0.34783620865E+02  0.52749132064E+02  0.00000000000E+00 0. -1.
         -2    1    1    2    0  502  0.27632125370E+02 -0.49986364113E+02  0.44580659620E+01  0.57289137730E+02  0.00000000000E+00 0.  1.
<scales pt_clust_5="13000.00000" pt_clust_6="13000.00000" pt_clust_7="13000.00000" pt_clust_8="13000.00000" pt_clust_9="39.65565" pt_clust_10="13000.00000"></scales>
<clustering>
<clus scale="   39.656">  1  9  2 -1</clus>
<clus scale="   79.087">  5  6 -1 -1</clus>
<clus scale="   91.785">  7  8 -1 -1</clus>
<clus scale="   69.289">  7 10 -1 -1</clus>
<clus scale="  113.463">  2  5  1 -1</clus>
<clus scale="   39.656">  1  5  2 -1</clus>
</clustering>
</event>
<event>
10    4  0.2565852E-005  0.3594906E+03  0.7546771E-02  0.1062088E+00
          2   -1    0    0  503    0 -0.00000000000E+00  0.00000000000E+00  0.26435601796E+04  0.26435601796E+04  0.00000000000E+00 0. -1.
         21   -1    0    0  501  502  0.00000000000E+00 -0.00000000000E+00 -0.72982695022E+02  0.72982695022E+02  0.00000000000E+00 0. -1.
         24    2    1    2    0    0 -0.26308635707E+03  0.19415808416E+03  0.17883552890E+04  0.18196241983E+04  0.76849139727E+02 0.  0.
         23    2    1    2    0    0  0.13551003192E+03 -0.45717248157E+02  0.33364504853E+03  0.37344508333E+03  0.87687948572E+02 0.  0.
        -13    1    3    3    0    0 -0.25218146129E+02  0.54238554944E+02  0.33590259779E+03  0.34118665117E+03  0.00000000000E+00 0.  1.
         14    1    3    3    0    0 -0.23786821094E+03  0.13991952922E+03  0.14524526912E+04  0.14784375471E+04  0.00000000000E+00 0. -1.
        -11    1    4    4    0    0  0.21897960380E+02 -0.39404859900E+02  0.47406190746E+02  0.65418732589E+02  0.00000000000E+00 0. -1.
         11    1    4    4    0    0  0.11361207154E+03 -0.63123882571E+01  0.28623885779E+03  0.30802635074E+03  0.00000000000E+00 0.  1.
         21    1    1    2  503  502  0.27656499763E+02 -0.83787233024E+01 -0.12392326142E+02  0.31442880443E+02  0.00000000000E+00 0.  1.
          1    1    1    2  501    0  0.99919825389E+02 -0.14006211270E+03  0.46096947322E+03  0.49203071262E+03  0.00000000000E+00 0. -1.
<scales pt_clust_5="13000.00000" pt_clust_6="13000.00000" pt_clust_7="13000.00000" pt_clust_8="13000.00000" pt_clust_9="28.89784" pt_clust_10="13000.00000"></scales>
<clustering>
<clus scale="   28.898">  2  9  1 -1</clus>
<clus scale="   76.849">  5  6 -1 -1</clus>
<clus scale="   87.688">  7  8 -1 -1</clus>
<clus scale="  179.090">  7 10 -1 -1</clus>
<clus scale="  327.787">  1  5  2 -1</clus>
<clus scale="   28.898">  2  5  1 -1</clus>
</clustering>
</event>
<event>
10    4  0.2565852E-005  0.1854652E+03  0.7546771E-02  0.1185351E+00
         21   -1    0    0  501  502  0.00000000000E+00  0.00000000000E+00  0.96124145449E+02  0.96124145449E+02  0.00000000000E+00 0. -1.
          2   -1    0    0  503    0 -0.00000000000E+00 -0.00000000000E+00 -0.48463143198E+03  0.48463143198E+03  0.00000000000E+00 0. -1.
         24    2    1    2    0    0 -0.58311105167E+02  0.23991552622E+02 -0.10265559669E+03  0.15259053334E+03  0.93647849687E+02 0.  0.
         23    2    1    2    0    0  0.84462738553E+02  0.10825088970E+02 -0.32273564447E+03  0.34652242013E+03  0.93103999291E+02 0.  0.
        -11    1    3    3    0    0 -0.70506640765E+02  0.16977641038E+02 -0.11359375652E+03  0.13477005679E+03  0.00000000000E+00 0.  1.
         12    1    3    3    0    0  0.12195535597E+02  0.70139115847E+01  0.10938159827E+02  0.17820476554E+02  0.00000000000E+00 0. -1.
        -11    1    4    4    0    0  0.86044686439E+02  0.39263676199E+02 -0.27638541360E+03  0.29212021700E+03  0.00000000000E+00 0. -1.
         11    1    4    4    0    0 -0.15819478856E+01 -0.28438587229E+02 -0.46350230874E+02  0.54402203124E+02  0.00000000000E+00 0.  1.
         21    1    1    2  503  502  0.17816009158E+01 -0.20832057355E+02  0.44781027170E+02  0.49421544996E+02  0.00000000000E+00 0. -1.
          1    1    1    2  501    0 -0.27933234302E+02 -0.13984584237E+02 -0.78970725422E+01  0.32221078964E+02  0.00000000000E+00 0. -1.
<scales pt_clust_5="13000.00000" pt_clust_6="13000.00000" pt_clust_7="13000.00000" pt_clust_8="13000.00000" pt_clust_9="20.90810" pt_clust_10="13000.00000"></scales>
<clustering>
<clus scale="   20.908">  1  9  2 -1</clus>
<clus scale="   93.104">  7  8 -1 -1</clus>
<clus scale="   33.505">  7 10 -1 -1</clus>
<clus scale="   93.648">  5  6 -1 -1</clus>
<clus scale="  110.653">  2  5  1 -1</clus>
<clus scale="   20.908">  1  5  2 -1</clus>
</clustering>
</event>
<event>
10    4  0.2565852E-005  0.1913716E+03  0.7546771E-02  0.1194277E+00
          2   -1    0    0  503    0 -0.00000000000E+00  0.00000000000E+00  0.59201338515E+03  0.59201338515E+03  0.00000000000E+00 0. -1.
         21   -1    0    0  501  502  0.00000000000E+00 -0.00000000000E+00 -0.15919241267E+03  0.15919241267E+03  0.00000000000E+00 0. -1.
         24    2    1    2    0    0 -0.14810795162E+02  0.16413747055E+02  0.50789834067E+03  0.51458176782E+03  0.79654884192E+02 0.  0.
         23    2    1    2    0    0 -0.38788903627E+02 -0.43916191379E+01  0.16072972645E+02  0.10028542567E+03  0.90966811465E+02 0.  0.
        -11    1    3    3    0    0 -0.35142954322E+02  0.32616713284E+02  0.20336522212E+03  0.20894087870E+03  0.00000000000E+00 0.  1.
         12    1    3    3    0    0  0.20332159160E+02 -0.16202966229E+02  0.30453311855E+03  0.30564088912E+03  0.00000000000E+00 0. -1.
        -11    1    4    4    0    0 -0.53264595306E+02 -0.35665914581E+02  0.14856992148E+02  0.65802012064E+02  0.00000000000E+00 0.  1.
         11    1    4    4    0    0  0.14475691679E+02  0.31274295443E+02  0.12159804971E+01  0.34483413601E+02  0.00000000000E+00 0. -1.
         21    1    1    2  503  502  0.16424093151E+02  0.19076631613E+02  0.76336794303E+01  0.26304786088E+02  0.00000000000E+00 0. -1.
          1    1    1    2  501    0  0.37175605639E+02 -0.31098759530E+02 -0.98784020259E+02  0.11003381824E+03  0.00000000000E+00 0. -1.
<scales pt_clust_5="13000.00000" pt_clust_6="13000.00000" pt_clust_7="13000.00000" pt_clust_8="13000.00000" pt_clust_9="25.17278" pt_clust_10="13000.00000"></scales>
<clustering>
<clus scale="   25.173">  2  9  1 -1</clus>
<clus scale="   79.655">  5  6 -1 -1</clus>
<clus scale="   82.687">  1  5  2 -1</clus>
<clus scale="   90.967">  7  8 -1 -1</clus>
<clus scale="   47.419">  7 10 -1 -1</clus>
<clus scale="   25.173">  2  5  1 -1</clus>
</clustering>
</event>
<event>
10    4  0.2565852E-005  0.5072174E+03  0.7546771E-02  0.1070312E+00
         21   -1    0    0  503  502  0.00000000000E+00  0.00000000000E+00  0.36578946798E+03  0.36578946798E+03  0.00000000000E+00 0.  1.
          2   -1    0    0  502    0 -0.00000000000E+00 -0.00000000000E+00 -0.41148869672E+03  0.41148869672E+03  0.00000000000E+00 0. -1.
         24    2    1    2    0    0  0.75655483197E+01  0.40285679539E+02 -0.45938561444E+02  0.10131612801E+03  0.80463860640E+02 0.  0.
         23    2    1    2    0    0 -0.18618810576E+03 -0.20254530236E+03  0.42937462279E+01  0.28904791304E+03  0.88541795454E+02 0.  0.
        -13    1    3    3    0    0 -0.11646593693E+02  0.57594850018E+02 -0.14340200435E+02  0.60485132403E+02  0.00000000000E+00 0.  1.
         14    1    3    3    0    0  0.19212142013E+02 -0.17309170479E+02 -0.31598361009E+02  0.40830995602E+02  0.00000000000E+00 0. -1.
        -11    1    4    4    0    0 -0.12608809046E+03 -0.76877203683E+02 -0.14923976430E+02  0.14842855546E+03  0.00000000000E+00 0.  1.
         11    1    4    4    0    0 -0.60100015301E+02 -0.12566809867E+03  0.19217722657E+02  0.14061935758E+03  0.00000000000E+00 0. -1.
         21    1    1    2  503  501  0.24984380335E+02  0.40784631987E+02  0.13728768443E+03  0.14538058248E+03  0.00000000000E+00 0.  1.
          1    1    1    2  501    0  0.15363817711E+03  0.12147499083E+03 -0.14134209794E+03  0.24153354118E+03  0.00000000000E+00 0. -1.
<scales pt_clust_5="13000.00000" pt_clust_6="13000.00000" pt_clust_7="13000.00000" pt_clust_8="13000.00000" pt_clust_9="47.82892" pt_clust_10="13000.00000"></scales>
<clustering>
<clus scale="   47.829">  1  9  2 -1</clus>
<clus scale="   80.464">  5  6 -1 -1</clus>
<clus scale="   88.542">  7  8 -1 -1</clus>
<clus scale="   92.959">  2  5  1 -1</clus>
<clus scale="  230.352">  7 10 -1 -1</clus>
<clus scale="   47.829">  1  5  2 -1</clus>
</clustering>
</event>
<event>
10    4  0.2565852E-005  0.1278784E+04  0.7546771E-02  0.9349209E-01
         21   -1    0    0  503  502  0.00000000000E+00  0.00000000000E+00  0.19494565578E+04  0.19494565578E+04  0.00000000000E+00 0. -1.
          2   -1    0    0  502    0 -0.00000000000E+00 -0.00000000000E+00 -0.89145162612E+03  0.89145162612E+03  0.00000000000E+00 0. -1.
         24    2    1    2    0    0 -0.31059695023E+03  0.27583382590E+03 -0.51060545656E+03  0.66439491011E+03  0.90265715017E+02 0.  0.
         23    2    1    2    0    0 -0.37425694826E+03  0.25199578617E+03  0.86493459499E+03  0.97980728302E+03  0.91325345158E+02 0.  0.
        -11    1    3    3    0    0 -0.14483169788E+03  0.17449563231E+03 -0.22910677274E+03  0.32235827851E+03  0.00000000000E+00 0.  1.
         12    1    3    3    0    0 -0.16576525236E+03  0.10133819359E+03 -0.28149868382E+03  0.34203663161E+03  0.00000000000E+00 0. -1.
        -11    1    4    4    0    0 -0.22398720801E+03  0.19946197664E+03  0.53034284193E+03  0.60927734199E+03  0.00000000000E+00 0. -1.
         11    1    4    4    0    0 -0.15026974025E+03  0.52533809529E+02  0.33459175306E+03  0.37052994103E+03  0.00000000000E+00 0.  1.
         21    1    1    2  503  501  0.14695173563E+03 -0.20178346335E+03  0.45764735419E+03  0.52129883894E+03  0.00000000000E+00 0. -1.
          1    1    1    2  501    0  0.53790216287E+03 -0.32604614872E+03  0.24602843901E+03  0.67540715181E+03  0.00000000000E+00 0. -1.
<scales pt_clust_5="13000.00000" pt_clust_6="13000.00000" pt_clust_7="13000.00000" pt_clust_8="13000.00000" pt_clust_9="249.62247" pt_clust_10="13000.00000"></scales>
<clustering>
<clus scale="   90.266">  5  6 -1 -1</clus>
<clus scale="   91.325">  7  8 -1 -1</clus>
<clus scale="  249.622">  1  9  2 -1</clus>
<clus scale="  412.559">  2  5  1 -1</clus>
<clus scale="  378.447">  7 10 -1 -1</clus>
<clus scale="  249.622">  1  5  2 -1</clus>
</clustering>
</event>
<event>
10    4  0.2565852E-005  0.2528687E+03  0.7546771E-02  0.1154520E+00
          2   -1    0    0  502    0 -0.00000000000E+00  0.00000000000E+00  0.12619082601E+04  0.12619082601E+04  0.00000000000E+00 0. -1.
         21   -1    0    0  503  502  0.00000000000E+00 -0.00000000000E+00 -0.11153732408E+03  0.11153732408E+03  0.00000000000E+00 0. -1.
         24    2    1    2    0    0 -0.27741337693E+02  0.34643655560E+02  0.39902289204E+03  0.40952474353E+03  0.80755696458E+02 0.  0.
         23    2    1    2    0    0 -0.11406898204E+03  0.27509421541E+02  0.44722292888E+03  0.47074743494E+03  0.88466369020E+02 0.  0.
        -11    1    3    3    0    0 -0.31831118481E+02  0.58863566998E+02  0.26872597567E+03  0.27693282511E+03  0.00000000000E+00 0.  1.
         12    1    3    3    0    0  0.40897807882E+01 -0.24219911438E+02  0.13029691637E+03  0.13259191842E+03  0.00000000000E+00 0. -1.
        -11    1    4    4    0    0 -0.49883624344E+02  0.57734522079E+01  0.62855488228E+02  0.80451980264E+02  0.00000000000E+00 0.  1.
         11    1    4    4    0    0 -0.64185357694E+02  0.21735969333E+02  0.38436744065E+03  0.39029545468E+03  0.00000000000E+00 0. -1.
         21    1    1    2  503  501  0.49848625259E+02 -0.13120774583E+02 -0.79996308887E+02  0.95165380267E+02  0.00000000000E+00 0. -1.
          1    1    1    2  501    0  0.91961694472E+02 -0.49032302518E+02  0.38412142396E+03  0.39800802540E+03  0.00000000000E+00 0. -1.
<scales pt_clust_5="13000.00000" pt_clust_6="13000.00000" pt_clust_7="13000.00000" pt_clust_8="13000.00000" pt_clust_9="51.54649" pt_clust_10="13000.00000"></scales>
<clustering>
<clus scale="   51.546">  2  9  1 -1</clus>
<clus scale="   80.756">  5  6 -1 -1</clus>
<clus scale="   88.394">  1  5  2 -1</clus>
<clus scale="   88.466">  7  8 -1 -1</clus>
<clus scale="  102.463">  7 10 -1 -1</clus>
<clus scale="   51.546">  2  5  1 -1</clus>
</clustering>
</event>
<event>
10    4  0.2565852E-005  0.3159797E+03  0.7546771E-02  0.1129762E+00
          2   -1    0    0  502    0 -0.00000000000E+00  0.00000000000E+00  0.94897701218E+03  0.94897701218E+03  0.00000000000E+00 0. -1.
         21   -1    0    0  503  502  0.00000000000E+00 -0.00000000000E+00 -0.75456492451E+02  0.75456492451E+02  0.00000000000E+00 0. -1.
         24    2    1    2    0    0  0.10032730584E+02 -0.34335896947E+01  0.26694154068E+03  0.27945003399E+03  0.81988353666E+02 0.  0.
         23    2    1    2    0    0  0.96801507615E+02 -0.10082038036E+03  0.49370400095E+03  0.52098087744E+03  0.90233880201E+02 0.  0.
        -13    1    3    3    0    0 -0.50723824028E+01  0.31949723482E+02  0.53122661961E+02  0.62197516892E+02  0.00000000000E+00 0.  1.
         14    1    3    3    0    0  0.15105112986E+02 -0.35383313176E+02  0.21381887872E+03  0.21725251710E+03  0.00000000000E+00 0. -1.
        -11    1    4    4    0    0  0.31557581707E+02  0.53492203398E+01  0.19045984575E+03  0.19313064998E+03  0.00000000000E+00 0.  1.
         11    1    4    4    0    0  0.65243925908E+02 -0.10616960070E+03  0.30324415520E+03  0.32785022746E+03  0.00000000000E+00 0. -1.
         21    1    1    2  503  501 -0.51901113195E+02 -0.40699395679E+01 -0.79722678837E+01  0.52667323970E+02  0.00000000000E+00 0. -1.
          1    1    1    2  501    0 -0.54933125003E+02  0.10832390962E+03  0.12084724599E+03  0.17133526923E+03  0.00000000000E+00 0. -1.
<scales pt_clust_5="13000.00000" pt_clust_6="13000.00000" pt_clust_7="13000.00000" pt_clust_8="13000.00000" pt_clust_9="52.06045" pt_clust_10="13000.00000"></scales>
<clustering>
<clus scale="   52.060">  2  9  1 -1</clus>
<clus scale="   81.988">  5  6 -1 -1</clus>
<clus scale="   82.135">  1  5  2 -1</clus>
<clus scale="   90.234">  7  8 -1 -1</clus>
<clus scale="  133.796">  7 10 -1 -1</clus>
<clus scale="   52.060">  2  5  1 -1</clus>
</clustering>
</event>
<event>
10    4  0.2565852E-005  0.3258174E+03  0.7546771E-02  0.1097334E+00
         21   -1    0    0  501  502  0.00000000000E+00  0.00000000000E+00  0.22442868601E+03  0.22442868601E+03  0.00000000000E+00 0. -1.
          2   -1    0    0  503    0 -0.00000000000E+00 -0.00000000000E+00 -0.18388505144E+04  0.18388505144E+04  0.00000000000E+00 0. -1.
         24    2    1    2    0    0  0.32872186352E+02 -0.14664202165E+03 -0.12173372383E+04  0.12291824529E+04  0.79969291519E+02 0.  0.
         23    2    1    2    0    0 -0.63612119240E+02 -0.21783319308E+02 -0.48992049071E+01  0.11202604715E+03  0.89469650262E+02 0.  0.
        -13    1    3    3    0    0 -0.12847711768E+02 -0.37707430838E+02 -0.14552430966E+03  0.15087822487E+03  0.00000000000E+00 0.  1.
         14    1    3    3    0    0  0.45719898119E+02 -0.10893459081E+03 -0.10718129287E+04  0.10783042280E+04  0.00000000000E+00 0. -1.
        -13    1    4    4    0    0 -0.51907328681E+02  0.22947989042E+02 -0.24486768350E+02  0.61810863092E+02  0.00000000000E+00 0. -1.
         13    1    4    4    0    0 -0.11704790559E+02 -0.44731308351E+02  0.19587563443E+02  0.50215184062E+02  0.00000000000E+00 0.  1.
         21    1    1    2  503  502  0.22383198643E+03  0.49688599757E+02 -0.43468060329E+03  0.49144373226E+03  0.00000000000E+00 0. -1.
          1    1    1    2  501    0 -0.19309205354E+03  0.11873674120E+03  0.42495218131E+02  0.23062696810E+03  0.00000000000E+00 0. -1.
<scales pt_clust_5="13000.00000" pt_clust_6="13000.00000" pt_clust_7="13000.00000" pt_clust_8="13000.00000" pt_clust_9="255.84455" pt_clust_10="13000.00000"></scales>
<clustering>
<clus scale="   79.969">  5  6 -1 -1</clus>
<clus scale="   89.470">  7  8 -1 -1</clus>
<clus scale="  170.234">  2  5  1 -1</clus>
<clus scale="  211.304">  7 10 -1 -1</clus>
<clus scale="  255.845">  1  9  2 -1</clus>
<clus scale="  255.845">  1  5  2 -1</clus>
</clustering>
</event>
<event>
10    4  0.2565852E-005  0.3243384E+03  0.7546771E-02  0.1084316E+00
          2   -1    0    0  502    0 -0.00000000000E+00  0.00000000000E+00  0.11849751316E+04  0.11849751316E+04  0.00000000000E+00 0. -1.
         21   -1    0    0  503  502  0.00000000000E+00 -0.00000000000E+00 -0.10256814593E+03  0.10256814593E+03  0.00000000000E+00 0. -1.
         24    2    1    2    0    0  0.82399830386E+02  0.20489115236E+03  0.57517326778E+03  0.62126426470E+03  0.79842859789E+02 0.  0.
         23    2    1    2    0    0 -0.14721120100E+03 -0.18262836494E+03  0.28203275401E+03  0.37799647427E+03  0.91184444085E+02 0.  0.
        -13    1    3    3    0    0 -0.12735130672E+02  0.31024782160E+02  0.52730154085E+02  0.62491517913E+02  0.00000000000E+00 0.  1.
         14    1    3    3    0    0  0.95134961057E+02  0.17386637020E+03  0.52244311370E+03  0.55877274679E+03  0.00000000000E+00 0. -1.
        -13    1    4    4    0    0 -0.10361422824E+03 -0.58459942171E+02  0.15163093092E+03  0.19273145136E+03  0.00000000000E+00 0.  1.
         13    1    4    4    0    0 -0.43596972761E+02 -0.12416842277E+03  0.13040182309E+03  0.18526502291E+03  0.00000000000E+00 0. -1.
         21    1    1    2  503  501  0.36976005351E+02  0.15467122938E+02 -0.15562698696E+02  0.42995981840E+02  0.00000000000E+00 0.  1.
          1    1    1    2  501    0  0.27835365263E+02 -0.37729910353E+02  0.24076366259E+03  0.24528655674E+03  0.00000000000E+00 0. -1.
<scales pt_clust_5="13000.00000" pt_clust_6="13000.00000" pt_clust_7="13000.00000" pt_clust_8="13000.00000" pt_clust_9="40.08063" pt_clust_10="13000.00000"></scales>
<clustering>
<clus scale="   40.081">  2  9  1 -1</clus>
<clus scale="   79.843">  5  6 -1 -1</clus>
<clus scale="   91.184">  7  8 -1 -1</clus>
<clus scale="   47.195">  7 10 -1 -1</clus>
<clus scale="  243.337">  1  5  2 -1</clus>
<clus scale="   40.081">  2  5  1 -1</clus>
</clustering>
</event>
<event>
10    4  0.2565852E-005  0.2123009E+03  0.7546771E-02  0.1180121E+00
         -3   -1    0    0    0  501 -0.00000000000E+00  0.00000000000E+00  0.23718666369E+03  0.23718666369E+03  0.00000000000E+00 0.  1.
         21   -1    0    0  501  502  0.00000000000E+00 -0.00000000000E+00 -0.21647586119E+03  0.21647586119E+03  0.00000000000E+00 0.  1.
         24    2    1    2    0    0  0.15400468817E+02 -0.62000562879E+01 -0.35957219612E+02  0.89669366661E+02  0.80449105261E+02 0.  0.
         23    2    1    2    0    0 -0.24641105594E+02  0.88564000502E+02  0.14429626493E+03  0.19388176536E+03  0.91202854121E+02 0.  0.
        -11    1    3    3    0    0 -0.11528714032E+02  0.30470415257E+02 -0.29054931741E+02  0.43652565923E+02  0.00000000000E+00 0.  1.
         12    1    3    3    0    0  0.26929182849E+02 -0.36670471545E+02 -0.69022878713E+01  0.46016800738E+02  0.00000000000E+00 0. -1.
        -11    1    4    4    0    0  0.28730349658E+02  0.20009673005E+02  0.14959893727E+02  0.38073854882E+02  0.00000000000E+00 0. -1.
         11    1    4    4    0    0 -0.53371455252E+02  0.68554327497E+02  0.12933637120E+03  0.15580791048E+03  0.00000000000E+00 0.  1.
         21    1    1    2  503  502 -0.28892763954E+02 -0.26264744075E+02 -0.94189397158E+02  0.10196210633E+03  0.00000000000E+00 0.  1.
         -4    1    1    2    0  503  0.38133400731E+02 -0.56099200139E+02  0.65611543405E+01  0.68149286524E+02  0.00000000000E+00 0.  1.
<scales pt_clust_5="13000.00000" pt_clust_6="13000.00000" pt_clust_7="13000.00000" pt_clust_8="13000.00000" pt_clust_9="39.04649" pt_clust_10="13000.00000"></scales>
<clustering>
<clus scale="   39.046">  2  9  1 -1</clus>
<clus scale="   80.449">  5  6 -1 -1</clus>
<clus scale="   82.930">  1  5  2 -1</clus>
<clus scale="   91.203">  7  8 -1 -1</clus>
<clus scale="   73.685">  7 10 -1 -1</clus>
<clus scale="   39.046">  2  5  1 -1</clus>
</clustering>
</event>
<event>
10    4  0.2565852E-005  0.3062824E+03  0.7546771E-02  0.1098511E+00
         21   -1    0    0  503  502  0.00000000000E+00  0.00000000000E+00  0.73931427305E+03  0.73931427305E+03  0.00000000000E+00 0.  1.
          2   -1    0    0  502    0 -0.00000000000E+00 -0.00000000000E+00 -0.18839858626E+04  0.18839858626E+04  0.00000000000E+00 0. -1.
         24    2    1    2    0    0 -0.16833556505E+03 -0.42246629142E+02 -0.62409780284E+03  0.65286733016E+03  0.81339062873E+02 0.  0.
         23    2    1    2    0    0 -0.23234897032E+02  0.34638098954E+02 -0.21870985048E+03  0.23966184946E+03  0.88680014945E+02 0.  0.
        -11    1    3    3    0    0 -0.67158759746E+02 -0.64114389845E+01 -0.38383627332E+03  0.38972001524E+03  0.00000000000E+00 0.  1.
         12    1    3    3    0    0 -0.10117680530E+03 -0.35835190158E+02 -0.24026152952E+03  0.26314731492E+03  0.00000000000E+00 0. -1.
        -13    1    4    4    0    0 -0.53390811932E+02  0.39256804202E+02 -0.16632534441E+03  0.17904132391E+03  0.00000000000E+00 0.  1.
         13    1    4    4    0    0  0.30155914900E+02 -0.46187052488E+01 -0.52384506072E+02  0.60620525551E+02  0.00000000000E+00 0. -1.
         21    1    1    2  503  501  0.14568672845E+02 -0.94031941666E+02  0.70095861070E+03  0.70738760676E+03  0.00000000000E+00 0.  1.
          1    1    1    2  501    0  0.17700178923E+03  0.10164047185E+03 -0.10028225469E+04  0.10233833492E+04  0.00000000000E+00 0. -1.
<scales pt_clust_5="13000.00000" pt_clust_6="13000.00000" pt_clust_7="13000.00000" pt_clust_8="13000.00000" pt_clust_9="95.15383" pt_clust_10="13000.00000"></scales>
<clustering>
<clus scale="   81.339">  5  6 -1 -1</clus>
<clus scale="   88.680">  7  8 -1 -1</clus>
<clus scale="   95.154">  1  9  2 -1</clus>
<clus scale="  195.837">  7 10 -1 -1</clus>
<clus scale="  198.744">  2  5  1 -1</clus>
<clus scale="   95.154">  1  5  2 -1</clus>
</clustering>
</event>
<event>
10    4  0.2565852E-005  0.3073509E+03  0.7546771E-02  0.1104178E+00
         21   -1    0    0  501  502  0.00000000000E+00  0.00000000000E+00  0.10057706172E+03  0.10057706172E+03  0.00000000000E+00 0.  1.
          2   -1    0    0  503    0 -0.00000000000E+00 -0.00000000000E+00 -0.87353470688E+03  0.87353470688E+03  0.00000000000E+00 0. -1.
         24    2    1    2    0    0  0.83097210056E+02  0.10125978762E+03 -0.44660204882E+02  0.15925437099E+03  0.78795493982E+02 0.  0.
         23    2    1    2    0    0 -0.13310021389E+03  0.15261110421E+02 -0.25453352786E+03  0.30171390803E+03  0.91079070389E+02 0.  0.
        -11    1    3    3    0    0  0.21686057765E+02  0.80601068324E+02 -0.57263816133E+01  0.83663664531E+02  0.00000000000E+00 0.  1.
         12    1    3    3    0    0  0.61411152291E+02  0.20658719292E+02 -0.38933823268E+02  0.75590706458E+02  0.00000000000E+00 0. -1.
        -11    1    4    4    0    0 -0.96124464813E+02 -0.26810727556E+02 -0.12056402841E+03  0.15650690973E+03  0.00000000000E+00 0.  1.
         11    1    4    4    0    0 -0.36975749075E+02  0.42071837976E+02 -0.13396949945E+03  0.14520699829E+03  0.00000000000E+00 0. -1.
         21    1    1    2  503  502  0.30571458200E+02  0.13981282716E+02 -0.16932824018E+02  0.37640547978E+02  0.00000000000E+00 0.  1.
          1    1    1    2  501    0  0.19431545632E+02 -0.13050218075E+03 -0.45683108840E+03  0.47550294161E+03  0.00000000000E+00 0. -1.
<scales pt_clust_5="13000.00000" pt_clust_6="13000.00000" pt_clust_7="13000.00000" pt_clust_8="13000.00000" pt_clust_9="33.61682" pt_clust_10="13000.00000"></scales>
<clustering>
<clus scale="   33.617">  1  9  2 -1</clus>
<clus scale="   78.795">  5  6 -1 -1</clus>
<clus scale="   91.079">  7  8 -1 -1</clus>
<clus scale="  131.019">  7 10 -1 -1</clus>
<clus scale="  169.847">  2  5  1 -1</clus>
<clus scale="   33.617">  1  5  2 -1</clus>
</clustering>
</event>
<event>
10    4  0.2565852E-005  0.5252707E+03  0.7546771E-02  0.1063028E+00
          2   -1    0    0  502    0 -0.00000000000E+00  0.00000000000E+00  0.49916669802E+03  0.49916669802E+03  0.00000000000E+00 0. -1.
         21   -1    0    0  503  502  0.00000000000E+00 -0.00000000000E+00 -0.23557202152E+03  0.23557202152E+03  0.00000000000E+00 0. -1.
         24    2    1    2    0    0  0.55138725501E+02  0.28661869126E+02  0.18959892285E+02  0.10380305032E+03  0.80955629499E+02 0.  0.
         23    2    1    2    0    0  0.48368255908E+02  0.86794972615E+02  0.38318402779E+03  0.40615636914E+03  0.90885321088E+02 0.  0.
        -13    1    3    3    0    0 -0.13708806931E+02  0.19129614459E+02  0.24631982930E+02  0.34067699070E+02  0.00000000000E+00 0.  1.
         14    1    3    3    0    0  0.68847532432E+02  0.95322546662E+01 -0.56720906452E+01  0.69735351245E+02  0.00000000000E+00 0. -1.
        -13    1    4    4    0    0  0.42707041853E+02 -0.31329649524E+01  0.15557194214E+03  0.16135778901E+03  0.00000000000E+00 0.  1.
         13    1    4    4    0    0  0.56612140551E+01  0.89927937568E+02  0.22761208565E+03  0.24479858013E+03  0.00000000000E+00 0. -1.
         21    1    1    2  503  501  0.13925464323E+02 -0.24554057809E+02 -0.26821142297E+02  0.38938335681E+02  0.00000000000E+00 0. -1.
          1    1    1    2  501    0 -0.11743244573E+03 -0.90902783932E+02 -0.11172810127E+03  0.18584096441E+03  0.00000000000E+00 0. -1.
<scales pt_clust_5="13000.00000" pt_clust_6="13000.00000" pt_clust_7="13000.00000" pt_clust_8="13000.00000" pt_clust_9="28.22801" pt_clust_10="13000.00000"></scales>
<clustering>
<clus scale="   28.228">  2  9  1 -1</clus>
<clus scale="   80.956">  5  6 -1 -1</clus>
<clus scale="   90.885">  7  8 -1 -1</clus>
<clus scale="  102.359">  1  5  2 -1</clus>
<clus scale="  147.045">  7 10 -1 -1</clus>
<clus scale="   28.228">  2  5  1 -1</clus>
</clustering>
</event>
<event>
10    4  0.2668408E-005  0.6551485E+03  0.7546771E-02  0.1041409E+00
          4   -1    0    0  503    0 -0.00000000000E+00  0.00000000000E+00  0.10281696775E+04  0.10281696775E+04  0.00000000000E+00 0. -1.
         21   -1    0    0  501  502  0.00000000000E+00 -0.00000000000E+00 -0.15196567823E+04  0.15196567823E+04  0.00000000000E+00 0. -1.
         24    2    1    2    0    0 -0.15994676572E+02 -0.49256652083E+02  0.68494180155E+03  0.69184710485E+03  0.82614148480E+02 0.  0.
         23    2    1    2    0    0  0.26022051827E+02  0.10086711663E+03 -0.11188735678E+02  0.13866653453E+03  0.90839955929E+02 0.  0.
        -11    1    3    3    0    0  0.48335075477E+01  0.21709941647E+02  0.11546079419E+03  0.11758349950E+03  0.00000000000E+00 0.  1.
         12    1    3    3    0    0 -0.20828184119E+02 -0.70966593730E+02  0.56948100736E+03  0.57426360535E+03  0.00000000000E+00 0. -1.
        -13    1    4    4    0    0 -0.23633415698E+02 -0.30536014735E-01 -0.11337078093E+02  0.26211993623E+02  0.00000000000E+00 0.  1.
         13    1    4    4    0    0  0.49655467525E+02  0.10089765265E+03  0.14834241569E+00  0.11245454091E+03  0.00000000000E+00 0. -1.
         21    1    1    2  503  502  0.96608386766E+02 -0.58657968709E+03 -0.97049441827E+03  0.11380985571E+04  0.00000000000E+00 0. -1.
          3    1    1    2  501    0 -0.10663576202E+03  0.53496922253E+03 -0.19474575236E+03  0.57921426335E+03  0.00000000000E+00 0. -1.
<scales pt_clust_5="13000.00000" pt_clust_6="13000.00000" pt_clust_7="13000.00000" pt_clust_8="13000.00000" pt_clust_9="605.85653" pt_clust_10="13000.00000"></scales>
<clustering>
<clus scale="   82.614">  5  6 -1 -1</clus>
<clus scale="   90.840">  7  8 -1 -1</clus>
<clus scale="   97.505">  1  5  2 -1</clus>
<clus scale="  520.130">  7 10 -1 -1</clus>
<clus scale="  605.857">  2  9  1 -1</clus>
<clus scale="  605.857">  2  5  1 -1</clus>
</clustering>
</event>
<event>
10    4  0.2565852E-005  0.4295515E+03  0.7546771E-02  0.1041033E+00
         21   -1    0    0  503  502  0.00000000000E+00  0.00000000000E+00  0.84815975264E+03  0.84815975264E+03  0.00000000000E+00 0.  1.
          2   -1    0    0  502    0 -0.00000000000E+00 -0.00000000000E+00 -0.45844680009E+03  0.45844680009E+03  0.00000000000E+00 0. -1.
         24    2    1    2    0    0  0.30309744532E+03  0.12385227468E+03  0.65452311590E+03  0.73556091399E+03  0.73769245877E+02 0.  0.
         23    2    1    2    0    0 -0.18424076255E+03  0.29457108359E+02 -0.15981439286E+03  0.26186307185E+03  0.90660070677E+02 0.  0.
        -11    1    3    3    0    0  0.27630751727E+03  0.10242964311E+03  0.62207976898E+03  0.68834650784E+03  0.00000000000E+00 0.  1.
         12    1    3    3    0    0  0.26789928052E+02  0.21422631564E+02  0.32443346921E+02  0.47214406145E+02  0.00000000000E+00 0. -1.
        -11    1    4    4    0    0 -0.37494517322E+02  0.22143157130E+02  0.16219305293E+01  0.43575094901E+02  0.00000000000E+00 0.  1.
         11    1    4    4    0    0 -0.14674624523E+03  0.73139512289E+01 -0.16143632339E+03  0.21828797695E+03  0.00000000000E+00 0. -1.
         21    1    1    2  503  501  0.31605412363E+01  0.33660934984E+02  0.32566852738E+02  0.46943023572E+02  0.00000000000E+00 0.  1.
          1    1    1    2  501    0 -0.12201722401E+03 -0.18697031802E+03 -0.13756262323E+03  0.26223954333E+03  0.00000000000E+00 0. -1.
<scales pt_clust_5="13000.00000" pt_clust_6="13000.00000" pt_clust_7="13000.00000" pt_clust_8="13000.00000" pt_clust_9="33.80899" pt_clust_10="13000.00000"></scales>
<clustering>
<clus scale="   33.809">  1  9  2 -1</clus>
<clus scale="   73.769">  5  6 -1 -1</clus>
<clus scale="   90.660">  7  8 -1 -1</clus>
<clus scale="  220.959">  7 10 -1 -1</clus>
<clus scale="  349.729">  2  5  1 -1</clus>
<clus scale="   33.809">  1  5  2 -1</clus>
</clustering>
</event>
<event>
10    4  0.2565852E-005  0.2060051E+03  0.7546771E-02  0.1167269E+00
         21   -1    0    0  503  502  0.00000000000E+00  0.00000000000E+00  0.22884763006E+03  0.22884763006E+03  0.00000000000E+00 0.  1.
          2   -1    0    0  502    0 -0.00000000000E+00 -0.00000000000E+00 -0.46679240770E+03  0.46679240770E+03  0.00000000000E+00 0. -1.
         24    2    1    2    0    0  0.40241586419E+02 -0.99717008681E+02  0.17313850823E+02  0.13522244861E+03  0.80140339896E+02 0.  0.
         23    2    1    2    0    0 -0.60176335816E+02  0.11823035032E+02 -0.30274135265E+03  0.32213032268E+03  0.91403734268E+02 0.  0.
        -11    1    3    3    0    0  0.15242588000E+02 -0.50992941055E+02  0.48667610159E+02  0.72119018330E+02  0.00000000000E+00 0.  1.
         12    1    3    3    0    0  0.24998998419E+02 -0.48724067626E+02 -0.31353759335E+02  0.63103430275E+02  0.00000000000E+00 0. -1.
        -13    1    4    4    0    0 -0.39240329930E+02  0.43184180749E+02 -0.25339513561E+03  0.26002648271E+03  0.00000000000E+00 0. -1.
         13    1    4    4    0    0 -0.20936005886E+02 -0.31361145717E+02 -0.49346217037E+02  0.62103839970E+02  0.00000000000E+00 0.  1.
         21    1    1    2  503  501 -0.13085832981E+02  0.18057977082E+02  0.12610710141E+03  0.12806377547E+03  0.00000000000E+00 0.  1.
          1    1    1    2  501    0  0.33020582378E+02  0.69835996567E+02 -0.78624377219E+02  0.11022349101E+03  0.00000000000E+00 0. -1.
<scales pt_clust_5="13000.00000" pt_clust_6="13000.00000" pt_clust_7="13000.00000" pt_clust_8="13000.00000" pt_clust_9="22.30089" pt_clust_10="13000.00000"></scales>
<clustering>
<clus scale="   22.301">  1  9  2 -1</clus>
<clus scale="   80.140">  5  6 -1 -1</clus>
<clus scale="   91.404">  7  8 -1 -1</clus>
<clus scale="   78.974">  7 10 -1 -1</clus>
<clus scale="  121.558">  2  5  1 -1</clus>
<clus scale="   22.301">  1  5  2 -1</clus>
</clustering>
</event>
<event>
10    4  0.2565852E-005  0.2955003E+03  0.7546771E-02  0.1121061E+00
         21   -1    0    0  501  502  0.00000000000E+00  0.00000000000E+00  0.34715800084E+03  0.34715800084E+03  0.00000000000E+00 0. -1.
          4   -1    0    0  503    0 -0.00000000000E+00 -0.00000000000E+00 -0.32130151623E+03  0.32130151623E+03  0.00000000000E+00 0. -1.
         24    2    1    2    0    0 -0.48972874435E+02  0.56236609367E+02  0.13168746732E+02  0.11449671160E+03  0.85878882233E+02 0.  0.
         23    2    1    2    0    0  0.58764292450E+02 -0.72508045366E+02 -0.24627792395E+03  0.27900345093E+03  0.92083935054E+02 0.  0.
        -11    1    3    3    0    0 -0.41553088129E+02  0.16056390156E+02  0.44531461111E+02  0.62988235621E+02  0.00000000000E+00 0.  1.
         12    1    3    3    0    0 -0.74197863056E+01  0.40180219210E+02 -0.31362714379E+02  0.51508475981E+02  0.00000000000E+00 0. -1.
        -11    1    4    4    0    0  0.49068767387E+02 -0.14980489090E+02 -0.19399655552E+03  0.20066594764E+03  0.00000000000E+00 0. -1.
         11    1    4    4    0    0  0.96955250629E+01 -0.57527556277E+02 -0.52281368428E+02  0.78337503293E+02  0.00000000000E+00 0.  1.
         21    1    1    2  503  502 -0.46344115496E+02  0.52234256272E+01  0.19467424562E+03  0.20018272434E+03  0.00000000000E+00 0. -1.
          3    1    1    2  501    0  0.36552697481E+02  0.11048010373E+02  0.64291416216E+02  0.74776630209E+02  0.00000000000E+00 0. -1.
<scales pt_clust_5="13000.00000" pt_clust_6="13000.00000" pt_clust_7="13000.00000" pt_clust_8="13000.00000" pt_clust_9="46.63755" pt_clust_10="13000.00000"></scales>
<clustering>
<clus scale="   46.638">  1  9  2 -1</clus>
<clus scale="   85.879">  5  6 -1 -1</clus>
<clus scale="   92.084">  7  8 -1 -1</clus>
<clus scale="   20.186">  7 10 -1 -1</clus>
<clus scale="  124.567">  2  5  1 -1</clus>
<clus scale="   46.638">  1  5  2 -1</clus>
</clustering>
</event>
<event>
10    4  0.2565852E-005  0.8380812E+03  0.7546771E-02  0.1011970E+00
          2   -1    0    0  503    0 -0.00000000000E+00  0.00000000000E+00  0.10821749428E+04  0.10821749428E+04  0.00000000000E+00 0. -1.
         21   -1    0    0  501  502  0.00000000000E+00 -0.00000000000E+00 -0.24307318311E+03  0.24307318311E+03  0.00000000000E+00 0.  1.
         24    2    1    2    0    0  0.39152385557E+02 -0.70978483340E+02  0.87941049986E+02  0.14407439529E+03  0.80330247815E+02 0.  0.
         23    2    1    2    0    0  0.27148124592E+03 -0.21565080161E+03  0.14414685167E+03  0.38644735018E+03  0.91410636682E+02 0.  0.
        -13    1    3    3    0    0 -0.16157608976E+02 -0.14784014132E+02 -0.47231235573E+01  0.22404091095E+02  0.00000000000E+00 0.  1.
         14    1    3    3    0    0  0.55309994533E+02 -0.56194469209E+02  0.92664173543E+02  0.12167030420E+03  0.00000000000E+00 0. -1.
        -11    1    4    4    0    0  0.16076148180E+03 -0.14035434728E+03  0.40727157801E+02  0.21726089896E+03  0.00000000000E+00 0.  1.
         11    1    4    4    0    0  0.11071976411E+03 -0.75296454330E+02  0.10341969386E+03  0.16918645123E+03  0.00000000000E+00 0. -1.
         21    1    1    2  503  502  0.29912176641E+02  0.41856345265E+02 -0.61971527577E+01  0.51817918258E+02  0.00000000000E+00 0.  1.
          1    1    1    2  501    0 -0.34054580811E+03  0.24477293969E+03  0.61321101083E+03  0.74290846221E+03  0.00000000000E+00 0. -1.
<scales pt_clust_5="13000.00000" pt_clust_6="13000.00000" pt_clust_7="13000.00000" pt_clust_8="13000.00000" pt_clust_9="51.44601" pt_clust_10="13000.00000"></scales>
<clustering>
<clus scale="   51.446">  2  9  1 -1</clus>
<clus scale="   80.330">  5  6 -1 -1</clus>
<clus scale="   91.411">  7  8 -1 -1</clus>
<clus scale="  112.238">  1  5  2 -1</clus>
<clus scale="  367.555">  7 10 -1 -1</clus>
<clus scale="   51.446">  2  5  1 -1</clus>
</clustering>
</event>
<event>
10    4  0.2565852E-005  0.3040991E+03  0.7546771E-02  0.1106046E+00
          2   -1    0    0  503    0 -0.00000000000E+00  0.00000000000E+00  0.22568073080E+04  0.22568073080E+04  0.00000000000E+00 0. -1.
         21   -1    0    0  501  502  0.00000000000E+00 -0.00000000000E+00 -0.10549614901E+03  0.10549614901E+03  0.00000000000E+00 0. -1.
         24    2    1    2    0    0  0.69062333788E+02 -0.15396055285E+03  0.12459389421E+04  0.12599119670E+04  0.80875579314E+02 0.  0.
         23    2    1    2    0    0  0.14180027252E+02  0.86878461235E+02  0.24921331739E+03  0.28042062111E+03  0.93699023364E+02 0.  0.
        -13    1    3    3    0    0  0.31521676551E+02 -0.13145056742E+03  0.75331955827E+03  0.76535169996E+03  0.00000000000E+00 0.  1.
         14    1    3    3    0    0  0.37540657237E+02 -0.22509985430E+02  0.49261938385E+03  0.49456026704E+03  0.00000000000E+00 0. -1.
        -11    1    4    4    0    0 -0.18705352162E+02  0.47844330623E+02  0.40101108198E+02  0.65169540822E+02  0.00000000000E+00 0. -1.
         11    1    4    4    0    0  0.32885379414E+02  0.39034130612E+02  0.20911220919E+03  0.21525108028E+03  0.00000000000E+00 0.  1.
         21    1    1    2  503  502  0.34033123736E+02  0.12258466602E+03 -0.24070363574E+02  0.12947832351E+03  0.00000000000E+00 0. -1.
          1    1    1    2  501    0 -0.11727548478E+03 -0.55502574411E+02  0.68022926302E+03  0.69249254535E+03  0.00000000000E+00 0. -1.
<scales pt_clust_5="13000.00000" pt_clust_6="13000.00000" pt_clust_7="13000.00000" pt_clust_8="13000.00000" pt_clust_9="127.22128" pt_clust_10="13000.00000"></scales>
<clustering>
<clus scale="   80.876">  5  6 -1 -1</clus>
<clus scale="   93.699">  7  8 -1 -1</clus>
<clus scale="  127.221">  2  9  1 -1</clus>
<clus scale="  113.853">  7 10 -1 -1</clus>
<clus scale="  167.134">  1  5  2 -1</clus>
<clus scale="  127.221">  2  5  1 -1</clus>
</clustering>
</event>
<event>
10    4  0.2565852E-005  0.2478727E+03  0.7546771E-02  0.1149488E+00
         21   -1    0    0  501  502  0.00000000000E+00  0.00000000000E+00  0.84824502840E+03  0.84824502840E+03  0.00000000000E+00 0. -1.
         -1   -1    0    0    0  501 -0.00000000000E+00 -0.00000000000E+00 -0.23947173222E+03  0.23947173222E+03  0.00000000000E+00 0.  1.
         24    2    1    2    0    0  0.25893069090E+02 -0.66335320421E+02 -0.13136937701E+02  0.10649914770E+03  0.78093940655E+02 0.  0.
         23    2    1    2    0    0  0.61941114474E+02  0.53943063652E+02 -0.43070952702E+02  0.13355929756E+03  0.96106312068E+02 0.  0.
        -11    1    3    3    0    0  0.26720353251E+02  0.16110033746E+01 -0.26026993107E+02  0.37336001123E+02  0.00000000000E+00 0.  1.
         12    1    3    3    0    0 -0.82728416088E+00 -0.67946323795E+02  0.12890055405E+02  0.69163146579E+02  0.00000000000E+00 0. -1.
        -11    1    4    4    0    0  0.43779326797E+02  0.77441719543E+02 -0.51364773688E+02  0.10272384999E+03  0.00000000000E+00 0. -1.
         11    1    4    4    0    0  0.18161787677E+02 -0.23498655891E+02  0.82938209863E+01  0.30835447570E+02  0.00000000000E+00 0.  1.
         21    1    1    2  503  502 -0.44074424590E+02  0.10051743621E+03  0.72443271801E+03  0.73269985178E+03  0.00000000000E+00 0. -1.
         -2    1    1    2    0  503 -0.43759758973E+02 -0.88125179440E+02 -0.59451531428E+02  0.11495846357E+03  0.00000000000E+00 0.  1.
<scales pt_clust_5="13000.00000" pt_clust_6="13000.00000" pt_clust_7="13000.00000" pt_clust_8="13000.00000" pt_clust_9="108.11865" pt_clust_10="13000.00000"></scales>
<clustering>
<clus scale="   78.094">  5  6 -1 -1</clus>
<clus scale="   96.106">  7  8 -1 -1</clus>
<clus scale="   98.392">  7 10 -1 -1</clus>
<clus scale="  105.686">  2  5  1 -1</clus>
<clus scale="  108.119">  1  9  2 -1</clus>
<clus scale="  108.119">  1  5  2 -1</clus>
</clustering>
</event>
<event>
10    4  0.2565852E-005  0.1328809E+03  0.7546771E-02  0.1238738E+00
          2   -1    0    0  503    0 -0.00000000000E+00  0.00000000000E+00  0.80277102005E+03  0.80277102005E+03  0.00000000000E+00 0. -1.
         21   -1    0    0  501  502  0.00000000000E+00 -0.00000000000E+00 -0.10598524730E+03  0.10598524730E+03  0.00000000000E+00 0.  1.
         24    2    1    2    0    0  0.48510527917E+02 -0.63518381160E+02  0.13238343090E+03  0.16957698584E+03  0.69592566296E+02 0.  0.
         23    2    1    2    0    0 -0.34651113694E+02  0.13657676638E+02  0.40660426828E+03  0.41793877167E+03  0.89210728439E+02 0.  0.
        -11    1    3    3    0    0 -0.81454407221E+01 -0.41465449008E+02  0.74399251185E+02  0.85562726948E+02  0.00000000000E+00 0.  1.
         12    1    3    3    0    0  0.56655968639E+02 -0.22052932152E+02  0.57984179720E+02  0.84014258889E+02  0.00000000000E+00 0. -1.
        -13    1    4    4    0    0  0.28803632488E+02 -0.74618571135E+01  0.13096105158E+03  0.13429864328E+03  0.00000000000E+00 0.  1.
         13    1    4    4    0    0 -0.63454746182E+02  0.21119533752E+02  0.27564321670E+03  0.28364012839E+03  0.00000000000E+00 0. -1.
         21    1    1    2  503  502  0.22178497976E+00  0.23836814895E+02 -0.79042463412E+02  0.82558790902E+02  0.00000000000E+00 0.  1.
          1    1    1    2  501    0 -0.14081199203E+02  0.26023889627E+02  0.23684053698E+03  0.23868171894E+03  0.00000000000E+00 0. -1.
<scales pt_clust_5="13000.00000" pt_clust_6="13000.00000" pt_clust_7="13000.00000" pt_clust_8="13000.00000" pt_clust_9="23.83785" pt_clust_10="13000.00000"></scales>
<clustering>
<clus scale="   23.838">  2  9  1 -1</clus>
<clus scale="   69.593">  5  6 -1 -1</clus>
<clus scale="   89.211">  7  8 -1 -1</clus>
<clus scale="   30.355">  7 10 -1 -1</clus>
<clus scale="   96.544">  1  5  2 -1</clus>
<clus scale="   23.838">  2  5  1 -1</clus>
</clustering>
</event>
<event>
10    4  0.2565852E-005  0.1661458E+03  0.7546771E-02  0.1206754E+00
          2   -1    0    0  503    0 -0.00000000000E+00  0.00000000000E+00  0.91073917975E+03  0.91073917975E+03  0.00000000000E+00 0. -1.
         21   -1    0    0  501  502  0.00000000000E+00 -0.00000000000E+00 -0.32506538188E+02  0.32506538188E+02  0.00000000000E+00 0. -1.
         24    2    1    2    0    0  0.62504558518E+01 -0.48973959034E+02  0.55408530777E+03  0.56211877044E+03  0.80805117053E+02 0.  0.
         23    2    1    2    0    0 -0.12129273897E+02  0.31796104258E+01  0.20800083834E+03  0.22753698655E+03  0.91386554203E+02 0.  0.
        -11    1    3    3    0    0  0.17508611511E+01 -0.52122547570E+02  0.16610668771E+03  0.17410128426E+03  0.00000000000E+00 0.  1.
         12    1    3    3    0    0  0.44995947007E+01  0.31485885356E+01  0.38797862006E+03  0.38801748618E+03  0.00000000000E+00 0. -1.
        -11    1    4    4    0    0 -0.37862457566E+02 -0.23208069940E+02  0.57859054306E+02  0.72937304368E+02  0.00000000000E+00 0. -1.
         11    1    4    4    0    0  0.25733183670E+02  0.26387680366E+02  0.15014178404E+03  0.15459968218E+03  0.00000000000E+00 0.  1.
         21    1    1    2  503  502 -0.11080772893E+02 -0.24174705966E+02  0.45628893469E+02  0.52812837981E+02  0.00000000000E+00 0. -1.
          1    1    1    2  501    0  0.16959590937E+02  0.69969054574E+02  0.70517601981E+02  0.10077712296E+03  0.00000000000E+00 0. -1.
<scales pt_clust_5="13000.00000" pt_clust_6="13000.00000" pt_clust_7="13000.00000" pt_clust_8="13000.00000" pt_clust_9="26.59323" pt_clust_10="13000.00000"></scales>
<clustering>
<clus scale="   26.593">  2  9  1 -1</clus>
<clus scale="   80.805">  5  6 -1 -1</clus>
<clus scale="   91.387">  7  8 -1 -1</clus>
<clus scale="   58.396">  7 10 -1 -1</clus>
<clus scale="   96.386">  1  5  2 -1</clus>
<clus scale="   26.593">  2  5  1 -1</clus>
</clustering>
</event>
<event>
10    4  0.2565852E-005  0.2662524E+03  0.7546771E-02  0.1123595E+00
         -1   -1    0    0    0  501 -0.00000000000E+00  0.00000000000E+00  0.28122806074E+03  0.28122806074E+03  0.00000000000E+00 0.  1.
         21   -1    0    0  501  502  0.00000000000E+00 -0.00000000000E+00 -0.19344260426E+03  0.19344260426E+03  0.00000000000E+00 0.  1.
         24    2    1    2    0    0  0.19472472655E+02 -0.14144036457E+03  0.52971610392E+02  0.17255963247E+03  0.81155907549E+02 0.  0.
         23    2    1    2    0    0 -0.38166213217E+01 -0.36227850467E+02  0.67927224627E+01  0.96322085412E+02  0.88908825838E+02 0.  0.
        -11    1    3    3    0    0  0.43569767130E+02 -0.94740519045E+02  0.58754287333E+02  0.11969192469E+03  0.00000000000E+00 0.  1.
         12    1    3    3    0    0 -0.24097294475E+02 -0.46699845523E+02 -0.57826769416E+01  0.52867707776E+02  0.00000000000E+00 0. -1.
        -11    1    4    4    0    0  0.31109277124E+02 -0.23877253588E+02  0.32745937610E+02  0.51090182932E+02  0.00000000000E+00 0. -1.
         11    1    4    4    0    0 -0.34925898446E+02 -0.12350596879E+02 -0.25953215147E+02  0.45231902480E+02  0.00000000000E+00 0.  1.
         21    1    1    2  503  502  0.13825586303E+02  0.16165753093E+02 -0.25413128741E+02  0.33140692843E+02  0.00000000000E+00 0.  1.
         -2    1    1    2    0  503 -0.29481437636E+02  0.16150246194E+03  0.53434252370E+02  0.17264825428E+03  0.00000000000E+00 0.  1.
<scales pt_clust_5="13000.00000" pt_clust_6="13000.00000" pt_clust_7="13000.00000" pt_clust_8="13000.00000" pt_clust_9="21.27154" pt_clust_10="13000.00000"></scales>
<clustering>
<clus scale="   21.272">  2  9  1 -1</clus>
<clus scale="   81.156">  5  6 -1 -1</clus>
<clus scale="   88.909">  7  8 -1 -1</clus>
<clus scale="  159.879">  1  5  2 -1</clus>
<clus scale="   72.885">  7 10 -1 -1</clus>
<clus scale="   21.272">  2  5  1 -1</clus>
</clustering>
</event>
<event>
10    4  0.2565852E-005  0.6819427E+03  0.7546771E-02  0.1008911E+00
         -1   -1    0    0    0  501 -0.00000000000E+00  0.00000000000E+00  0.13380079250E+04  0.13380079250E+04  0.00000000000E+00 0.  1.
         21   -1    0    0  503  502  0.00000000000E+00 -0.00000000000E+00 -0.37927053072E+03  0.37927053072E+03  0.00000000000E+00 0. -1.
         24    2    1    2    0    0 -0.21799315202E+03  0.11518034049E+02 -0.11228487729E+03  0.25500990732E+03  0.69054179653E+02 0.  0.
         23    2    1    2    0    0  0.19277472404E+02  0.22103913620E+03  0.31239075163E+03  0.39391207357E+03  0.91371873819E+02 0.  0.
        -11    1    3    3    0    0 -0.30876642830E+02 -0.21174787745E+02 -0.78908481612E+01  0.38262307735E+02  0.00000000000E+00 0.  1.
         12    1    3    3    0    0 -0.18711650919E+03  0.32692821793E+02 -0.10439402913E+03  0.21674759959E+03  0.00000000000E+00 0. -1.
        -11    1    4    4    0    0 -0.14594885824E+02  0.19830598126E+03  0.26658369479E+03  0.33257350950E+03  0.00000000000E+00 0.  1.
         11    1    4    4    0    0  0.33872358228E+02  0.22733154945E+02  0.45807056846E+02  0.61338564073E+02  0.00000000000E+00 0. -1.
         21    1    1    2  503  501  0.22986511306E+03  0.18389414301E+03  0.15042879565E+03  0.33058107719E+03  0.00000000000E+00 0. -1.
         -2    1    1    2    0  502 -0.31149433440E+02 -0.41645131327E+03  0.60820272425E+03  0.73777539760E+03  0.00000000000E+00 0.  1.
<scales pt_clust_5="13000.00000" pt_clust_6="13000.00000" pt_clust_7="13000.00000" pt_clust_8="13000.00000" pt_clust_9="264.85556" pt_clust_10="13000.00000"></scales>
<clustering>
<clus scale="   69.054">  5  6 -1 -1</clus>
<clus scale="   91.372">  7  8 -1 -1</clus>
<clus scale="  228.959">  1  5  2 -1</clus>
<clus scale="  264.856">  2  9  1 -1</clus>
<clus scale="  306.328">  7 10 -1 -1</clus>
<clus scale="  264.856">  2  5  1 -1</clus>
</clustering>
</event>
<event>
10    4  0.2565852E-005  0.4250292E+03  0.7546771E-02  0.1086776E+00
         21   -1    0    0  501  502  0.00000000000E+00  0.00000000000E+00  0.16444052162E+03  0.16444052162E+03  0.00000000000E+00 0.  1.
          2   -1    0    0  503    0 -0.00000000000E+00 -0.00000000000E+00 -0.94952825836E+03  0.94952825836E+03  0.00000000000E+00 0. -1.
         24    2    1    2    0    0 -0.37300228404E+02 -0.27035673121E+02 -0.35573829930E+03  0.36947838981E+03  0.88556808258E+02 0.  0.
         23    2    1    2    0    0 -0.85089905360E+02  0.17297182283E+03 -0.16580417217E+03  0.27624944121E+03  0.10799623500E+03 0.  0.
        -13    1    3    3    0    0  0.25671064169E+02  0.21945392493E+01 -0.15371002908E+03  0.15585439544E+03  0.00000000000E+00 0.  1.
         14    1    3    3    0    0 -0.62971292572E+02 -0.29230212370E+02 -0.20202827022E+03  0.21362399438E+03  0.00000000000E+00 0. -1.
        -11    1    4    4    0    0  0.23040036851E+02  0.61342109188E+02 -0.47520956654E+02  0.80944048447E+02  0.00000000000E+00 0. -1.
         11    1    4    4    0    0 -0.10812994221E+03  0.11162971364E+03 -0.11828321551E+03  0.19530539276E+03  0.00000000000E+00 0.  1.
         21    1    1    2  503  502 -0.25526733418E+02 -0.30113179727E+02  0.72896985627E+02  0.82899868672E+02  0.00000000000E+00 0.  1.
          1    1    1    2  501    0  0.14791686718E+03 -0.11582296998E+03 -0.33644225090E+03  0.38534108029E+03  0.00000000000E+00 0. -1.
<scales pt_clust_5="13000.00000" pt_clust_6="13000.00000" pt_clust_7="13000.00000" pt_clust_8="13000.00000" pt_clust_9="39.47680" pt_clust_10="13000.00000"></scales>
<clustering>
<clus scale="   39.477">  1  9  2 -1</clus>
<clus scale="   88.557">  5  6 -1 -1</clus>
<clus scale="  101.266">  2  5  1 -1</clus>
<clus scale="  107.996">  7  8 -1 -1</clus>
<clus scale="  183.985">  7 10 -1 -1</clus>
<clus scale="   39.477">  1  5  2 -1</clus>
</clustering>
</event>
<event>
10    4  0.2565852E-005  0.4809229E+03  0.7546771E-02  0.1050094E+00
          4   -1    0    0  502    0 -0.00000000000E+00  0.00000000000E+00  0.68350333731E+03  0.68350333731E+03  0.00000000000E+00 0. -1.
         21   -1    0    0  503  502  0.00000000000E+00 -0.00000000000E+00 -0.24396688337E+03  0.24396688337E+03  0.00000000000E+00 0. -1.
         24    2    1    2    0    0 -0.18544552612E+02 -0.19835835097E+03  0.53936397028E+02  0.22080485389E+03  0.78458350387E+02 0.  0.
         23    2    1    2    0    0 -0.10448677732E+03 -0.24894968001E+02  0.30102991951E+03  0.33265034167E+03  0.92195397417E+02 0.  0.
        -11    1    3    3    0    0  0.27484196635E+02 -0.59863529250E+02  0.20194704275E+01  0.65902211341E+02  0.00000000000E+00 0.  1.
         12    1    3    3    0    0 -0.46028749247E+02 -0.13849482172E+03  0.51916926601E+02  0.15490264255E+03  0.00000000000E+00 0. -1.
        -13    1    4    4    0    0 -0.89506615636E+02  0.21404083489E+02  0.17891724135E+03  0.20119877804E+03  0.00000000000E+00 0.  1.
         13    1    4    4    0    0 -0.14980161689E+02 -0.46299051490E+02  0.12211267816E+03  0.13145156363E+03  0.00000000000E+00 0. -1.
         21    1    1    2  503  501 -0.81634241267E+02  0.75697430472E+02  0.36546123047E+02  0.11717452555E+03  0.00000000000E+00 0.  1.
          3    1    1    2  501    0  0.20466557120E+03  0.14755588850E+03  0.48024014359E+02  0.25684049957E+03  0.00000000000E+00 0. -1.
<scales pt_clust_5="13000.00000" pt_clust_6="13000.00000" pt_clust_7="13000.00000" pt_clust_8="13000.00000" pt_clust_9="111.32947" pt_clust_10="13000.00000"></scales>
<clustering>
<clus scale="   78.458">  5  6 -1 -1</clus>
<clus scale="   92.195">  7  8 -1 -1</clus>
<clus scale="  111.329">  2  9  1 -1</clus>
<clus scale="  191.998">  1  5  2 -1</clus>
<clus scale="  194.680">  7 10 -1 -1</clus>
<clus scale="  111.329">  2  5  1 -1</clus>
</clustering>
</event>
<event>
10    4  0.2565852E-005  0.2102404E+03  0.7546771E-02  0.1163937E+00
          2   -1    0    0  502    0 -0.00000000000E+00  0.00000000000E+00  0.48561278533E+03  0.48561278533E+03  0.00000000000E+00 0. -1.
         21   -1    0    0  503  502  0.00000000000E+00 -0.00000000000E+00 -0.99057572950E+02  0.99057572950E+02  0.00000000000E+00 0. -1.
         24    2    1    2    0    0 -0.55674057373E+02 -0.71711244060E+02  0.30528655713E+03  0.32976982433E+03  0.85476031051E+02 0.  0.
         23    2    1    2    0    0  0.16090838413E+02  0.11891228130E+02 -0.27028358035E+02  0.97448577579E+02  0.91462433528E+02 0.  0.
        -13    1    3    3    0    0 -0.72709909740E+02 -0.29662060822E+02  0.21090713231E+03  0.22505196574E+03  0.00000000000E+00 0.  1.
         14    1    3    3    0    0  0.17035852367E+02 -0.42049183238E+02  0.94379424828E+02  0.10471785859E+03  0.00000000000E+00 0. -1.
        -13    1    4    4    0    0  0.24957310284E+01  0.39688413725E+02  0.17317544201E+02  0.43373911450E+02  0.00000000000E+00 0.  1.
         13    1    4    4    0    0  0.13595107385E+02 -0.27797185595E+02 -0.44345902236E+02  0.54074666129E+02  0.00000000000E+00 0. -1.
         21    1    1    2  503  501 -0.15560528996E+02  0.27247291174E+02 -0.29676952557E+00  0.31378862489E+02  0.00000000000E+00 0.  1.
          1    1    1    2  501    0  0.55143747956E+02  0.32572724757E+02  0.10859378281E+03  0.12607309388E+03  0.00000000000E+00 0. -1.
<scales pt_clust_5="13000.00000" pt_clust_6="13000.00000" pt_clust_7="13000.00000" pt_clust_8="13000.00000" pt_clust_9="31.37746" pt_clust_10="13000.00000"></scales>
<clustering>
<clus scale="   31.377">  2  9  1 -1</clus>
<clus scale="   85.476">  5  6 -1 -1</clus>
<clus scale="   91.462">  7  8 -1 -1</clus>
<clus scale="   64.178">  7 10 -1 -1</clus>
<clus scale="  123.489">  1  5  2 -1</clus>
<clus scale="   31.377">  2  5  1 -1</clus>
</clustering>
</event>
<event>
10    4  0.2565852E-005  0.5066746E+03  0.7546771E-02  0.1046649E+00
          2   -1    0    0  503    0 -0.00000000000E+00  0.00000000000E+00  0.21379027091E+04  0.21379027091E+04  0.00000000000E+00 0. -1.
         21   -1    0    0  501  502  0.00000000000E+00 -0.00000000000E+00 -0.34604105941E+03  0.34604105941E+03  0.00000000000E+00 0. -1.
         24    2    1    2    0    0 -0.14326895886E+03  0.68419786897E+02  0.13230138333E+04  0.13350351027E+04  0.82133188435E+02 0.  0.
         23    2    1    2    0    0 -0.95729943842E+02 -0.19174583445E+03  0.43423276789E+03  0.49251075462E+03  0.89878025864E+02 0.  0.
        -13    1    3    3    0    0 -0.51578078646E+02  0.57301806474E+02  0.39626712220E+03  0.40369719761E+03  0.00000000000E+00 0.  1.
         14    1    3    3    0    0 -0.91690880215E+02  0.11117980423E+02  0.92674671106E+03  0.93133790509E+03  0.00000000000E+00 0. -1.
        -11    1    4    4    0    0 -0.11304086506E+03 -0.16136270579E+03  0.35774875721E+03  0.40841196515E+03  0.00000000000E+00 0. -1.
         11    1    4    4    0    0  0.17310921223E+02 -0.30383128657E+02  0.76484010679E+02  0.84098789468E+02  0.00000000000E+00 0.  1.
         21    1    1    2  503  502 -0.24222599482E+02  0.44579126113E+02 -0.25335567944E+03  0.25838562869E+03  0.00000000000E+00 0. -1.
          1    1    1    2  501    0  0.26322150219E+03  0.78746921438E+02  0.28797072802E+03  0.39801228253E+03  0.00000000000E+00 0. -1.
<scales pt_clust_5="13000.00000" pt_clust_6="13000.00000" pt_clust_7="13000.00000" pt_clust_8="13000.00000" pt_clust_9="50.73493" pt_clust_10="13000.00000"></scales>
<clustering>
<clus scale="   50.735">  2  9  1 -1</clus>
<clus scale="   82.133">  5  6 -1 -1</clus>
<clus scale="   89.878">  7  8 -1 -1</clus>
<clus scale="  181.201">  1  5  2 -1</clus>
<clus scale="  230.492">  7 10 -1 -1</clus>
<clus scale="   50.735">  2  5  1 -1</clus>
</clustering>
</event>
<event>
10    4  0.2565852E-005  0.2528140E+03  0.7546771E-02  0.1140787E+00
          2   -1    0    0  502    0 -0.00000000000E+00  0.00000000000E+00  0.69867427919E+02  0.69867427919E+02  0.00000000000E+00 0. -1.
         21   -1    0    0  503  502  0.00000000000E+00 -0.00000000000E+00 -0.85878474459E+03  0.85878474459E+03  0.00000000000E+00 0.  1.
         24    2    1    2    0    0 -0.11391296940E+02  0.73529160993E+02 -0.16862449055E+03  0.20156052629E+03  0.81585095342E+02 0.  0.
         23    2    1    2    0    0  0.34284146649E+02  0.16212621315E+02 -0.59313845846E+02  0.11587906443E+03  0.92041150920E+02 0.  0.
        -11    1    3    3    0    0 -0.31667451540E+02  0.18261989282E+02 -0.11924848974E+03  0.12472581948E+03  0.00000000000E+00 0.  1.
         12    1    3    3    0    0  0.20276154600E+02  0.55267171711E+02 -0.49376000810E+02  0.76834706808E+02  0.00000000000E+00 0. -1.
        -11    1    4    4    0    0 -0.18706011667E+02 -0.25676354993E+02 -0.15325384423E+02  0.35271199100E+02  0.00000000000E+00 0.  1.
         11    1    4    4    0    0  0.52990158316E+02  0.41888976308E+02 -0.43988461422E+02  0.80607865329E+02  0.00000000000E+00 0. -1.
         21    1    1    2  503  501  0.35470249899E+02  0.53047351558E+02 -0.31092997216E+03  0.31741078703E+03  0.00000000000E+00 0.  1.
          1    1    1    2  501    0 -0.58363099608E+02 -0.14278913387E+03 -0.25004900811E+03  0.29380179476E+03  0.00000000000E+00 0. -1.
<scales pt_clust_5="13000.00000" pt_clust_6="13000.00000" pt_clust_7="13000.00000" pt_clust_8="13000.00000" pt_clust_9="63.81348" pt_clust_10="13000.00000"></scales>
<clustering>
<clus scale="   63.813">  2  9  1 -1</clus>
<clus scale="   81.585">  5  6 -1 -1</clus>
<clus scale="   92.041">  7  8 -1 -1</clus>
<clus scale="  122.635">  1  5  2 -1</clus>
<clus scale="   95.211">  7 10 -1 -1</clus>
<clus scale="   63.813">  2  5  1 -1</clus>
</clustering>
</event>
<event>
10    4  0.2565852E-005  0.1970154E+03  0.7546771E-02  0.1187940E+00
         -3   -1    0    0    0  501 -0.00000000000E+00  0.00000000000E+00  0.37620154704E+03  0.37620154704E+03  0.00000000000E+00 0.  1.
         21   -1    0    0  501  502  0.00000000000E+00 -0.00000000000E+00 -0.76670316521E+02  0.76670316521E+02  0.00000000000E+00 0. -1.
         24    2    1    2    0    0 -0.38841936647E+02 -0.28532688791E+02  0.85041657124E+02  0.12591988008E+03  0.79378349580E+02 0.  0.
         23    2    1    2    0    0 -0.38389403864E+02  0.62300230968E+02  0.14733459727E+03  0.19056837416E+03  0.96196447787E+02 0.  0.
        -11    1    3    3    0    0 -0.25619476079E+02  0.25963710245E+02  0.38606908699E+02  0.53112759329E+02  0.00000000000E+00 0.  1.
         12    1    3    3    0    0 -0.13222460568E+02 -0.54496399036E+02  0.46434748425E+02  0.72807120755E+02  0.00000000000E+00 0. -1.
        -11    1    4    4    0    0 -0.66170371797E+02  0.19193159291E+02  0.94369051765E+02  0.11684354239E+03  0.00000000000E+00 0.  1.
         11    1    4    4    0    0  0.27780967933E+02  0.43107071677E+02  0.52965545508E+02  0.73724831765E+02  0.00000000000E+00 0. -1.
         21    1    1    2  503  502  0.28006013058E+02  0.19794443914E+02 -0.41177627811E+01  0.34541464178E+02  0.00000000000E+00 0. -1.
         -4    1    1    2    0  503  0.49225327453E+02 -0.53561986091E+02  0.71272738903E+02  0.10184214514E+03  0.00000000000E+00 0.  1.
<scales pt_clust_5="13000.00000" pt_clust_6="13000.00000" pt_clust_7="13000.00000" pt_clust_8="13000.00000" pt_clust_9="34.29514" pt_clust_10="13000.00000"></scales>
<clustering>
<clus scale="   34.295">  2  9  1 -1</clus>
<clus scale="   79.378">  5  6 -1 -1</clus>
<clus scale="   87.150">  1  5  2 -1</clus>
<clus scale="   96.196">  7  8 -1 -1</clus>
<clus scale="   72.699">  7 10 -1 -1</clus>
<clus scale="   34.295">  2  5  1 -1</clus>
</clustering>
</event>
<event>
10    4  0.2565852E-005  0.3455118E+03  0.7546771E-02  0.1115029E+00
          2   -1    0    0  502    0 -0.00000000000E+00  0.00000000000E+00  0.89842942031E+03  0.89842942031E+03  0.00000000000E+00 0. -1.
         21   -1    0    0  503  502  0.00000000000E+00 -0.00000000000E+00 -0.10246711183E+03  0.10246711183E+03  0.00000000000E+00 0. -1.
         24    2    1    2    0    0  0.34101653522E+02  0.16230824697E+02  0.45666530557E+03  0.46563975016E+03  0.82769639209E+02 0.  0.
         23    2    1    2    0    0  0.13538213673E+03 -0.50615348779E+02  0.28987048919E+03  0.33600352235E+03  0.89348923048E+02 0.  0.
        -13    1    3    3    0    0 -0.23360433732E+02  0.22708700667E+02  0.14028613810E+03  0.14401942748E+03  0.00000000000E+00 0.  1.
         14    1    3    3    0    0  0.57462087254E+02 -0.64778759700E+01  0.31637916747E+03  0.32162032268E+03  0.00000000000E+00 0. -1.
        -11    1    4    4    0    0  0.35147947402E+02  0.13665318949E+02  0.13776219876E+03  0.14283046789E+03  0.00000000000E+00 0.  1.
         11    1    4    4    0    0  0.10023418933E+03 -0.64280667728E+02  0.15210829043E+03  0.19317305447E+03  0.00000000000E+00 0. -1.
         21    1    1    2  503  501 -0.23258290909E+02  0.18422608998E+02 -0.20819793947E+02  0.36246440353E+02  0.00000000000E+00 0. -1.
          1    1    1    2  501    0 -0.14622549934E+03  0.15961915083E+02  0.70246307658E+02  0.16300681928E+03  0.00000000000E+00 0. -1.
<scales pt_clust_5="13000.00000" pt_clust_6="13000.00000" pt_clust_7="13000.00000" pt_clust_8="13000.00000" pt_clust_9="29.67053" pt_clust_10="13000.00000"></scales>
<clustering>
<clus scale="   29.671">  2  9  1 -1</clus>
<clus scale="   82.770">  5  6 -1 -1</clus>
<clus scale="   89.349">  7  8 -1 -1</clus>
<clus scale="   90.667">  1  5  2 -1</clus>
<clus scale="  153.389">  7 10 -1 -1</clus>
<clus scale="   29.671">  2  5  1 -1</clus>
</clustering>
</event>
<event>
10    4  0.2565852E-005  0.3381065E+03  0.7546771E-02  0.1089785E+00
          2   -1    0    0  503    0 -0.00000000000E+00  0.00000000000E+00  0.77541646851E+03  0.77541646851E+03  0.00000000000E+00 0. -1.
         21   -1    0    0  501  502  0.00000000000E+00 -0.00000000000E+00 -0.15155433869E+03  0.15155433869E+03  0.00000000000E+00 0. -1.
         24    2    1    2    0    0  0.35210945236E+02 -0.15498025318E+03  0.26714037328E+03  0.32028212554E+03  0.77187896477E+02 0.  0.
         23    2    1    2    0    0  0.91620139923E+02  0.35379335264E+01  0.18735072205E+03  0.22795678149E+03  0.91963221787E+02 0.  0.
        -11    1    3    3    0    0  0.47489419857E+02 -0.45506409696E+02  0.85896824379E+02  0.10818661082E+03  0.00000000000E+00 0.  1.
         12    1    3    3    0    0 -0.12278474620E+02 -0.10947384349E+03  0.18124354890E+03  0.21209551472E+03  0.00000000000E+00 0. -1.
        -13    1    4    4    0    0  0.28324970347E+02  0.39047367310E+01 -0.16483232029E+01  0.28640319193E+02  0.00000000000E+00 0.  1.
         13    1    4    4    0    0  0.63295169576E+02 -0.36680320460E+00  0.18899904525E+03  0.19931646229E+03  0.00000000000E+00 0. -1.
         21    1    1    2  503  502 -0.19451638481E+02 -0.39251145327E+02 -0.51628556751E+02  0.67709131743E+02  0.00000000000E+00 0. -1.
          1    1    1    2  501    0 -0.10737944668E+03  0.19069346499E+03  0.22099959124E+03  0.31102276844E+03  0.00000000000E+00 0. -1.
<scales pt_clust_5="13000.00000" pt_clust_6="13000.00000" pt_clust_7="13000.00000" pt_clust_8="13000.00000" pt_clust_9="43.80661" pt_clust_10="13000.00000"></scales>
<clustering>
<clus scale="   43.807">  2  9  1 -1</clus>
<clus scale="   77.188">  5  6 -1 -1</clus>
<clus scale="   91.963">  7  8 -1 -1</clus>
<clus scale="  185.740">  1  5  2 -1</clus>
<clus scale="  129.348">  7 10 -1 -1</clus>
<clus scale="   43.807">  2  5  1 -1</clus>
</clustering>
</event>
<event>
10    4  0.2565852E-005  0.2639639E+03  0.7546771E-02  0.1136781E+00
          2   -1    0    0  503    0 -0.00000000000E+00  0.00000000000E+00  0.21520449660E+03  0.21520449660E+03  0.00000000000E+00 0. -1.
         21   -1    0    0  501  502  0.00000000000E+00 -0.00000000000E+00 -0.29631997948E+03  0.29631997948E+03  0.00000000000E+00 0. -1.
         24    2    1    2    0    0 -0.11315700955E+03 -0.17532610451E+01  0.77626805534E+02  0.15013744445E+03  0.60891284691E+02 0.  0.
         23    2    1    2    0    0 -0.98512791980E+01  0.83010789967E+02 -0.80360271750E+02  0.14769621527E+03  0.91479832622E+02 0.  0.
        -11    1    3    3    0    0 -0.19824883037E+02 -0.12943555705E+02 -0.58868703388E+01  0.24397066711E+02  0.00000000000E+00 0.  1.
         12    1    3    3    0    0 -0.93332126518E+02  0.11190294659E+02  0.83513675873E+02  0.12574037773E+03  0.00000000000E+00 0. -1.
        -11    1    4    4    0    0  0.30776928058E+02  0.38816714036E+02 -0.27981383939E+01  0.49616390112E+02  0.00000000000E+00 0.  1.
         11    1    4    4    0    0 -0.40628207256E+02  0.44194075930E+02 -0.77562133356E+02  0.98079825158E+02  0.00000000000E+00 0. -1.
         21    1    1    2  503  502  0.68745386494E+02  0.24383826848E+02 -0.58002768246E+02  0.93192383273E+02  0.00000000000E+00 0. -1.
          1    1    1    2  501    0  0.54262902259E+02 -0.10564135577E+03 -0.20379248416E+02  0.12049843309E+03  0.00000000000E+00 0. -1.
<scales pt_clust_5="13000.00000" pt_clust_6="13000.00000" pt_clust_7="13000.00000" pt_clust_8="13000.00000" pt_clust_9="72.94175" pt_clust_10="13000.00000"></scales>
<clustering>
<clus scale="   60.891">  5  6 -1 -1</clus>
<clus scale="   72.942">  2  9  1 -1</clus>
<clus scale="   91.480">  7  8 -1 -1</clus>
<clus scale="  118.698">  1  5  2 -1</clus>
<clus scale="   99.086">  7 10 -1 -1</clus>
<clus scale="   72.942">  2  5  1 -1</clus>
</clustering>
</event>
<event>
10    4  0.2565852E-005  0.2089000E+03  0.7546771E-02  0.1167975E+00
          2   -1    0    0  502    0 -0.00000000000E+00  0.00000000000E+00  0.39599641765E+03  0.39599641765E+03  0.00000000000E+00 0. -1.
         21   -1    0    0  503  502  0.00000000000E+00 -0.00000000000E+00 -0.90307383104E+02  0.90307383104E+02  0.00000000000E+00 0.  1.
         24    2    1    2    0    0 -0.79477052016E+02 -0.42375458553E+02  0.15198252457E+03  0.19342691188E+03  0.78759133960E+02 0.  0.
         23    2    1    2    0    0 -0.34654364789E+02  0.50076600996E+02  0.13068077084E+03  0.16979670091E+03  0.89693170353E+02 0.  0.
        -11    1    3    3    0    0 -0.12319292957E+02 -0.46682487166E+02  0.39631916311E+02  0.62463656453E+02  0.00000000000E+00 0.  1.
         12    1    3    3    0    0 -0.67157759059E+02  0.43070286131E+01  0.11235060826E+03  0.13096325543E+03  0.00000000000E+00 0. -1.
        -13    1    4    4    0    0  0.18119806450E+02  0.51252745249E+02  0.53350060912E+02  0.76166923797E+02  0.00000000000E+00 0.  1.
         13    1    4    4    0    0 -0.52774171239E+02 -0.11761442526E+01  0.77330709924E+02  0.93629777115E+02  0.00000000000E+00 0. -1.
         21    1    1    2  503  501  0.28521313520E+02 -0.47558014076E+01 -0.10961751917E+02  0.30923178637E+02  0.00000000000E+00 0.  1.
          1    1    1    2  501    0  0.85610103285E+02 -0.29453410354E+01  0.33987491058E+02  0.92157009320E+02  0.00000000000E+00 0. -1.
<scales pt_clust_5="13000.00000" pt_clust_6="13000.00000" pt_clust_7="13000.00000" pt_clust_8="13000.00000" pt_clust_9="28.91510" pt_clust_10="13000.00000"></scales>
<clustering>
<clus scale="   28.915">  2  9  1 -1</clus>
<clus scale="   78.759">  5  6 -1 -1</clus>
<clus scale="   89.693">  7  8 -1 -1</clus>
<clus scale="   97.694">  7 10 -1 -1</clus>
<clus scale="  114.699">  1  5  2 -1</clus>
<clus scale="   28.915">  2  5  1 -1</clus>
</clustering>
</event>
<event>
10    4  0.2565852E-005  0.4188157E+03  0.7546771E-02  0.1072939E+00
         21   -1    0    0  503  502  0.00000000000E+00  0.00000000000E+00  0.81241743010E+03  0.81241743010E+03  0.00000000000E+00 0. -1.
          2   -1    0    0  502    0 -0.00000000000E+00 -0.00000000000E+00 -0.40164469719E+03  0.40164469719E+03  0.00000000000E+00 0. -1.
         24    2    1    2    0    0 -0.16781951939E+03  0.21832589058E+02  0.17783110480E+03  0.25793417740E+03  0.79158606628E+02 0.  0.
         23    2    1    2    0    0 -0.11990309104E+03 -0.26060310396E+02 -0.22339481398E+03  0.26969237962E+03  0.88163743642E+02 0.  0.
        -11    1    3    3    0    0 -0.44077843414E+02 -0.11763379195E+02  0.94718296559E+02  0.10513224564E+03  0.00000000000E+00 0.  1.
         12    1    3    3    0    0 -0.12374167598E+03  0.33595968253E+02  0.83112808243E+02  0.15280193176E+03  0.00000000000E+00 0. -1.
        -13    1    4    4    0    0 -0.14641884694E+02 -0.16176085190E+02 -0.11945809358E+03  0.12143428940E+03  0.00000000000E+00 0.  1.
         13    1    4    4    0    0 -0.10526120634E+03 -0.98842252060E+01 -0.10393672040E+03  0.14825809022E+03  0.00000000000E+00 0. -1.
         21    1    1    2  503  501  0.10143575611E+03  0.94097813274E+02  0.45919188352E+03  0.47958398323E+03  0.00000000000E+00 0. -1.
          1    1    1    2  501    0  0.18628685431E+03 -0.89870091935E+02 -0.28554414388E+01  0.20685158704E+03  0.00000000000E+00 0. -1.
<scales pt_clust_5="13000.00000" pt_clust_6="13000.00000" pt_clust_7="13000.00000" pt_clust_8="13000.00000" pt_clust_9="138.36044" pt_clust_10="13000.00000"></scales>
<clustering>
<clus scale="   79.159">  5  6 -1 -1</clus>
<clus scale="   88.164">  7  8 -1 -1</clus>
<clus scale="  138.360">  1  9  2 -1</clus>
<clus scale="  153.670">  2  5  1 -1</clus>
<clus scale="  182.152">  7 10 -1 -1</clus>
<clus scale="  138.360">  1  5  2 -1</clus>
</clustering>
</event>
<event>
10    4  0.2565852E-005  0.2868016E+03  0.7546771E-02  0.1131743E+00
         -1   -1    0    0    0  501 -0.00000000000E+00  0.00000000000E+00  0.20009760037E+03  0.20009760037E+03  0.00000000000E+00 0.  1.
         21   -1    0    0  503  502  0.00000000000E+00 -0.00000000000E+00 -0.43305073519E+03  0.43305073519E+03  0.00000000000E+00 0.  1.
         24    2    1    2    0    0 -0.47654084096E+02 -0.59670004966E+02 -0.44611223340E+02  0.11936691117E+03  0.80167805327E+02 0.  0.
         23    2    1    2    0    0 -0.32026427787E+02 -0.63685842968E+02  0.93760957253E+02  0.15199010085E+03  0.96064015007E+02 0.  0.
        -13    1    3    3    0    0 -0.60099004877E+02 -0.19533971596E+02 -0.44597081037E+02  0.77345756642E+02  0.00000000000E+00 0.  1.
         14    1    3    3    0    0  0.12444920781E+02 -0.40136033370E+02 -0.14142303576E-01  0.42021154529E+02  0.00000000000E+00 0. -1.
        -11    1    4    4    0    0 -0.11700228263E+02 -0.34038933182E+02 -0.13825473335E+02  0.38557593630E+02  0.00000000000E+00 0. -1.
         11    1    4    4    0    0 -0.20326199523E+02 -0.29646909786E+02  0.10758643059E+03  0.11343250722E+03  0.00000000000E+00 0.  1.
         21    1    1    2  503  501 -0.10285433021E+01  0.31962633513E+02 -0.22480900813E+03  0.22707214267E+03  0.00000000000E+00 0.  1.
         -2    1    1    2    0  502  0.80709055184E+02  0.91393214421E+02 -0.57293860602E+02  0.13471918087E+03  0.00000000000E+00 0.  1.
<scales pt_clust_5="13000.00000" pt_clust_6="13000.00000" pt_clust_7="13000.00000" pt_clust_8="13000.00000" pt_clust_9="31.97918" pt_clust_10="13000.00000"></scales>
<clustering>
<clus scale="   31.979">  2  9  1 -1</clus>
<clus scale="   80.168">  5  6 -1 -1</clus>
<clus scale="   96.064">  7  8 -1 -1</clus>
<clus scale="  104.630">  1  5  2 -1</clus>
<clus scale="  114.305">  7 10 -1 -1</clus>
<clus scale="   31.979">  2  5  1 -1</clus>
</clustering>
</event>
<event>
10    4  0.2565852E-005  0.3814608E+03  0.7546771E-02  0.1051605E+00
          2   -1    0    0  502    0 -0.00000000000E+00  0.00000000000E+00  0.10708226672E+04  0.10708226672E+04  0.00000000000E+00 0. -1.
         21   -1    0    0  503  502  0.00000000000E+00 -0.00000000000E+00 -0.16159163378E+03  0.16159163378E+03  0.00000000000E+00 0.  1.
         24    2    1    2    0    0 -0.20946105739E+03  0.28881209007E+03  0.42312869101E+03  0.55929017422E+03  0.80506222674E+02 0.  0.
         23    2    1    2    0    0  0.87751291645E+02 -0.20918079384E+03  0.27949036964E+03  0.37294409048E+03  0.97547599670E+02 0.  0.
        -11    1    3    3    0    0 -0.13022974295E+03  0.13885712219E+03  0.27279463272E+03  0.33265296929E+03  0.00000000000E+00 0.  1.
         12    1    3    3    0    0 -0.79231314440E+02  0.14995496788E+03  0.15033405829E+03  0.22663720493E+03  0.00000000000E+00 0. -1.
        -13    1    4    4    0    0  0.76515339384E+02 -0.60970714779E+02  0.99990099118E+02  0.13989297746E+03  0.00000000000E+00 0.  1.
         13    1    4    4    0    0  0.11235952261E+02 -0.14821007907E+03  0.17950027052E+03  0.23305111301E+03  0.00000000000E+00 0. -1.
         21    1    1    2  503  501  0.51154877161E+02  0.40670501023E+02  0.22306036321E+02  0.69054111877E+02  0.00000000000E+00 0. -1.
          1    1    1    2  501    0  0.70554888588E+02 -0.12030179724E+03  0.18430593645E+03  0.23112592441E+03  0.00000000000E+00 0. -1.
<scales pt_clust_5="13000.00000" pt_clust_6="13000.00000" pt_clust_7="13000.00000" pt_clust_8="13000.00000" pt_clust_9="65.35221" pt_clust_10="13000.00000"></scales>
<clustering>
<clus scale="   65.352">  2  9  1 -1</clus>
<clus scale="   80.506">  5  6 -1 -1</clus>
<clus scale="   97.548">  7  8 -1 -1</clus>
<clus scale="  138.341">  7 10 -1 -1</clus>
<clus scale="  368.537">  1  5  2 -1</clus>
<clus scale="   65.352">  2  5  1 -1</clus>
</clustering>
</event>
<event>
10    4  0.2565852E-005  0.4876690E+03  0.7546771E-02  0.1044166E+00
         21   -1    0    0  501  502  0.00000000000E+00  0.00000000000E+00  0.16249787006E+03  0.16249787006E+03  0.00000000000E+00 0.  1.
          2   -1    0    0  503    0 -0.00000000000E+00 -0.00000000000E+00 -0.10816533179E+04  0.10816533179E+04  0.00000000000E+00 0. -1.
         24    2    1    2    0    0  0.17507233591E+02  0.19971220236E+03 -0.56075893580E+03  0.60069977592E+03  0.78728455544E+02 0.  0.
         23    2    1    2    0    0 -0.99652327748E+01 -0.12248563909E+02  0.81375377060E+02  0.12248167731E+03  0.90169152718E+02 0.  0.
        -11    1    3    3    0    0 -0.16910979255E+02  0.13672585175E+03 -0.43007216509E+03  0.45159938766E+03  0.00000000000E+00 0.  1.
         12    1    3    3    0    0  0.34418212846E+02  0.62986350612E+02 -0.13068677071E+03  0.14910038825E+03  0.00000000000E+00 0. -1.
        -13    1    4    4    0    0  0.15711411466E+02  0.15393793816E+02 -0.95954914040E+01  0.23997724759E+02  0.00000000000E+00 0. -1.
         13    1    4    4    0    0 -0.25676644241E+02 -0.27642357725E+02  0.90970868464E+02  0.98483952546E+02  0.00000000000E+00 0.  1.
         21    1    1    2  503  502  0.14575510535E+02  0.21401173679E+02  0.73991723039E+01  0.26929602541E+02  0.00000000000E+00 0.  1.
          1    1    1    2  501    0 -0.22117511352E+02 -0.20886481213E+03 -0.44717106140E+03  0.49404013218E+03  0.00000000000E+00 0. -1.
<scales pt_clust_5="13000.00000" pt_clust_6="13000.00000" pt_clust_7="13000.00000" pt_clust_8="13000.00000" pt_clust_9="25.89316" pt_clust_10="13000.00000"></scales>
<clustering>
<clus scale="   25.893">  1  9  2 -1</clus>
<clus scale="   78.728">  5  6 -1 -1</clus>
<clus scale="   90.169">  7  8 -1 -1</clus>
<clus scale="  206.363">  7 10 -1 -1</clus>
<clus scale="  218.282">  2  5  1 -1</clus>
<clus scale="   25.893">  1  5  2 -1</clus>
</clustering>
</event>
<event>
10    4  0.2565852E-005  0.5324237E+03  0.7546771E-02  0.1021792E+00
         21   -1    0    0  503  502  0.00000000000E+00  0.00000000000E+00  0.45934300087E+03  0.45934300087E+03  0.00000000000E+00 0.  1.
          2   -1    0    0  502    0 -0.00000000000E+00 -0.00000000000E+00 -0.20193644259E+04  0.20193644259E+04  0.00000000000E+00 0. -1.
         24    2    1    2    0    0 -0.18272783890E+03  0.32909183670E+03 -0.73760482174E+03  0.83244950281E+03  0.84972946208E+02 0.  0.
         23    2    1    2    0    0  0.50033739920E+02 -0.34364128899E+03 -0.64314503374E+03  0.73651752206E+03  0.90718329207E+02 0.  0.
        -11    1    3    3    0    0 -0.54075884885E+02  0.17457453484E+03 -0.39438344305E+03  0.43467087513E+03  0.00000000000E+00 0.  1.
         12    1    3    3    0    0 -0.12865195401E+03  0.15451730186E+03 -0.34322137870E+03  0.39777862768E+03  0.00000000000E+00 0. -1.
        -11    1    4    4    0    0  0.60587687260E+02 -0.27926340560E+03 -0.45408466329E+03  0.53651821869E+03  0.00000000000E+00 0. -1.
         11    1    4    4    0    0 -0.10553947340E+02 -0.64377883391E+02 -0.18906037045E+03  0.19999930337E+03  0.00000000000E+00 0.  1.
         21    1    1    2  503  501  0.13142232089E+03 -0.82145073853E+02  0.34416243046E+03  0.37744856355E+03  0.00000000000E+00 0.  1.
          1    1    1    2  501    0  0.12717780889E+01  0.96694526144E+02 -0.52343400000E+03  0.53229183834E+03  0.00000000000E+00 0. -1.
<scales pt_clust_5="13000.00000" pt_clust_6="13000.00000" pt_clust_7="13000.00000" pt_clust_8="13000.00000" pt_clust_9="154.98271" pt_clust_10="13000.00000"></scales>
<clustering>
<clus scale="   84.973">  5  6 -1 -1</clus>
<clus scale="   90.718">  7  8 -1 -1</clus>
<clus scale="   96.703">  7 10 -1 -1</clus>
<clus scale="  154.983">  1  9  2 -1</clus>
<clus scale="  324.561">  2  5  1 -1</clus>
<clus scale="  154.983">  1  5  2 -1</clus>
</clustering>
</event>
<event>
10    4  0.2565852E-005  0.3321106E+03  0.7546771E-02  0.1120835E+00
          2   -1    0    0  502    0 -0.00000000000E+00  0.00000000000E+00  0.18057020637E+04  0.18057020637E+04  0.00000000000E+00 0. -1.
         21   -1    0    0  503  502  0.00000000000E+00 -0.00000000000E+00 -0.34053738298E+02  0.34053738298E+02  0.00000000000E+00 0. -1.
         24    2    1    2    0    0  0.16746411661E+02 -0.32568551570E+02  0.15387719458E+03  0.17739389937E+03  0.80307232971E+02 0.  0.
         23    2    1    2    0    0 -0.11002944424E+02  0.14670670590E+03  0.59284230820E+03  0.61886401383E+03  0.99432101874E+02 0.  0.
        -11    1    3    3    0    0  0.44901401839E+01  0.27037867076E+02  0.47281688168E+02  0.54651309690E+02  0.00000000000E+00 0.  1.
         12    1    3    3    0    0  0.12256271477E+02 -0.59606418646E+02  0.10659550641E+03  0.12274258968E+03  0.00000000000E+00 0. -1.
        -13    1    4    4    0    0 -0.59323187082E+01  0.45964141820E+02  0.56297791474E+02  0.72920066260E+02  0.00000000000E+00 0.  1.
         13    1    4    4    0    0 -0.50706257157E+01  0.10074256408E+03  0.53654451672E+03  0.54594394757E+03  0.00000000000E+00 0. -1.
         21    1    1    2  503  501  0.17704324733E+02  0.12112518782E+02  0.16861425781E+02  0.27284865857E+02  0.00000000000E+00 0.  1.
          1    1    1    2  501    0 -0.23447791970E+02 -0.12625067311E+03  0.10080673969E+04  0.10162130230E+04  0.00000000000E+00 0. -1.
<scales pt_clust_5="13000.00000" pt_clust_6="13000.00000" pt_clust_7="13000.00000" pt_clust_8="13000.00000" pt_clust_9="21.45125" pt_clust_10="13000.00000"></scales>
<clustering>
<clus scale="   21.451">  2  9  1 -1</clus>
<clus scale="   80.307">  5  6 -1 -1</clus>
<clus scale="   88.244">  1  5  2 -1</clus>
<clus scale="   99.432">  7  8 -1 -1</clus>
<clus scale="  141.369">  7 10 -1 -1</clus>
<clus scale="   21.451">  2  5  1 -1</clus>
</clustering>
</event>
<event>
10    4  0.2565852E-005  0.6132907E+03  0.7546771E-02  0.1015628E+00
         21   -1    0    0  503  502  0.00000000000E+00  0.00000000000E+00  0.49530941189E+03  0.49530941189E+03  0.00000000000E+00 0.  1.
          2   -1    0    0  502    0 -0.00000000000E+00 -0.00000000000E+00 -0.72257169674E+03  0.72257169674E+03  0.00000000000E+00 0. -1.
         24    2    1    2    0    0 -0.19816100584E+03  0.15187489248E+03  0.81062073802E+02  0.27449007035E+03  0.80249434314E+02 0.  0.
         23    2    1    2    0    0  0.17422011967E+03 -0.24950359557E+03 -0.42536118049E+02  0.32080768237E+03  0.92214713705E+02 0.  0.
        -13    1    3    3    0    0 -0.45867953348E+02  0.62579905389E+02  0.57088424720E+02  0.96328614336E+02  0.00000000000E+00 0.  1.
         14    1    3    3    0    0 -0.15229305250E+03  0.89294987095E+02  0.23973649082E+02  0.17816145601E+03  0.00000000000E+00 0. -1.
        -13    1    4    4    0    0  0.29997239890E+02 -0.12100400975E+03 -0.21407445793E+02  0.12649143652E+03  0.00000000000E+00 0.  1.
         13    1    4    4    0    0  0.14422287978E+03 -0.12849958582E+03 -0.21128672256E+02  0.19431624585E+03  0.00000000000E+00 0. -1.
         21    1    1    2  503  501 -0.10754836732E+02 -0.36075460846E+02  0.16549339351E+03  0.16972085519E+03  0.00000000000E+00 0.  1.
          1    1    1    2  501    0  0.34695722904E+02  0.13370416394E+03 -0.43128163411E+03  0.45286250073E+03  0.00000000000E+00 0. -1.
<scales pt_clust_5="13000.00000" pt_clust_6="13000.00000" pt_clust_7="13000.00000" pt_clust_8="13000.00000" pt_clust_9="37.64446" pt_clust_10="13000.00000"></scales>
<clustering>
<clus scale="   37.644">  1  9  2 -1</clus>
<clus scale="   80.249">  5  6 -1 -1</clus>
<clus scale="   92.215">  7  8 -1 -1</clus>
<clus scale="  136.894">  7 10 -1 -1</clus>
<clus scale="  256.044">  2  5  1 -1</clus>
<clus scale="   37.644">  1  5  2 -1</clus>
</clustering>
</event>
<event>
10    4  0.2565852E-005  0.1595633E+03  0.7546771E-02  0.1218216E+00
         21   -1    0    0  503  502  0.00000000000E+00  0.00000000000E+00  0.21364052677E+03  0.21364052677E+03  0.00000000000E+00 0.  1.
         -3   -1    0    0    0  501 -0.00000000000E+00 -0.00000000000E+00 -0.14728775539E+03  0.14728775539E+03  0.00000000000E+00 0.  1.
         24    2    1    2    0    0  0.23264222603E+02  0.19869054365E+02  0.31611267593E+02  0.92043220363E+02  0.80849729754E+02 0.  0.
         23    2    1    2    0    0  0.46639949373E+02 -0.27012488022E+02 -0.91763183952E+01  0.10435443042E+03  0.88885785938E+02 0.  0.
        -11    1    3    3    0    0  0.57089301908E+01  0.23906990138E+02  0.56328933066E+02  0.61457991846E+02  0.00000000000E+00 0.  1.
         12    1    3    3    0    0  0.17555292412E+02 -0.40379357734E+01 -0.24717665473E+02  0.30585228517E+02  0.00000000000E+00 0. -1.
        -13    1    4    4    0    0  0.65143227860E+02 -0.46339385397E+01  0.14487942940E+02  0.66895545540E+02  0.00000000000E+00 0.  1.
         13    1    4    4    0    0 -0.18503278487E+02 -0.22378549483E+02 -0.23664261336E+02  0.37458884878E+02  0.00000000000E+00 0. -1.
         21    1    1    2  503  501 -0.26323010089E+02  0.10575279536E+02  0.93921312191E+02  0.98111927313E+02  0.00000000000E+00 0. -1.
         -4    1    1    2    0  502 -0.43581161888E+02 -0.34318458791E+01 -0.50003490004E+02  0.66418704069E+02  0.00000000000E+00 0.  1.
<scales pt_clust_5="13000.00000" pt_clust_6="13000.00000" pt_clust_7="13000.00000" pt_clust_8="13000.00000" pt_clust_9="28.36789" pt_clust_10="13000.00000"></scales>
<clustering>
<clus scale="   28.368">  1  9  2 -1</clus>
<clus scale="   80.850">  5  6 -1 -1</clus>
<clus scale="   85.277">  2  5  1 -1</clus>
<clus scale="   88.886">  7  8 -1 -1</clus>
<clus scale="   41.795">  7 10 -1 -1</clus>
<clus scale="   28.368">  1  5  2 -1</clus>
</clustering>
</event>
<event>
10    4  0.2565852E-005  0.4199875E+03  0.7546771E-02  0.1095360E+00
         21   -1    0    0  501  502  0.00000000000E+00  0.00000000000E+00  0.34287435090E+03  0.34287435090E+03  0.00000000000E+00 0.  1.
         -3   -1    0    0    0  501 -0.00000000000E+00 -0.00000000000E+00 -0.21827964402E+03  0.21827964402E+03  0.00000000000E+00 0.  1.
         24    2    1    2    0    0  0.88132903801E+01 -0.14130447912E+02  0.54566389756E+02  0.98449708772E+02  0.80234098866E+02 0.  0.
         23    2    1    2    0    0  0.11244399949E+03  0.16324355448E+03  0.46909220125E+02  0.22331810995E+03  0.91533557756E+02 0.  0.
        -11    1    3    3    0    0  0.39846474952E+02  0.40292557231E+01  0.46922231831E+02  0.61690131365E+02  0.00000000000E+00 0.  1.
         12    1    3    3    0    0 -0.31033184572E+02 -0.18159703636E+02  0.76441579250E+01  0.36759577407E+02  0.00000000000E+00 0. -1.
        -11    1    4    4    0    0  0.10285574992E+03  0.12768625315E+03  0.35807488478E+00  0.16396100985E+03  0.00000000000E+00 0. -1.
         11    1    4    4    0    0  0.95882495659E+01  0.35557301339E+02  0.46551145240E+02  0.59357100093E+02  0.00000000000E+00 0.  1.
         21    1    1    2  503  502  0.29182413754E+02 -0.14654056356E+02  0.18566715120E+02  0.37564312193E+02  0.00000000000E+00 0.  1.
         -4    1    1    2    0  503 -0.15043970362E+03 -0.13445905022E+03  0.45523818792E+01  0.20182186401E+03  0.00000000000E+00 0.  1.
<scales pt_clust_5="13000.00000" pt_clust_6="13000.00000" pt_clust_7="13000.00000" pt_clust_8="13000.00000" pt_clust_9="32.65509" pt_clust_10="13000.00000"></scales>
<clustering>
<clus scale="   32.655">  1  9  2 -1</clus>
<clus scale="   80.234">  5  6 -1 -1</clus>
<clus scale="   83.687">  2  5  1 -1</clus>
<clus scale="   91.534">  7  8 -1 -1</clus>
<clus scale="  199.036">  7 10 -1 -1</clus>
<clus scale="   32.655">  1  5  2 -1</clus>
</clustering>
</event>
<event>
10    4  0.2565852E-005  0.2308723E+03  0.7546771E-02  0.1150702E+00
          2   -1    0    0  502    0 -0.00000000000E+00  0.00000000000E+00  0.14776824727E+04  0.14776824727E+04  0.00000000000E+00 0. -1.
         21   -1    0    0  503  502  0.00000000000E+00 -0.00000000000E+00 -0.34342801631E+02  0.34342801631E+02  0.00000000000E+00 0. -1.
         24    2    1    2    0    0 -0.94950228893E+02  0.24834926972E+02  0.87684724254E+03  0.88600741092E+03  0.80720046367E+02 0.  0.
         23    2    1    2    0    0 -0.73591838167E+01 -0.18731370942E+02  0.85004891138E+02  0.12357685873E+03  0.87409305301E+02 0.  0.
        -11    1    3    3    0    0 -0.61439870957E+02 -0.50776927972E-01  0.23815018090E+03  0.24594789892E+03  0.00000000000E+00 0.  1.
         12    1    3    3    0    0 -0.33510357935E+02  0.24885703900E+02  0.63869706164E+03  0.64005951200E+03  0.00000000000E+00 0. -1.
        -13    1    4    4    0    0 -0.34251955980E+01  0.35164559511E+02  0.38816417125E+02  0.52488021956E+02  0.00000000000E+00 0.  1.
         13    1    4    4    0    0 -0.39339882187E+01 -0.53895930453E+02  0.46188474013E+02  0.71088836777E+02  0.00000000000E+00 0. -1.
         21    1    1    2  503  501  0.88957986494E+01  0.31138768934E+02  0.51387340848E+02  0.60740570986E+02  0.00000000000E+00 0. -1.
          1    1    1    2  501    0  0.93413614060E+02 -0.37242324964E+02  0.43010019655E+03  0.44170043370E+03  0.00000000000E+00 0. -1.
<scales pt_clust_5="13000.00000" pt_clust_6="13000.00000" pt_clust_7="13000.00000" pt_clust_8="13000.00000" pt_clust_9="32.38454" pt_clust_10="13000.00000"></scales>
<clustering>
<clus scale="   32.385">  2  9  1 -1</clus>
<clus scale="   80.720">  5  6 -1 -1</clus>
<clus scale="   87.409">  7  8 -1 -1</clus>
<clus scale="  100.123">  7 10 -1 -1</clus>
<clus scale="  127.087">  1  5  2 -1</clus>
<clus scale="   32.385">  2  5  1 -1</clus>
</clustering>
</event>
<event>
10    4  0.2565852E-005  0.8928993E+03  0.7546771E-02  0.9877038E-01
         21   -1    0    0  501  502  0.00000000000E+00  0.00000000000E+00  0.17653140432E+04  0.17653140432E+04  0.00000000000E+00 0.  1.
         -1   -1    0    0    0  501 -0.00000000000E+00 -0.00000000000E+00 -0.37070023771E+03  0.37070023771E+03  0.00000000000E+00 0.  1.
         24    2    1    2    0    0  0.12396097736E+03 -0.11634428433E+03 -0.79082139117E+02  0.20803964535E+03  0.90134304822E+02 0.  0.
         23    2    1    2    0    0  0.80860713422E+02 -0.11554225720E+03 -0.12358275370E+03  0.20904156842E+03  0.92397035362E+02 0.  0.
        -11    1    3    3    0    0  0.45559926252E+02 -0.65486446521E+02  0.81628362228E+01  0.80192352835E+02  0.00000000000E+00 0.  1.
         12    1    3    3    0    0  0.78401051111E+02 -0.50857837812E+02 -0.87244975340E+02  0.12784729252E+03  0.00000000000E+00 0. -1.
        -13    1    4    4    0    0  0.61496908611E+02 -0.38907769245E+02 -0.14290015719E+02  0.74161235329E+02  0.00000000000E+00 0. -1.
         13    1    4    4    0    0  0.19363804811E+02 -0.76634487957E+02 -0.10929273798E+03  0.13488033309E+03  0.00000000000E+00 0.  1.
         21    1    1    2  503  502  0.16182990173E+03 -0.15514000706E+02  0.69906544663E+03  0.71772007077E+03  0.00000000000E+00 0.  1.
         -2    1    1    2    0  503 -0.36665159252E+03  0.24740054224E+03  0.89821325171E+03  0.10012129964E+04  0.00000000000E+00 0.  1.
<scales pt_clust_5="13000.00000" pt_clust_6="13000.00000" pt_clust_7="13000.00000" pt_clust_8="13000.00000" pt_clust_9="162.57183" pt_clust_10="13000.00000"></scales>
<clustering>
<clus scale="   90.134">  5  6 -1 -1</clus>
<clus scale="   92.397">  7  8 -1 -1</clus>
<clus scale="  162.572">  1  9  2 -1</clus>
<clus scale="  199.481">  2  5  1 -1</clus>
<clus scale="  289.188">  7 10 -1 -1</clus>
<clus scale="  162.572">  1  5  2 -1</clus>
</clustering>
</event>
<event>
10    4  0.2565852E-005  0.4375230E+03  0.7546771E-02  0.1079645E+00
          2   -1    0    0  502    0 -0.00000000000E+00  0.00000000000E+00  0.13540150794E+04  0.13540150794E+04  0.00000000000E+00 0. -1.
         21   -1    0    0  503  502  0.00000000000E+00 -0.00000000000E+00 -0.14104377384E+03  0.14104377384E+03  0.00000000000E+00 0. -1.
         24    2    1    2    0    0  0.65315938933E+02  0.35775291766E+02  0.28107608942E+03  0.29998599280E+03  0.73768451630E+02 0.  0.
         23    2    1    2    0    0 -0.22541906785E+03  0.36453344089E+00  0.28770279971E+03  0.37686766584E+03  0.91882792507E+02 0.  0.
        -11    1    3    3    0    0  0.18919846631E+01  0.29227796961E+02  0.16473359840E+03  0.16731707075E+03  0.00000000000E+00 0.  1.
         12    1    3    3    0    0  0.63423954270E+02  0.65474948049E+01  0.11634249101E+03  0.13266892205E+03  0.00000000000E+00 0. -1.
        -13    1    4    4    0    0 -0.22211859634E+03  0.20302479713E+02  0.26755167550E+03  0.34832852394E+03  0.00000000000E+00 0. -1.
         13    1    4    4    0    0 -0.33004715092E+01 -0.19937946272E+02  0.20151124210E+02  0.28539141905E+02  0.00000000000E+00 0.  1.
         21    1    1    2  503  501  0.65608678254E+02  0.10397814401E+02 -0.69874705922E+02  0.96411035334E+02  0.00000000000E+00 0. -1.
          1    1    1    2  501    0  0.94494450666E+02 -0.46537639608E+02  0.71406712238E+03  0.72179415928E+03  0.00000000000E+00 0. -1.
<scales pt_clust_5="13000.00000" pt_clust_6="13000.00000" pt_clust_7="13000.00000" pt_clust_8="13000.00000" pt_clust_9="66.42750" pt_clust_10="13000.00000"></scales>
<clustering>
<clus scale="   66.428">  2  9  1 -1</clus>
<clus scale="   73.768">  5  6 -1 -1</clus>
<clus scale="   91.883">  7  8 -1 -1</clus>
<clus scale="  108.983">  7 10 -1 -1</clus>
<clus scale="  112.368">  1  5  2 -1</clus>
<clus scale="   66.428">  2  5  1 -1</clus>
</clustering>
</event>
<event>
10    4  0.2565852E-005  0.2061408E+03  0.7546771E-02  0.1167819E+00
         21   -1    0    0  501  502  0.00000000000E+00  0.00000000000E+00  0.38708507021E+03  0.38708507021E+03  0.00000000000E+00 0. -1.
          2   -1    0    0  503    0 -0.00000000000E+00 -0.00000000000E+00 -0.17283475447E+03  0.17283475447E+03  0.00000000000E+00 0. -1.
         24    2    1    2    0    0  0.82978436716E+02 -0.57188034670E+02 -0.61183950923E+01  0.13016092679E+03  0.82149496860E+02 0.  0.
         23    2    1    2    0    0  0.81097521656E+01  0.34085055600E+02 -0.63309707838E+02  0.11424852539E+03  0.88414067619E+02 0.  0.
        -11    1    3    3    0    0  0.30556731330E+02 -0.68882211440E+02  0.41833369922E+01  0.75471671446E+02  0.00000000000E+00 0.  1.
         12    1    3    3    0    0  0.52421705386E+02  0.11694176769E+02 -0.10301732085E+02  0.54689255342E+02  0.00000000000E+00 0. -1.
        -13    1    4    4    0    0  0.26647398495E+01 -0.30335057566E+02 -0.20566027649E+02  0.36746129718E+02  0.00000000000E+00 0.  1.
         13    1    4    4    0    0  0.54450123162E+01  0.64420113166E+02 -0.42743680189E+02  0.77502395676E+02  0.00000000000E+00 0. -1.
         21    1    1    2  503  502 -0.27337939845E+02  0.20967449556E+02  0.22875975968E+03  0.23133963030E+03  0.00000000000E+00 0. -1.
          1    1    1    2  501    0 -0.63750249037E+02  0.21355295140E+01  0.54918658983E+02  0.84170742203E+02  0.00000000000E+00 0. -1.
<scales pt_clust_5="13000.00000" pt_clust_6="13000.00000" pt_clust_7="13000.00000" pt_clust_8="13000.00000" pt_clust_9="34.45282" pt_clust_10="13000.00000"></scales>
<clustering>
<clus scale="   34.453">  1  9  2 -1</clus>
<clus scale="   82.149">  5  6 -1 -1</clus>
<clus scale="   88.414">  7  8 -1 -1</clus>
<clus scale="   76.712">  7 10 -1 -1</clus>
<clus scale="  119.794">  2  5  1 -1</clus>
<clus scale="   34.453">  1  5  2 -1</clus>
</clustering>
</event>
<event>
10    4  0.2565852E-005  0.2861839E+03  0.7546771E-02  0.1138155E+00
          2   -1    0    0  503    0 -0.00000000000E+00  0.00000000000E+00  0.68507166768E+03  0.68507166768E+03  0.00000000000E+00 0. -1.
         21   -1    0    0  501  502  0.00000000000E+00 -0.00000000000E+00 -0.61309140675E+02  0.61309140675E+02  0.00000000000E+00 0. -1.
         24    2    1    2    0    0  0.24117427062E+02 -0.25324091077E+02  0.10912969587E+03  0.14089561912E+03  0.81971489493E+02 0.  0.
         23    2    1    2    0    0 -0.11370393658E+03 -0.33376163362E+02  0.11862295835E+03  0.19026649574E+03  0.89929859762E+02 0.  0.
        -13    1    3    3    0    0 -0.24383048154E+02  0.11750053200E+02  0.24238652830E+02  0.36333305362E+02  0.00000000000E+00 0.  1.
         14    1    3    3    0    0  0.48500475216E+02 -0.37074144277E+02  0.84891043040E+02  0.10456231376E+03  0.00000000000E+00 0. -1.
        -11    1    4    4    0    0 -0.82776656838E+02 -0.10600822452E+02  0.12602514630E+03  0.15115121519E+03  0.00000000000E+00 0. -1.
         11    1    4    4    0    0 -0.30927279746E+02 -0.22775340910E+02 -0.74021879454E+01  0.39115280549E+02  0.00000000000E+00 0.  1.
         21    1    1    2  503  502  0.24803226573E+02  0.16551044803E+02  0.34777016031E+02  0.45810238774E+02  0.00000000000E+00 0. -1.
          1    1    1    2  501    0  0.64783282950E+02  0.42149209635E+02  0.36123285675E+03  0.36940845472E+03  0.00000000000E+00 0. -1.
<scales pt_clust_5="13000.00000" pt_clust_6="13000.00000" pt_clust_7="13000.00000" pt_clust_8="13000.00000" pt_clust_9="29.81840" pt_clust_10="13000.00000"></scales>
<clustering>
<clus scale="   29.818">  2  9  1 -1</clus>
<clus scale="   81.971">  5  6 -1 -1</clus>
<clus scale="   89.930">  7  8 -1 -1</clus>
<clus scale="   79.473">  7 10 -1 -1</clus>
<clus scale="   90.090">  1  5  2 -1</clus>
<clus scale="   29.818">  2  5  1 -1</clus>
</clustering>
</event>
<event>
10    4  0.2565852E-005  0.2170262E+03  0.7546771E-02  0.1157494E+00
          4   -1    0    0  503    0 -0.00000000000E+00  0.00000000000E+00  0.41107659821E+03  0.41107659821E+03  0.00000000000E+00 0. -1.
         21   -1    0    0  501  502  0.00000000000E+00 -0.00000000000E+00 -0.15647839328E+03  0.15647839328E+03  0.00000000000E+00 0.  1.
         24    2    1    2    0    0 -0.17865844488E+02 -0.10143235813E+03  0.56722269682E+02  0.14220569142E+03  0.79983317747E+02 0.  0.
         23    2    1    2    0    0 -0.92266774514E+01  0.13046606472E+02  0.86629039261E+02  0.12552263240E+03  0.89420329261E+02 0.  0.
        -11    1    3    3    0    0 -0.19394934958E+02  0.79782448734E+01  0.84690179457E+01  0.22617253552E+02  0.00000000000E+00 0.  1.
         12    1    3    3    0    0  0.15290904696E+01 -0.10941060301E+03  0.48253251736E+02  0.11958843787E+03  0.00000000000E+00 0. -1.
        -13    1    4    4    0    0 -0.45627413615E+02 -0.99692347280E+01  0.35447716129E+02  0.58632645284E+02  0.00000000000E+00 0.  1.
         13    1    4    4    0    0  0.36400736164E+02  0.23015841200E+02  0.51181323132E+02  0.66889987120E+02  0.00000000000E+00 0. -1.
         21    1    1    2  503  502  0.93054360356E+02  0.13702438379E+03  0.13589171972E+03  0.21424601565E+03  0.00000000000E+00 0.  1.
          3    1    1    2  501    0 -0.65961838417E+02 -0.48638632131E+02 -0.24644823725E+02  0.85580652015E+02  0.00000000000E+00 0. -1.
<scales pt_clust_5="13000.00000" pt_clust_6="13000.00000" pt_clust_7="13000.00000" pt_clust_8="13000.00000" pt_clust_9="115.31669" pt_clust_10="13000.00000"></scales>
<clustering>
<clus scale="   79.983">  5  6 -1 -1</clus>
<clus scale="   89.420">  7  8 -1 -1</clus>
<clus scale="   81.955">  7 10 -1 -1</clus>
<clus scale="  130.403">  1  5  2 -1</clus>
<clus scale="  115.317">  2  9  1 -1</clus>
<clus scale="  115.317">  2  5  1 -1</clus>
</clustering>
</event>
<event>
10    4  0.2565852E-005  0.7494894E+03  0.7546771E-02  0.9910676E-01
          2   -1    0    0  503    0 -0.00000000000E+00  0.00000000000E+00  0.10996329630E+04  0.10996329630E+04  0.00000000000E+00 0. -1.
         21   -1    0    0  501  502  0.00000000000E+00 -0.00000000000E+00 -0.65352377932E+03  0.65352377932E+03  0.00000000000E+00 0. -1.
         24    2    1    2    0    0  0.28021060858E+03 -0.57977205748E+02  0.71629511941E+03  0.77546687137E+03  0.79942660407E+02 0.  0.
         23    2    1    2    0    0  0.19206194226E+03  0.73144230797E+02  0.29099072975E+01  0.22487689302E+03  0.91232018998E+02 0.  0.
        -13    1    3    3    0    0  0.77513201316E+02 -0.29265270034E+02  0.12711636822E+03  0.15173438462E+03  0.00000000000E+00 0.  1.
         14    1    3    3    0    0  0.20269740726E+03 -0.28711935713E+02  0.58917875120E+03  0.62373248675E+03  0.00000000000E+00 0. -1.
        -13    1    4    4    0    0  0.12943459042E+03  0.12674054789E+02 -0.26997936457E+02  0.13282632810E+03  0.00000000000E+00 0. -1.
         13    1    4    4    0    0  0.62627351834E+02  0.60470176008E+02  0.29907843755E+02  0.92050564921E+02  0.00000000000E+00 0.  1.
         21    1    1    2  503  502  0.86664866189E+02 -0.52710101871E+02 -0.14699890387E+03  0.17859964056E+03  0.00000000000E+00 0. -1.
          1    1    1    2  501    0 -0.55893741702E+03  0.37543076821E+02 -0.12609693915E+03  0.57421333739E+03  0.00000000000E+00 0. -1.
<scales pt_clust_5="13000.00000" pt_clust_6="13000.00000" pt_clust_7="13000.00000" pt_clust_8="13000.00000" pt_clust_9="101.43547" pt_clust_10="13000.00000"></scales>
<clustering>
<clus scale="   79.943">  5  6 -1 -1</clus>
<clus scale="   91.232">  7  8 -1 -1</clus>
<clus scale="  101.435">  2  9  1 -1</clus>
<clus scale="  302.662">  1  5  2 -1</clus>
<clus scale="  335.905">  7 10 -1 -1</clus>
<clus scale="  101.435">  2  5  1 -1</clus>
</clustering>
</event>
<event>
10    4  0.2565852E-005  0.6732944E+03  0.7546771E-02  0.9821446E-01
         21   -1    0    0  503  502  0.00000000000E+00  0.00000000000E+00  0.49933708419E+03  0.49933708419E+03  0.00000000000E+00 0. -1.
          2   -1    0    0  502    0 -0.00000000000E+00 -0.00000000000E+00 -0.11869907016E+04  0.11869907016E+04  0.00000000000E+00 0. -1.
         24    2    1    2    0    0  0.20962378348E+03 -0.51096017350E+03 -0.69223202591E+03  0.88907788653E+03  0.79068837840E+02 0.  0.
         23    2    1    2    0    0  0.14592019635E+02 -0.21356013895E+02 -0.35602985072E+02  0.10066456759E+03  0.90536049481E+02 0.  0.
        -11    1    3    3    0    0 -0.69850112285E+00 -0.51786085556E+02 -0.49365277235E+02  0.71548704793E+02  0.00000000000E+00 0.  1.
         12    1    3    3    0    0  0.21032228460E+03 -0.45917408795E+03 -0.64286674867E+03  0.81752918174E+03  0.00000000000E+00 0. -1.
        -13    1    4    4    0    0 -0.84714219132E+01 -0.45173475554E+02  0.72018056365E+01  0.46521757139E+02  0.00000000000E+00 0. -1.
         13    1    4    4    0    0  0.23063441548E+02  0.23817461660E+02 -0.42804790708E+02  0.54142810451E+02  0.00000000000E+00 0.  1.
         21    1    1    2  503  501 -0.38001427018E+02 -0.13030868282E+02  0.10905667519E+03  0.11622078294E+03  0.00000000000E+00 0. -1.
          1    1    1    2  501    0 -0.18621437610E+03  0.54534705568E+03 -0.68875281612E+02  0.58036454873E+03  0.00000000000E+00 0. -1.
<scales pt_clust_5="13000.00000" pt_clust_6="13000.00000" pt_clust_7="13000.00000" pt_clust_8="13000.00000" pt_clust_9="40.17352" pt_clust_10="13000.00000"></scales>
<clustering>
<clus scale="   40.174">  1  9  2 -1</clus>
<clus scale="   79.069">  5  6 -1 -1</clus>
<clus scale="   90.536">  7  8 -1 -1</clus>
<clus scale="  557.417">  2  5  1 -1</clus>
<clus scale="  121.458">  7 10 -1 -1</clus>
<clus scale="   40.174">  1  5  2 -1</clus>
</clustering>
</event>
<event>
10    4  0.2565852E-005  0.2584083E+03  0.7546771E-02  0.1139318E+00
         21   -1    0    0  503  502  0.00000000000E+00  0.00000000000E+00  0.30104437390E+03  0.30104437390E+03  0.00000000000E+00 0.  1.
          2   -1    0    0  502    0 -0.00000000000E+00 -0.00000000000E+00 -0.15108777162E+03  0.15108777162E+03  0.00000000000E+00 0. -1.
         24    2    1    2    0    0  0.84841673943E+02 -0.55220498273E+02  0.36175248961E+02  0.13418620499E+03  0.80311119441E+02 0.  0.
         23    2    1    2    0    0 -0.81490676722E+02 -0.16127117047E+02  0.13294408831E+03  0.18171704200E+03  0.91902875038E+02 0.  0.
        -13    1    3    3    0    0  0.66263221952E+02 -0.17820191422E+02  0.55421690713E+02  0.88203954601E+02  0.00000000000E+00 0.  1.
         14    1    3    3    0    0  0.18578451991E+02 -0.37400306851E+02 -0.19246441752E+02  0.45982250391E+02  0.00000000000E+00 0. -1.
        -11    1    4    4    0    0 -0.66707809348E+02  0.11978757047E+02  0.13375952907E+03  0.14995010526E+03  0.00000000000E+00 0.  1.
         11    1    4    4    0    0 -0.14782867374E+02 -0.28105874095E+02 -0.81544076568E+00  0.31766936743E+02  0.00000000000E+00 0. -1.
         21    1    1    2  503  501 -0.31015698451E+02  0.25537911190E+02  0.39834074712E+02  0.56576602642E+02  0.00000000000E+00 0. -1.
          1    1    1    2  501    0  0.27664701230E+02  0.45809704130E+02 -0.58996809695E+02  0.79652295891E+02  0.00000000000E+00 0. -1.
<scales pt_clust_5="13000.00000" pt_clust_6="13000.00000" pt_clust_7="13000.00000" pt_clust_8="13000.00000" pt_clust_9="40.17659" pt_clust_10="13000.00000"></scales>
<clustering>
<clus scale="   40.177">  1  9  2 -1</clus>
<clus scale="   80.311">  5  6 -1 -1</clus>
<clus scale="   91.903">  7  8 -1 -1</clus>
<clus scale="   53.778">  7 10 -1 -1</clus>
<clus scale="  118.984">  2  5  1 -1</clus>
<clus scale="   40.177">  1  5  2 -1</clus>
</clustering>
</event>
<event>
10    4  0.2565852E-005  0.2945774E+03  0.7546771E-02  0.1120645E+00
         21   -1    0    0  501  502  0.00000000000E+00  0.00000000000E+00  0.18328056306E+03  0.18328056306E+03  0.00000000000E+00 0.  1.
          2   -1    0    0  503    0 -0.00000000000E+00 -0.00000000000E+00 -0.17275092136E+04  0.17275092136E+04  0.00000000000E+00 0. -1.
         24    2    1    2    0    0 -0.10299577117E+02  0.12051856526E+03 -0.53470728096E+03  0.55408854465E+03  0.80445218243E+02 0.  0.
         23    2    1    2    0    0  0.10822207087E+03  0.35877298980E+02 -0.44740355299E+03  0.47053834028E+03  0.90758984345E+02 0.  0.
        -13    1    3    3    0    0  0.23239397045E+02  0.58755185822E+02 -0.14610767564E+03  0.15918446632E+03  0.00000000000E+00 0.  1.
         14    1    3    3    0    0 -0.33538974162E+02  0.61763379441E+02 -0.38859960532E+03  0.39490407833E+03  0.00000000000E+00 0. -1.
        -13    1    4    4    0    0  0.10069972788E+03  0.59854234275E+02 -0.32212811108E+03  0.34276739125E+03  0.00000000000E+00 0. -1.
         13    1    4    4    0    0  0.75223429888E+01 -0.23976935295E+02 -0.12527544192E+03  0.12777094904E+03  0.00000000000E+00 0.  1.
         21    1    1    2  503  502 -0.11017174242E+02 -0.64309155701E+02  0.14963181704E+03  0.16323825013E+03  0.00000000000E+00 0.  1.
          1    1    1    2  501    0 -0.86905319512E+02 -0.92086708542E+02 -0.71174963363E+03  0.72292464159E+03  0.00000000000E+00 0. -1.
<scales pt_clust_5="13000.00000" pt_clust_6="13000.00000" pt_clust_7="13000.00000" pt_clust_8="13000.00000" pt_clust_9="65.24604" pt_clust_10="13000.00000"></scales>
<clustering>
<clus scale="   65.246">  1  9  2 -1</clus>
<clus scale="   80.445">  5  6 -1 -1</clus>
<clus scale="   90.759">  7  8 -1 -1</clus>
<clus scale="  127.057">  2  5  1 -1</clus>
<clus scale="  106.761">  7 10 -1 -1</clus>
<clus scale="   65.246">  1  5  2 -1</clus>
</clustering>
</event>
<event>
10    4  0.2565852E-005  0.2210372E+03  0.7546771E-02  0.1160729E+00
          2   -1    0    0  503    0 -0.00000000000E+00  0.00000000000E+00  0.17229056145E+03  0.17229056145E+03  0.00000000000E+00 0. -1.
         21   -1    0    0  501  502  0.00000000000E+00 -0.00000000000E+00 -0.30077748837E+03  0.30077748837E+03  0.00000000000E+00 0.  1.
         24    2    1    2    0    0 -0.11261260457E+02  0.76808768927E+02  0.53631823393E+02  0.12403235900E+03  0.80506214840E+02 0.  0.
         23    2    1    2    0    0 -0.76339734453E+02 -0.64981866538E+02 -0.56048421840E+02  0.14612756459E+03  0.90340696844E+02 0.  0.
        -13    1    3    3    0    0 -0.45239192115E+02  0.36559754658E+02  0.36381500376E+02  0.68606222265E+02  0.00000000000E+00 0.  1.
         14    1    3    3    0    0  0.33977931658E+02  0.40249014269E+02  0.17250323017E+02  0.55426136737E+02  0.00000000000E+00 0. -1.
        -13    1    4    4    0    0 -0.72420047311E+02 -0.17411309894E+02 -0.26855770769E+01  0.74532068863E+02  0.00000000000E+00 0. -1.
         13    1    4    4    0    0 -0.39196871416E+01 -0.47570556644E+02 -0.53362844763E+02  0.71595495723E+02  0.00000000000E+00 0.  1.
         21    1    1    2  503  502  0.19345874558E+01  0.20928827440E+02 -0.10723948089E+03  0.10927975434E+03  0.00000000000E+00 0.  1.
          1    1    1    2  501    0  0.85666407455E+02 -0.32755729829E+02 -0.18830847592E+02  0.93628371896E+02  0.00000000000E+00 0. -1.
<scales pt_clust_5="13000.00000" pt_clust_6="13000.00000" pt_clust_7="13000.00000" pt_clust_8="13000.00000" pt_clust_9="21.01805" pt_clust_10="13000.00000"></scales>
<clustering>
<clus scale="   21.018">  2  9  1 -1</clus>
<clus scale="   80.506">  5  6 -1 -1</clus>
<clus scale="   90.341">  7  8 -1 -1</clus>
<clus scale="   90.254">  7 10 -1 -1</clus>
<clus scale="  114.465">  1  5  2 -1</clus>
<clus scale="   21.018">  2  5  1 -1</clus>
</clustering>
</event>
<event>
10    4  0.2565852E-005  0.2313344E+03  0.7546771E-02  0.1158665E+00
          2   -1    0    0  502    0 -0.00000000000E+00  0.00000000000E+00  0.37086322079E+03  0.37086322079E+03  0.00000000000E+00 0. -1.
         21   -1    0    0  503  502  0.00000000000E+00 -0.00000000000E+00 -0.10715581860E+03  0.10715581860E+03  0.00000000000E+00 0. -1.
         24    2    1    2    0    0  0.54795752363E+02  0.21946798091E+02  0.62851266307E+02  0.11890937682E+03  0.81883586850E+02 0.  0.
         23    2    1    2    0    0 -0.15785553445E+02  0.25984503636E+02  0.92064119899E+01  0.93346961516E+02  0.87775389921E+02 0.  0.
        -13    1    3    3    0    0  0.13856938509E+02 -0.26427363818E+02  0.43306608056E+02  0.52591659077E+02  0.00000000000E+00 0.  1.
         14    1    3    3    0    0  0.40938813854E+02  0.48374161910E+02  0.19544658252E+02  0.66317717741E+02  0.00000000000E+00 0. -1.
        -11    1    4    4    0    0  0.13570901576E+02  0.14888633493E+02 -0.34254562896E+02  0.39739348963E+02  0.00000000000E+00 0. -1.
         11    1    4    4    0    0 -0.29356455021E+02  0.11095870144E+02  0.43460974886E+02  0.53607612553E+02  0.00000000000E+00 0.  1.
         21    1    1    2  503  501  0.58432683411E+00  0.38414110064E+02 -0.12659578166E+02  0.40450589727E+02  0.00000000000E+00 0. -1.
          1    1    1    2  501    0 -0.39594525752E+02 -0.86345411792E+02  0.20430930206E+03  0.22531211134E+03  0.00000000000E+00 0. -1.
<scales pt_clust_5="13000.00000" pt_clust_6="13000.00000" pt_clust_7="13000.00000" pt_clust_8="13000.00000" pt_clust_9="38.41855" pt_clust_10="13000.00000"></scales>
<clustering>
<clus scale="   38.419">  2  9  1 -1</clus>
<clus scale="   81.884">  5  6 -1 -1</clus>
<clus scale="   87.775">  7  8 -1 -1</clus>
<clus scale="   90.432">  7 10 -1 -1</clus>
<clus scale="  104.768">  1  5  2 -1</clus>
<clus scale="   38.419">  2  5  1 -1</clus>
</clustering>
</event>
<event>
10    4  0.2565852E-005  0.1940218E+03  0.7546771E-02  0.1164556E+00
         -1   -1    0    0    0  501 -0.00000000000E+00  0.00000000000E+00  0.43031930311E+03  0.43031930311E+03  0.00000000000E+00 0.  1.
         21   -1    0    0  503  502  0.00000000000E+00 -0.00000000000E+00 -0.36037208025E+03  0.36037208025E+03  0.00000000000E+00 0.  1.
         24    2    1    2    0    0 -0.88917730381E+02  0.13545351916E+03 -0.33244336314E+02  0.18496018340E+03  0.82771159922E+02 0.  0.
         23    2    1    2    0    0  0.23090587649E+02 -0.10401466773E+03  0.17737001576E+03  0.22611275344E+03  0.91184584422E+02 0.  0.
        -13    1    3    3    0    0 -0.75176378422E+02  0.13452887676E+03 -0.51145439047E+02  0.16237414354E+03  0.00000000000E+00 0.  1.
         14    1    3    3    0    0 -0.13741351959E+02  0.92464240167E+00  0.17901102733E+02  0.22586039854E+02  0.00000000000E+00 0. -1.
        -11    1    4    4    0    0  0.26328056167E+02  0.97408828923E+00  0.93389302728E+01  0.27952298799E+02  0.00000000000E+00 0. -1.
         11    1    4    4    0    0 -0.32374685178E+01 -0.10498875602E+03  0.16803108549E+03  0.19816045464E+03  0.00000000000E+00 0.  1.
         21    1    1    2  503  501  0.42034059737E+02 -0.20464413498E+02 -0.22333611694E+03  0.22817685142E+03  0.00000000000E+00 0.  1.
         -2    1    1    2    0  502  0.23793082995E+02 -0.10974437934E+02  0.14915766035E+03  0.15144159510E+03  0.00000000000E+00 0.  1.
<scales pt_clust_5="13000.00000" pt_clust_6="13000.00000" pt_clust_7="13000.00000" pt_clust_8="13000.00000" pt_clust_9="46.75098" pt_clust_10="13000.00000"></scales>
<clustering>
<clus scale="   46.751">  2  9  1 -1</clus>
<clus scale="   82.771">  5  6 -1 -1</clus>
<clus scale="   91.185">  7  8 -1 -1</clus>
<clus scale="   26.599">  7 10 -1 -1</clus>
<clus scale="  154.884">  1  5  2 -1</clus>
<clus scale="   46.751">  2  5  1 -1</clus>
</clustering>
</event>
<event>
10    4  0.2565852E-005  0.4334928E+03  0.7546771E-02  0.1091241E+00
         21   -1    0    0  503  502  0.00000000000E+00  0.00000000000E+00  0.60755416866E+02  0.60755416866E+02  0.00000000000E+00 0. -1.
          2   -1    0    0  502    0 -0.00000000000E+00 -0.00000000000E+00 -0.14980495876E+04  0.14980495876E+04  0.00000000000E+00 0. -1.
         24    2    1    2    0    0  0.28535122533E+02 -0.10650256172E+02 -0.19313285079E+03  0.21142583061E+03  0.80454351171E+02 0.  0.
         23    2    1    2    0    0  0.17893814944E+03  0.29321811618E+02 -0.39734754644E+03  0.44646483225E+03  0.92558866766E+02 0.  0.
        -11    1    3    3    0    0  0.11394451024E+02 -0.42974630854E+02 -0.14018564389E+03  0.14706687990E+03  0.00000000000E+00 0.  1.
         12    1    3    3    0    0  0.17140671509E+02  0.32324374682E+02 -0.52947206903E+02  0.64358950715E+02  0.00000000000E+00 0. -1.
        -13    1    4    4    0    0  0.12559988316E+03  0.33306703197E+02 -0.17614453402E+03  0.21888710331E+03  0.00000000000E+00 0. -1.
         13    1    4    4    0    0  0.53338266273E+02 -0.39848915782E+01 -0.22120301241E+03  0.22757772894E+03  0.00000000000E+00 0.  1.
         21    1    1    2  503  501 -0.89402717666E+01  0.56358903180E+02 -0.48563663416E+02  0.74931193980E+02  0.00000000000E+00 0. -1.
          1    1    1    2  501    0 -0.19853300020E+03 -0.75030458627E+02 -0.79825011005E+03  0.82598314758E+03  0.00000000000E+00 0. -1.
<scales pt_clust_5="13000.00000" pt_clust_6="13000.00000" pt_clust_7="13000.00000" pt_clust_8="13000.00000" pt_clust_9="57.06360" pt_clust_10="13000.00000"></scales>
<clustering>
<clus scale="   57.064">  1  9  2 -1</clus>
<clus scale="   80.454">  5  6 -1 -1</clus>
<clus scale="   84.806">  2  5  1 -1</clus>
<clus scale="   92.559">  7  8 -1 -1</clus>
<clus scale="  193.290">  7 10 -1 -1</clus>
<clus scale="   57.064">  1  5  2 -1</clus>
</clustering>
</event>
<event>
10    4  0.2565852E-005  0.1617343E+03  0.7546771E-02  0.1214205E+00
          4   -1    0    0  503    0 -0.00000000000E+00  0.00000000000E+00  0.59435106301E+02  0.59435106301E+02  0.00000000000E+00 0. -1.
         21   -1    0    0  501  502  0.00000000000E+00 -0.00000000000E+00 -0.39092060908E+03  0.39092060908E+03  0.00000000000E+00 0.  1.
         24    2    1    2    0    0 -0.94654904124E+01 -0.12935442384E+02 -0.18087327473E+03  0.20125485489E+03  0.86783949722E+02 0.  0.
         23    2    1    2    0    0 -0.41210050546E+02 -0.19752460873E+02 -0.79319967241E+02  0.13205673916E+03  0.95178238992E+02 0.  0.
        -11    1    3    3    0    0 -0.35048680469E+02 -0.37858350786E+02 -0.92089851131E+02  0.10555664550E+03  0.00000000000E+00 0.  1.
         12    1    3    3    0    0  0.25583190056E+02  0.24922908402E+02 -0.88783423596E+02  0.95698209398E+02  0.00000000000E+00 0. -1.
        -11    1    4    4    0    0  0.76167170504E+01 -0.30489542043E+02  0.70995859092E+01  0.32218483402E+02  0.00000000000E+00 0.  1.
         11    1    4    4    0    0 -0.48826767596E+02  0.10737081170E+02 -0.86419553150E+02  0.99838255757E+02  0.00000000000E+00 0. -1.
         21    1    1    2  503  502  0.20702105332E+02 -0.12633369963E+02 -0.55329986554E+02  0.60411808563E+02  0.00000000000E+00 0.  1.
          3    1    1    2  501    0  0.29973435626E+02  0.45321273221E+02 -0.15962274256E+02  0.56632312764E+02  0.00000000000E+00 0. -1.
<scales pt_clust_5="13000.00000" pt_clust_6="13000.00000" pt_clust_7="13000.00000" pt_clust_8="13000.00000" pt_clust_9="24.25241" pt_clust_10="13000.00000"></scales>
<clustering>
<clus scale="   24.252">  2  9  1 -1</clus>
<clus scale="   86.784">  5  6 -1 -1</clus>
<clus scale="   89.133">  1  5  2 -1</clus>
<clus scale="   95.178">  7  8 -1 -1</clus>
<clus scale="   48.379">  7 10 -1 -1</clus>
<clus scale="   24.252">  2  5  1 -1</clus>
</clustering>
</event>
<event>
10    4  0.3607973E-005  0.3360633E+03  0.7546771E-02  0.1099410E+00
          2   -1    0    0  503    0 -0.00000000000E+00  0.00000000000E+00  0.18937442275E+04  0.18937442275E+04  0.00000000000E+00 0. -1.
         21   -1    0    0  501  502  0.00000000000E+00 -0.00000000000E+00 -0.47068199423E+02  0.47068199423E+02  0.00000000000E+00 0. -1.
         24    2    1    2    0    0  0.11694343678E+03  0.13383141401E+02  0.17100948109E+03  0.22231127570E+03  0.79518455731E+02 0.  0.
         23    2    1    2    0    0  0.68878432967E+02 -0.32994287653E+02  0.36662152907E+03  0.38741749143E+03  0.99237621601E+02 0.  0.
        -13    1    3    3    0    0  0.39238336814E+02 -0.30826286513E+02  0.83092650357E+02  0.96924174278E+02  0.00000000000E+00 0.  1.
         14    1    3    3    0    0  0.77705099963E+02  0.44209427915E+02  0.87916830728E+02  0.12538710142E+03  0.00000000000E+00 0. -1.
        -13    1    4    4    0    0  0.60043649827E+01  0.31603047309E+02  0.63608052990E+02  0.71279656307E+02  0.00000000000E+00 0.  1.
         13    1    4    4    0    0  0.62874067984E+02 -0.64597334962E+02  0.30301347608E+03  0.31613783512E+03  0.00000000000E+00 0. -1.
         21    1    1    2  503  502  0.35026466211E+01  0.33723032123E+02  0.72337034352E+02  0.79888409471E+02  0.00000000000E+00 0. -1.
          1    1    1    2  501    0 -0.18932451637E+03 -0.14111885871E+02  0.12367079836E+04  0.12511952503E+04  0.00000000000E+00 0. -1.
<scales pt_clust_5="13000.00000" pt_clust_6="13000.00000" pt_clust_7="13000.00000" pt_clust_8="13000.00000" pt_clust_9="33.90445" pt_clust_10="13000.00000"></scales>
<clustering>
<clus scale="   33.904">  2  9  1 -1</clus>
<clus scale="   79.518">  5  6 -1 -1</clus>
<clus scale="   99.238">  7  8 -1 -1</clus>
<clus scale="  146.976">  1  5  2 -1</clus>
<clus scale="   99.914">  7 10 -1 -1</clus>
<clus scale="   33.904">  2  5  1 -1</clus>
</clustering>
</event>
<event>
10    4  0.2565852E-005  0.1906042E+03  0.7546771E-02  0.1191446E+00
          2   -1    0    0  503    0 -0.00000000000E+00  0.00000000000E+00  0.43029612115E+03  0.43029612115E+03  0.00000000000E+00 0. -1.
         21   -1    0    0  501  502  0.00000000000E+00 -0.00000000000E+00 -0.64834752623E+02  0.64834752623E+02  0.00000000000E+00 0.  1.
         24    2    1    2    0    0 -0.33143219359E+02  0.29042101674E+02  0.16701503622E+03  0.19046027332E+03  0.80244481003E+02 0.  0.
         23    2    1    2    0    0  0.39192106868E+02 -0.20103446065E+02  0.26571813441E+02  0.10411896278E+03  0.90523628714E+02 0.  0.
        -11    1    3    3    0    0  0.24353655655E+02 -0.46774078162E+01  0.41519792696E+02  0.48361884508E+02  0.00000000000E+00 0.  1.
         12    1    3    3    0    0 -0.57496875013E+02  0.33719509490E+02  0.12549524352E+03  0.14209838882E+03  0.00000000000E+00 0. -1.
        -11    1    4    4    0    0  0.60080608289E+02 -0.38005161322E+02  0.28385136217E+02  0.76549250405E+02  0.00000000000E+00 0.  1.
         11    1    4    4    0    0 -0.20888501421E+02  0.17901715257E+02 -0.18133227752E+01  0.27569712372E+02  0.00000000000E+00 0. -1.
         21    1    1    2  503  502  0.15115277013E+01 -0.38150393424E+02  0.15358617787E+02  0.41153667816E+02  0.00000000000E+00 0. -1.
          1    1    1    2  501    0 -0.75604152104E+01  0.29211737814E+02  0.15651590108E+03  0.15939796986E+03  0.00000000000E+00 0. -1.
<scales pt_clust_5="13000.00000" pt_clust_6="13000.00000" pt_clust_7="13000.00000" pt_clust_8="13000.00000" pt_clust_9="38.18033" pt_clust_10="13000.00000"></scales>
<clustering>
<clus scale="   38.180">  2  9  1 -1</clus>
<clus scale="   80.244">  5  6 -1 -1</clus>
<clus scale="   89.065">  1  5  2 -1</clus>
<clus scale="   90.524">  7  8 -1 -1</clus>
<clus scale="   48.532">  7 10 -1 -1</clus>
<clus scale="   38.180">  2  5  1 -1</clus>
</clustering>
</event>
<event>
10    4  0.2565852E-005  0.2705042E+03  0.7546771E-02  0.1140066E+00
         -1   -1    0    0    0  501 -0.00000000000E+00  0.00000000000E+00  0.45542587343E+03  0.45542587343E+03  0.00000000000E+00 0.  1.
         21   -1    0    0  501  502  0.00000000000E+00 -0.00000000000E+00 -0.14300703879E+03  0.14300703879E+03  0.00000000000E+00 0. -1.
         24    2    1    2    0    0  0.39105969308E+02  0.53192392812E+02  0.19190342578E+02  0.10535579527E+03  0.79830237751E+02 0.  0.
         23    2    1    2    0    0  0.62821846658E+02 -0.70942947960E+02  0.60956528796E+02  0.15453979922E+03  0.10577034016E+03 0.  0.
        -11    1    3    3    0    0  0.56787749790E+02  0.42485056427E+02  0.35231995648E+02  0.79190416486E+02  0.00000000000E+00 0.  1.
         12    1    3    3    0    0 -0.17681780482E+02  0.10707336386E+02 -0.16041653070E+02  0.26165378781E+02  0.00000000000E+00 0. -1.
        -11    1    4    4    0    0 -0.12707265912E+02 -0.61308268158E+02  0.44021609363E+02  0.76538097980E+02  0.00000000000E+00 0.  1.
         11    1    4    4    0    0  0.75529112571E+02 -0.96346798023E+01  0.16934919432E+02  0.78001701243E+02  0.00000000000E+00 0. -1.
         21    1    1    2  503  502 -0.51697560706E+02  0.17756523794E+02 -0.36098889648E+02  0.65506196303E+02  0.00000000000E+00 0. -1.
         -2    1    1    2    0  503 -0.50230255261E+02 -0.59686457345E-02  0.26837085291E+03  0.27303112143E+03  0.00000000000E+00 0.  1.
<scales pt_clust_5="13000.00000" pt_clust_6="13000.00000" pt_clust_7="13000.00000" pt_clust_8="13000.00000" pt_clust_9="54.66198" pt_clust_10="13000.00000"></scales>
<clustering>
<clus scale="   54.662">  2  9  1 -1</clus>
<clus scale="   79.830">  5  6 -1 -1</clus>
<clus scale="  101.869">  1  5  2 -1</clus>
<clus scale="  105.770">  7  8 -1 -1</clus>
<clus scale="   61.391">  7 10 -1 -1</clus>
<clus scale="   54.662">  2  5  1 -1</clus>
</clustering>
</event>
<event>
10    4  0.2565852E-005  0.3066459E+03  0.7546771E-02  0.1103043E+00
         21   -1    0    0  501  502  0.00000000000E+00  0.00000000000E+00  0.28370016965E+03  0.28370016965E+03  0.00000000000E+00 0.  1.
          2   -1    0    0  503    0 -0.00000000000E+00 -0.00000000000E+00 -0.91580437234E+03  0.91580437234E+03  0.00000000000E+00 0. -1.
         24    2    1    2    0    0 -0.17108297519E+03  0.31824642829E+02 -0.85343602001E+01  0.19196254595E+03  0.80589028104E+02 0.  0.
         23    2    1    2    0    0 -0.16258484226E+01 -0.86961563651E+02 -0.20597380375E+03  0.24123463766E+03  0.90575855719E+02 0.  0.
        -11    1    3    3    0    0 -0.14103078070E+03  0.51301873591E+02 -0.25687656690E+02  0.15225445493E+03  0.00000000000E+00 0.  1.
         12    1    3    3    0    0 -0.30052194489E+02 -0.19477230763E+02  0.17153296490E+02  0.39708091018E+02  0.00000000000E+00 0. -1.
        -13    1    4    4    0    0  0.43792295874E+02 -0.53403698984E+02 -0.11636264432E+03  0.13531439405E+03  0.00000000000E+00 0.  1.
         13    1    4    4    0    0 -0.45418144297E+02 -0.33557864666E+02 -0.89611159429E+02  0.10592024361E+03  0.00000000000E+00 0. -1.
         21    1    1    2  503  502  0.23312238525E+02  0.19908298654E+00  0.16280946549E+03  0.16447012541E+03  0.00000000000E+00 0.  1.
          1    1    1    2  501    0  0.14939658509E+03  0.54937837835E+02 -0.58040550423E+03  0.60183723298E+03  0.00000000000E+00 0. -1.
<scales pt_clust_5="13000.00000" pt_clust_6="13000.00000" pt_clust_7="13000.00000" pt_clust_8="13000.00000" pt_clust_9="23.31309" pt_clust_10="13000.00000"></scales>
<clustering>
<clus scale="   23.313">  1  9  2 -1</clus>
<clus scale="   80.589">  5  6 -1 -1</clus>
<clus scale="   90.576">  7  8 -1 -1</clus>
<clus scale="  161.138">  7 10 -1 -1</clus>
<clus scale="  176.097">  2  5  1 -1</clus>
<clus scale="   23.313">  1  5  2 -1</clus>
</clustering>
</event>
<event>
10    4  0.2565852E-005  0.4745017E+03  0.7546771E-02  0.1076570E+00
          2   -1    0    0  502    0 -0.00000000000E+00  0.00000000000E+00  0.16638914530E+04  0.16638914530E+04  0.00000000000E+00 0. -1.
         21   -1    0    0  503  502  0.00000000000E+00 -0.00000000000E+00 -0.59438535554E+02  0.59438535554E+02  0.00000000000E+00 0. -1.
         24    2    1    2    0    0 -0.53578372886E+02  0.34851780073E+01  0.43418195396E+03  0.44489802917E+03  0.80854800145E+02 0.  0.
         23    2    1    2    0    0 -0.46883031189E+02  0.21320115459E+03  0.44542471892E+03  0.50437879840E+03  0.91334774964E+02 0.  0.
        -13    1    3    3    0    0 -0.21596137023E+02 -0.25094344878E+02  0.62299514201E+02  0.70550327773E+02  0.00000000000E+00 0.  1.
         14    1    3    3    0    0 -0.31982235864E+02  0.28579522885E+02  0.37188243976E+03  0.37434770140E+03  0.00000000000E+00 0. -1.
        -13    1    4    4    0    0 -0.34974578855E+02  0.76005564685E+02  0.88398598058E+02  0.12171433427E+03  0.00000000000E+00 0. -1.
         13    1    4    4    0    0 -0.11908452334E+02  0.13719558990E+03  0.35702612086E+03  0.38266446412E+03  0.00000000000E+00 0.  1.
         21    1    1    2  503  501  0.23145147110E+02 -0.84647878085E+01  0.12011569262E+02  0.27415839646E+02  0.00000000000E+00 0. -1.
          1    1    1    2  501    0  0.77316256965E+02 -0.20822154479E+03  0.71283467532E+03  0.74663732136E+03  0.00000000000E+00 0. -1.
<scales pt_clust_5="13000.00000" pt_clust_6="13000.00000" pt_clust_7="13000.00000" pt_clust_8="13000.00000" pt_clust_9="24.64448" pt_clust_10="13000.00000"></scales>
<clustering>
<clus scale="   24.644">  2  9  1 -1</clus>
<clus scale="   80.855">  5  6 -1 -1</clus>
<clus scale="   91.335">  7  8 -1 -1</clus>
<clus scale="   95.728">  1  5  2 -1</clus>
<clus scale="  215.926">  7 10 -1 -1</clus>
<clus scale="   24.644">  2  5  1 -1</clus>
</clustering>
</event>
<event>
10    4  0.2565852E-005  0.1998636E+03  0.7546771E-02  0.1160172E+00
          2   -1    0    0  502    0 -0.00000000000E+00  0.00000000000E+00  0.10036451491E+04  0.10036451491E+04  0.00000000000E+00 0. -1.
         21   -1    0    0  503  502  0.00000000000E+00 -0.00000000000E+00 -0.14322195697E+03  0.14322195697E+03  0.00000000000E+00 0. -1.
         24    2    1    2    0    0  0.11542511889E+03 -0.76491253593E+02  0.91001237521E+03  0.92354039372E+03  0.75036430150E+02 0.  0.
         23    2    1    2    0    0 -0.36260930582E+02  0.22665198264E+02 -0.37412281851E+02  0.10971954380E+03  0.93862309578E+02 0.  0.
        -13    1    3    3    0    0  0.66996301904E+02 -0.56217670485E+02  0.33828806383E+03  0.34941056806E+03  0.00000000000E+00 0.  1.
         14    1    3    3    0    0  0.48428816982E+02 -0.20273583109E+02  0.57172431138E+03  0.57412982566E+03  0.00000000000E+00 0. -1.
        -13    1    4    4    0    0 -0.59185471909E+02  0.40236078304E+02 -0.14907097799E+02  0.73103239649E+02  0.00000000000E+00 0.  1.
         13    1    4    4    0    0  0.22924541327E+02 -0.17570880040E+02 -0.22505184052E+02  0.36616304151E+02  0.00000000000E+00 0. -1.
         21    1    1    2  503  501 -0.19819540843E+02 -0.66637959916E+01 -0.19448178425E+02  0.28556120540E+02  0.00000000000E+00 0.  1.
          1    1    1    2  501    0 -0.59344647460E+02  0.60489851321E+02  0.72712771893E+01  0.85051048007E+02  0.00000000000E+00 0. -1.
<scales pt_clust_5="13000.00000" pt_clust_6="13000.00000" pt_clust_7="13000.00000" pt_clust_8="13000.00000" pt_clust_9="20.90982" pt_clust_10="13000.00000"></scales>
<clustering>
<clus scale="   20.910">  2  9  1 -1</clus>
<clus scale="   75.036">  5  6 -1 -1</clus>
<clus scale="   93.862">  7  8 -1 -1</clus>
<clus scale="   87.930">  7 10 -1 -1</clus>
<clus scale="  156.857">  1  5  2 -1</clus>
<clus scale="   20.910">  2  5  1 -1</clus>
</clustering>
</event>
<event>
10    4  0.2565852E-005  0.2092561E+03  0.7546771E-02  0.1145048E+00
         -1   -1    0    0    0  501 -0.00000000000E+00  0.00000000000E+00  0.21347449678E+03  0.21347449678E+03  0.00000000000E+00 0.  1.
         21   -1    0    0  501  502  0.00000000000E+00 -0.00000000000E+00 -0.36724711240E+03  0.36724711240E+03  0.00000000000E+00 0.  1.
         24    2    1    2    0    0  0.32313041226E+02 -0.15800535638E+03 -0.52353008189E+02  0.18743069559E+03  0.79872416410E+02 0.  0.
         23    2    1    2    0    0  0.71826957316E+02  0.15154472906E+03 -0.21911170277E+02  0.19270132214E+03  0.92351412918E+02 0.  0.
        -11    1    3    3    0    0  0.28995700946E+01 -0.14710763376E+03 -0.33734732580E+02  0.15095395191E+03  0.00000000000E+00 0.  1.
         12    1    3    3    0    0  0.29413471131E+02 -0.10897722627E+02 -0.18618275609E+02  0.36476743675E+02  0.00000000000E+00 0. -1.
        -13    1    4    4    0    0  0.88478687840E+01  0.11800906608E+03 -0.26255556595E+02  0.12121789765E+03  0.00000000000E+00 0.  1.
         13    1    4    4    0    0  0.62979088532E+02  0.33535662980E+02  0.43443863172E+01  0.71483424486E+02  0.00000000000E+00 0. -1.
         21    1    1    2  503  502 -0.11738351997E+03 -0.37591183949E+02 -0.90961058983E+02  0.15318584178E+03  0.00000000000E+00 0.  1.
         -2    1    1    2    0  503  0.13243521426E+02  0.44051811272E+02  0.11452621823E+02  0.47403749670E+02  0.00000000000E+00 0.  1.
<scales pt_clust_5="13000.00000" pt_clust_6="13000.00000" pt_clust_7="13000.00000" pt_clust_8="13000.00000" pt_clust_9="123.25578" pt_clust_10="13000.00000"></scales>
<clustering>
<clus scale="   79.872">  5  6 -1 -1</clus>
<clus scale="   92.351">  7  8 -1 -1</clus>
<clus scale="   46.000">  7 10 -1 -1</clus>
<clus scale="  123.256">  2  9  1 -1</clus>
<clus scale="  195.248">  1  5  2 -1</clus>
<clus scale="  123.256">  2  5  1 -1</clus>
</clustering>
</event>
<event>
10    4  0.2565852E-005  0.1781234E+03  0.7546771E-02  0.1186027E+00
         21   -1    0    0  503  502  0.00000000000E+00  0.00000000000E+00  0.33621267565E+03  0.33621267565E+03  0.00000000000E+00 0.  1.
         -1   -1    0    0    0  501 -0.00000000000E+00 -0.00000000000E+00 -0.81733891020E+02  0.81733891020E+02  0.00000000000E+00 0.  1.
         24    2    1    2    0    0  0.95341567254E+02 -0.98490935827E+01  0.11986436802E+03  0.17367534507E+03  0.81293540166E+02 0.  0.
         23    2    1    2    0    0 -0.35800338262E+02 -0.24074412965E+02  0.75432893037E+02  0.12694581413E+03  0.92541216726E+02 0.  0.
        -13    1    3    3    0    0  0.64546828040E+02  0.22404447529E+02  0.10754111101E+03  0.12741013632E+03  0.00000000000E+00 0.  1.
         14    1    3    3    0    0  0.30794739214E+02 -0.32253541111E+02  0.12323257011E+02  0.46265208752E+02  0.00000000000E+00 0. -1.
        -13    1    4    4    0    0 -0.14832874982E+02 -0.26600759323E+02 -0.15091385608E+02  0.33990653073E+02  0.00000000000E+00 0.  1.
         13    1    4    4    0    0 -0.20967463280E+02  0.25263463581E+01  0.90524278645E+02  0.92955161054E+02  0.00000000000E+00 0. -1.
         21    1    1    2  503  501 -0.98164178220E+01 -0.17565888170E+02  0.37459052356E+02  0.42521795464E+02  0.00000000000E+00 0.  1.
         -2    1    1    2    0  502 -0.49724811170E+02  0.51489394718E+02  0.21722471219E+02  0.74803612013E+02  0.00000000000E+00 0.  1.
<scales pt_clust_5="13000.00000" pt_clust_6="13000.00000" pt_clust_7="13000.00000" pt_clust_8="13000.00000" pt_clust_9="20.12269" pt_clust_10="13000.00000"></scales>
<clustering>
<clus scale="   20.123">  1  9  2 -1</clus>
<clus scale="   81.294">  5  6 -1 -1</clus>
<clus scale="   92.541">  7  8 -1 -1</clus>
<clus scale="   70.702">  7 10 -1 -1</clus>
<clus scale="  123.041">  2  5  1 -1</clus>
<clus scale="   20.123">  1  5  2 -1</clus>
</clustering>
</event>
<event>
10    4  0.2565852E-005  0.2327536E+03  0.7546771E-02  0.1142225E+00
         -1   -1    0    0    0  501 -0.00000000000E+00  0.00000000000E+00  0.40273044813E+03  0.40273044813E+03  0.00000000000E+00 0.  1.
         21   -1    0    0  503  502  0.00000000000E+00 -0.00000000000E+00 -0.19673202925E+03  0.19673202925E+03  0.00000000000E+00 0.  1.
         24    2    1    2    0    0 -0.61735498916E+01 -0.12758868424E+03  0.26682580088E+03  0.30672142847E+03  0.81024944323E+02 0.  0.
         23    2    1    2    0    0  0.52239074230E+02  0.94658653769E+02  0.25181668744E+02  0.14341443473E+03  0.90798689633E+02 0.  0.
        -11    1    3    3    0    0 -0.30483316716E+02 -0.12197091249E+03  0.21180447417E+03  0.24630727024E+03  0.00000000000E+00 0.  1.
         12    1    3    3    0    0  0.24309766824E+02 -0.56177717538E+01  0.55021326712E+02  0.60414158239E+02  0.00000000000E+00 0. -1.
        -13    1    4    4    0    0  0.29837559727E+02  0.10922271088E+03  0.27737173439E+02  0.11657285848E+03  0.00000000000E+00 0. -1.
         13    1    4    4    0    0  0.22401514502E+02 -0.14564057114E+02 -0.25555046952E+01  0.26841576255E+02  0.00000000000E+00 0.  1.
         21    1    1    2  503  501  0.29695542368E+02 -0.56701046550E+01 -0.46749039932E+02  0.55672686822E+02  0.00000000000E+00 0.  1.
         -2    1    1    2    0  502 -0.75761066707E+02  0.38600135131E+02 -0.39260010812E+02  0.93653927358E+02  0.00000000000E+00 0.  1.
<scales pt_clust_5="13000.00000" pt_clust_6="13000.00000" pt_clust_7="13000.00000" pt_clust_8="13000.00000" pt_clust_9="30.23202" pt_clust_10="13000.00000"></scales>
<clustering>
<clus scale="   30.232">  2  9  1 -1</clus>
<clus scale="   81.025">  5  6 -1 -1</clus>
<clus scale="   90.799">  7  8 -1 -1</clus>
<clus scale="   71.872">  7 10 -1 -1</clus>
<clus scale="  151.813">  1  5  2 -1</clus>
<clus scale="   30.232">  2  5  1 -1</clus>
</clustering>
</event>
<event>
10    4  0.2565852E-005  0.3476471E+03  0.7546771E-02  0.1075084E+00
          2   -1    0    0  502    0 -0.00000000000E+00  0.00000000000E+00  0.33638512215E+03  0.33638512215E+03  0.00000000000E+00 0. -1.
         21   -1    0    0  503  502  0.00000000000E+00 -0.00000000000E+00 -0.52725138056E+03  0.52725138056E+03  0.00000000000E+00 0.  1.
         24    2    1    2    0    0 -0.10835334465E+03  0.22321070672E+03 -0.36126156110E+03  0.44550635490E+03  0.80015809889E+02 0.  0.
         23    2    1    2    0    0 -0.23764946980E+01  0.71593503337E+01  0.11983064315E+02  0.92130977684E+02  0.91036361935E+02 0.  0.
        -11    1    3    3    0    0 -0.55159777594E+02  0.18440663153E+03 -0.24132072600E+03  0.30868122653E+03  0.00000000000E+00 0.  1.
         12    1    3    3    0    0 -0.53193567053E+02  0.38804075196E+02 -0.11994083510E+03  0.13682512837E+03  0.00000000000E+00 0. -1.
        -13    1    4    4    0    0  0.39211478930E+02  0.14521038674E+02  0.24010512487E+02  0.48217272361E+02  0.00000000000E+00 0.  1.
         13    1    4    4    0    0 -0.41587973628E+02 -0.73616883400E+01 -0.12027448172E+02  0.43913705323E+02  0.00000000000E+00 0. -1.
         21    1    1    2  503  501  0.24486507805E+02  0.26709502156E+00 -0.11274787369E+02  0.26958880438E+02  0.00000000000E+00 0.  1.
          1    1    1    2  501    0  0.86243331541E+02 -0.23063715208E+03  0.16968702574E+03  0.29904028969E+03  0.00000000000E+00 0. -1.
<scales pt_clust_5="13000.00000" pt_clust_6="13000.00000" pt_clust_7="13000.00000" pt_clust_8="13000.00000" pt_clust_9="24.48796" pt_clust_10="13000.00000"></scales>
<clustering>
<clus scale="   24.488">  2  9  1 -1</clus>
<clus scale="   80.016">  5  6 -1 -1</clus>
<clus scale="   91.036">  7  8 -1 -1</clus>
<clus scale="  247.312">  7 10 -1 -1</clus>
<clus scale="  253.429">  1  5  2 -1</clus>
<clus scale="   24.488">  2  5  1 -1</clus>
</clustering>
</event>
<event>
10    4  0.2565852E-005  0.3643819E+03  0.7546771E-02  0.1096568E+00
         21   -1    0    0  503  502  0.00000000000E+00  0.00000000000E+00  0.19949824792E+03  0.19949824792E+03  0.00000000000E+00 0.  1.
         -1   -1    0    0    0  501 -0.00000000000E+00 -0.00000000000E+00 -0.10219967247E+04  0.10219967247E+04  0.00000000000E+00 0.  1.
         24    2    1    2    0    0  0.73803964888E+02  0.60654321008E+02 -0.50746319317E+03  0.52294741624E+03  0.82638585670E+02 0.  0.
         23    2    1    2    0    0 -0.50378886785E+02  0.13865533142E+03 -0.19083461054E+03  0.25743064244E+03  0.89940835681E+02 0.  0.
        -13    1    3    3    0    0  0.83171542597E+02  0.61302357818E+02 -0.50101178731E+03  0.51155478259E+03  0.00000000000E+00 0.  1.
         14    1    3    3    0    0 -0.93675777099E+01 -0.64803680931E+00 -0.64514058615E+01  0.11392633648E+02  0.00000000000E+00 0. -1.
        -11    1    4    4    0    0 -0.57141725801E+02  0.11848963378E+03 -0.19551684457E+03  0.23565187598E+03  0.00000000000E+00 0.  1.
         11    1    4    4    0    0  0.67628390165E+01  0.20165697641E+02  0.46822340371E+01  0.21778766459E+02  0.00000000000E+00 0. -1.
         21    1    1    2  503  501 -0.22686209920E+02 -0.14075620196E+02  0.12656755400E+03  0.12935274613E+03  0.00000000000E+00 0.  1.
         -2    1    1    2    0  502 -0.73886818289E+00 -0.18523403223E+03 -0.25076822713E+03  0.31176416786E+03  0.00000000000E+00 0.  1.
<scales pt_clust_5="13000.00000" pt_clust_6="13000.00000" pt_clust_7="13000.00000" pt_clust_8="13000.00000" pt_clust_9="26.69807" pt_clust_10="13000.00000"></scales>
<clustering>
<clus scale="   26.698">  1  9  2 -1</clus>
<clus scale="   82.639">  5  6 -1 -1</clus>
<clus scale="   89.941">  7  8 -1 -1</clus>
<clus scale="  124.162">  2  5  1 -1</clus>
<clus scale="  160.121">  7 10 -1 -1</clus>
<clus scale="   26.698">  1  5  2 -1</clus>
</clustering>
</event>
<event>
10    4  0.2565852E-005  0.2648963E+03  0.7546771E-02  0.1150980E+00
         21   -1    0    0  501  502  0.00000000000E+00  0.00000000000E+00  0.60297276644E+03  0.60297276644E+03  0.00000000000E+00 0. -1.
          2   -1    0    0  503    0 -0.00000000000E+00 -0.00000000000E+00 -0.60466786488E+02  0.60466786488E+02  0.00000000000E+00 0. -1.
         24    2    1    2    0    0 -0.17061687486E+02 -0.10412468678E+02  0.78072092472E+02  0.11365258533E+03  0.80138242088E+02 0.  0.
         23    2    1    2    0    0 -0.61140916055E+01 -0.42105174556E+02  0.41544574936E+02  0.10888465983E+03  0.91212332498E+02 0.  0.
        -13    1    3    3    0    0 -0.32612040810E+02  0.26145744792E+02  0.49101616570E+02  0.64483439163E+02  0.00000000000E+00 0.  1.
         14    1    3    3    0    0  0.15550353324E+02 -0.36558213470E+02  0.28970475902E+02  0.49169146165E+02  0.00000000000E+00 0. -1.
        -11    1    4    4    0    0  0.33443397244E+01 -0.62301769229E+02  0.54714902841E+02  0.82984430167E+02  0.00000000000E+00 0.  1.
         11    1    4    4    0    0 -0.94584313299E+01  0.20196594673E+02 -0.13170327905E+02  0.25900229666E+02  0.00000000000E+00 0. -1.
         21    1    1    2  503  502 -0.10307768913E+02 -0.24150354851E+02  0.33174534974E+02  0.42308858530E+02  0.00000000000E+00 0.  1.
          1    1    1    2  501    0  0.33483548005E+02  0.76667998085E+02  0.38971477757E+03  0.39859344923E+03  0.00000000000E+00 0. -1.
<scales pt_clust_5="13000.00000" pt_clust_6="13000.00000" pt_clust_7="13000.00000" pt_clust_8="13000.00000" pt_clust_9="26.25815" pt_clust_10="13000.00000"></scales>
<clustering>
<clus scale="   26.258">  1  9  2 -1</clus>
<clus scale="   80.138">  5  6 -1 -1</clus>
<clus scale="   83.585">  2  5  1 -1</clus>
<clus scale="   91.212">  7  8 -1 -1</clus>
<clus scale="   62.366">  7 10 -1 -1</clus>
<clus scale="   26.258">  1  5  2 -1</clus>
</clustering>
</event>
<event>
10    4  0.2565852E-005  0.1528235E+03  0.7546771E-02  0.1220578E+00
          2   -1    0    0  503    0 -0.00000000000E+00  0.00000000000E+00  0.68225708332E+03  0.68225708332E+03  0.00000000000E+00 0. -1.
         21   -1    0    0  501  502  0.00000000000E+00 -0.00000000000E+00 -0.12097732362E+03  0.12097732362E+03  0.00000000000E+00 0.  1.
         24    2    1    2    0    0  0.81462224992E+02 -0.93965670866E+01  0.10738349588E+03  0.15062213581E+03  0.66568934449E+02 0.  0.
         23    2    1    2    0    0 -0.10541338126E+02 -0.17892598291E+02  0.27203962703E+03  0.28795959910E+03  0.92108127512E+02 0.  0.
        -13    1    3    3    0    0  0.42836650707E+02 -0.33975720458E+02  0.34814220237E+02  0.64817884532E+02  0.00000000000E+00 0.  1.
         14    1    3    3    0    0  0.38625574285E+02  0.24579153372E+02  0.72569275647E+02  0.85804251278E+02  0.00000000000E+00 0. -1.
        -13    1    4    4    0    0  0.37518659056E+02 -0.26017932387E+02  0.12854634073E+03  0.13641387136E+03  0.00000000000E+00 0.  1.
         13    1    4    4    0    0 -0.48059997182E+02  0.81253340961E+01  0.14349328630E+03  0.15154572774E+03  0.00000000000E+00 0. -1.
         21    1    1    2  503  502 -0.25723377284E+02  0.92546377131E+01 -0.87120536146E+02  0.91308971500E+02  0.00000000000E+00 0.  1.
          1    1    1    2  501    0 -0.45197509582E+02  0.18034527664E+02  0.26897717293E+03  0.27334370053E+03  0.00000000000E+00 0. -1.
<scales pt_clust_5="13000.00000" pt_clust_6="13000.00000" pt_clust_7="13000.00000" pt_clust_8="13000.00000" pt_clust_9="27.33753" pt_clust_10="13000.00000"></scales>
<clustering>
<clus scale="   27.338">  2  9  1 -1</clus>
<clus scale="   66.569">  5  6 -1 -1</clus>
<clus scale="   92.108">  7  8 -1 -1</clus>
<clus scale="   50.541">  7 10 -1 -1</clus>
<clus scale="   92.364">  1  5  2 -1</clus>
<clus scale="   27.338">  2  5  1 -1</clus>
</clustering>
</event>
<event>
10    4  0.2565852E-005  0.3053030E+03  0.7546771E-02  0.1124334E+00
         21   -1    0    0  501  502  0.00000000000E+00  0.00000000000E+00  0.24548216572E+03  0.24548216572E+03  0.00000000000E+00 0. -1.
          2   -1    0    0  503    0 -0.00000000000E+00 -0.00000000000E+00 -0.55496048819E+03  0.55496048819E+03  0.00000000000E+00 0. -1.
         24    2    1    2    0    0  0.12576315455E+02 -0.71892565210E+02 -0.22014003805E+03  0.24531758299E+03  0.79952332844E+02 0.  0.
         23    2    1    2    0    0  0.14256778821E+02 -0.48924595844E+02  0.21559252860E+02  0.10655438503E+03  0.91061318702E+02 0.  0.
        -11    1    3    3    0    0 -0.26844252603E+02 -0.83577615001E+01 -0.30561157453E+02  0.41526502621E+02  0.00000000000E+00 0.  1.
         12    1    3    3    0    0  0.39420568058E+02 -0.63534803710E+02 -0.18957888060E+03  0.20379108037E+03  0.00000000000E+00 0. -1.
        -11    1    4    4    0    0 -0.28088340487E+02  0.60072896971E+00  0.29705501261E+02  0.40886826140E+02  0.00000000000E+00 0.  1.
         11    1    4    4    0    0  0.42345119309E+02 -0.49525324813E+02 -0.81462484010E+01  0.65667558887E+02  0.00000000000E+00 0. -1.
         21    1    1    2  503  502 -0.43465875690E+01  0.41271491697E+02  0.16002461810E+03  0.16531819999E+03  0.00000000000E+00 0. -1.
          1    1    1    2  501    0 -0.22486506708E+02  0.79545669356E+02 -0.27092215538E+03  0.28325248591E+03  0.00000000000E+00 0. -1.
<scales pt_clust_5="13000.00000" pt_clust_6="13000.00000" pt_clust_7="13000.00000" pt_clust_8="13000.00000" pt_clust_9="41.49975" pt_clust_10="13000.00000"></scales>
<clustering>
<clus scale="   41.500">  1  9  2 -1</clus>
<clus scale="   79.952">  5  6 -1 -1</clus>
<clus scale="   91.061">  7  8 -1 -1</clus>
<clus scale="   85.709">  7 10 -1 -1</clus>
<clus scale="  104.116">  2  5  1 -1</clus>
<clus scale="   41.500">  1  5  2 -1</clus>
</clustering>
</event>
<event>
10    4  0.2565852E-005  0.2961822E+03  0.7546771E-02  0.1136192E+00
         21   -1    0    0  503  502  0.00000000000E+00  0.00000000000E+00  0.13000965318E+03  0.13000965318E+03  0.00000000000E+00 0. -1.
          2   -1    0    0  502    0 -0.00000000000E+00 -0.00000000000E+00 -0.37515519396E+03  0.37515519396E+03  0.00000000000E+00 0. -1.
         24    2    1    2    0    0  0.82513666246E+01  0.23409016311E+02 -0.41527234820E+02  0.93190442860E+02  0.79648479664E+02 0.  0.
         23    2    1    2    0    0 -0.11675874483E+03  0.97564260127E+01 -0.59180182310E+02  0.16152718399E+03  0.94132591840E+02 0.  0.
        -11    1    3    3    0    0  0.22917312424E+02 -0.23999141313E+02 -0.22250663911E+02  0.39953148023E+02  0.00000000000E+00 0.  1.
         12    1    3    3    0    0 -0.14665945799E+02  0.47408157624E+02 -0.19276570909E+02  0.53237294837E+02  0.00000000000E+00 0. -1.
        -11    1    4    4    0    0 -0.76312469239E+02  0.51182424743E+02 -0.29772145893E+02  0.96589928228E+02  0.00000000000E+00 0. -1.
         11    1    4    4    0    0 -0.40446275595E+02 -0.41425998731E+02 -0.29408036417E+02  0.64937255765E+02  0.00000000000E+00 0.  1.
         21    1    1    2  503  501 -0.97190678211E+01  0.24645690626E+02  0.24645341820E+02  0.36183742470E+02  0.00000000000E+00 0. -1.
          1    1    1    2  501    0  0.11822644603E+03 -0.57811132950E+02 -0.16908346547E+03  0.21426347782E+03  0.00000000000E+00 0. -1.
<scales pt_clust_5="13000.00000" pt_clust_6="13000.00000" pt_clust_7="13000.00000" pt_clust_8="13000.00000" pt_clust_9="26.49284" pt_clust_10="13000.00000"></scales>
<clustering>
<clus scale="   26.493">  1  9  2 -1</clus>
<clus scale="   79.648">  5  6 -1 -1</clus>
<clus scale="   85.234">  2  5  1 -1</clus>
<clus scale="   94.133">  7  8 -1 -1</clus>
<clus scale="  124.306">  7 10 -1 -1</clus>
<clus scale="   26.493">  1  5  2 -1</clus>
</clustering>
</event>
<event>
10    4  0.2565852E-005  0.2552350E+03  0.7546771E-02  0.1122933E+00
          2   -1    0    0  502    0 -0.00000000000E+00  0.00000000000E+00  0.32198322426E+03  0.32198322426E+03  0.00000000000E+00 0. -1.
         21   -1    0    0  503  502  0.00000000000E+00 -0.00000000000E+00 -0.17762100123E+03  0.17762100123E+03  0.00000000000E+00 0. -1.
         24    2    1    2    0    0 -0.92677274386E+02 -0.14569873728E+03  0.23972265351E+02  0.19288531842E+03  0.82540155817E+02 0.  0.
         23    2    1    2    0    0  0.24130427784E+02  0.75392903813E+01  0.41353917805E+02  0.11493592133E+03  0.10421612662E+03 0.  0.
        -13    1    3    3    0    0 -0.55905667868E+02 -0.40048708628E+02  0.40492174898E+02  0.79805757878E+02  0.00000000000E+00 0.  1.
         14    1    3    3    0    0 -0.36771606519E+02 -0.10565002866E+03 -0.16519909547E+02  0.11307956054E+03  0.00000000000E+00 0. -1.
        -11    1    4    4    0    0 -0.20565392356E+02 -0.23352272973E+02  0.51010319590E+02  0.59752127329E+02  0.00000000000E+00 0.  1.
         11    1    4    4    0    0  0.44695820140E+02  0.30891563354E+02 -0.96564017851E+01  0.55183793996E+02  0.00000000000E+00 0. -1.
         21    1    1    2  503  501  0.29511651238E+02  0.80228689394E-01  0.37738318951E+01  0.29752072241E+02  0.00000000000E+00 0. -1.
          1    1    1    2  501    0  0.39035195365E+02  0.13807921821E+03  0.75262207979E+02  0.16203091350E+03  0.00000000000E+00 0. -1.
<scales pt_clust_5="13000.00000" pt_clust_6="13000.00000" pt_clust_7="13000.00000" pt_clust_8="13000.00000" pt_clust_9="29.51176" pt_clust_10="13000.00000"></scales>
<clustering>
<clus scale="   29.512">  2  9  1 -1</clus>
<clus scale="   82.540">  5  6 -1 -1</clus>
<clus scale="  104.216">  7  8 -1 -1</clus>
<clus scale="  145.819">  7 10 -1 -1</clus>
<clus scale="  184.502">  1  5  2 -1</clus>
<clus scale="   29.512">  2  5  1 -1</clus>
</clustering>
</event>
<event>
10    4  0.2565852E-005  0.2789262E+03  0.7546771E-02  0.1135259E+00
          2   -1    0    0  502    0 -0.00000000000E+00  0.00000000000E+00  0.11137872128E+04  0.11137872128E+04  0.00000000000E+00 0. -1.
         21   -1    0    0  503  502  0.00000000000E+00 -0.00000000000E+00 -0.40709894975E+02  0.40709894975E+02  0.00000000000E+00 0. -1.
         24    2    1    2    0    0  0.27506325922E+02  0.66629511227E+02  0.42953445301E+03  0.44251607074E+03  0.78259419970E+02 0.  0.
         23    2    1    2    0    0 -0.60846263999E+02  0.14968316028E+02  0.94845096762E+02  0.14625415639E+03  0.92023733652E+02 0.  0.
        -13    1    3    3    0    0  0.20242791908E+02 -0.30619776214E+01  0.26765962948E+02  0.33698117213E+02  0.00000000000E+00 0.  1.
         14    1    3    3    0    0  0.72635340143E+01  0.69691488848E+02  0.40276849006E+03  0.40881795353E+03  0.00000000000E+00 0. -1.
        -11    1    4    4    0    0 -0.48388907909E+02 -0.25166929108E+01 -0.56586924966E+00  0.48457614054E+02  0.00000000000E+00 0. -1.
         11    1    4    4    0    0 -0.12457356090E+02  0.17485008939E+02  0.95410966012E+02  0.97796542340E+02  0.00000000000E+00 0.  1.
         21    1    1    2  503  501 -0.24354289865E+02 -0.86252228681E+01  0.34067220365E+02  0.42756302550E+02  0.00000000000E+00 0. -1.
          1    1    1    2  501    0  0.57694227942E+02 -0.72972604387E+02  0.51463054773E+03  0.52297057813E+03  0.00000000000E+00 0. -1.
<scales pt_clust_5="13000.00000" pt_clust_6="13000.00000" pt_clust_7="13000.00000" pt_clust_8="13000.00000" pt_clust_9="25.83652" pt_clust_10="13000.00000"></scales>
<clustering>
<clus scale="   25.837">  2  9  1 -1</clus>
<clus scale="   78.259">  5  6 -1 -1</clus>
<clus scale="   92.024">  7  8 -1 -1</clus>
<clus scale="   92.111">  7 10 -1 -1</clus>
<clus scale="  104.392">  1  5  2 -1</clus>
<clus scale="   25.837">  2  5  1 -1</clus>
</clustering>
</event>
<event>
10    4  0.2565852E-005  0.1067731E+04  0.7546771E-02  0.9840256E-01
          2   -1    0    0  502    0 -0.00000000000E+00  0.00000000000E+00  0.87134504104E+03  0.87134504104E+03  0.00000000000E+00 0. -1.
         21   -1    0    0  503  502  0.00000000000E+00 -0.00000000000E+00 -0.46895367468E+03  0.46895367468E+03  0.00000000000E+00 0. -1.
         24    2    1    2    0    0  0.57683794724E+02  0.88229020484E+02  0.58011879949E+02  0.14482521076E+03  0.80605106713E+02 0.  0.
         23    2    1    2    0    0  0.16929576635E+03  0.29160370338E+03  0.57569657548E+03  0.67351066592E+03  0.92175342435E+02 0.  0.
        -13    1    3    3    0    0  0.63817071096E+02  0.26471002664E+02  0.41535731788E+02  0.80613581737E+02  0.00000000000E+00 0.  1.
         14    1    3    3    0    0 -0.61332763713E+01  0.61758017819E+02  0.16476148160E+02  0.64211629026E+02  0.00000000000E+00 0. -1.
        -11    1    4    4    0    0  0.24772350514E+02  0.10418323733E+03  0.23963597312E+03  0.26247517198E+03  0.00000000000E+00 0.  1.
         11    1    4    4    0    0  0.14452341584E+03  0.18742046605E+03  0.33606060236E+03  0.41103549394E+03  0.00000000000E+00 0. -1.
         21    1    1    2  503  501 -0.24303989201E+02 -0.23348865089E+01 -0.52079846437E+02  0.57519092404E+02  0.00000000000E+00 0. -1.
          1    1    1    2  501    0 -0.20267557188E+03 -0.37749783736E+03 -0.17923724264E+03  0.46444374664E+03  0.00000000000E+00 0. -1.
<scales pt_clust_5="13000.00000" pt_clust_6="13000.00000" pt_clust_7="13000.00000" pt_clust_8="13000.00000" pt_clust_9="24.41589" pt_clust_10="13000.00000"></scales>
<clustering>
<clus scale="   24.416">  2  9  1 -1</clus>
<clus scale="   80.605">  5  6 -1 -1</clus>
<clus scale="   92.175">  7  8 -1 -1</clus>
<clus scale="  131.448">  1  5  2 -1</clus>
<clus scale="  418.824">  7 10 -1 -1</clus>
<clus scale="   24.416">  2  5  1 -1</clus>
</clustering>
</event>
<event>
10    4  0.2565852E-005  0.3267733E+03  0.7546771E-02  0.1084301E+00
         21   -1    0    0  501  502  0.00000000000E+00  0.00000000000E+00  0.30247907668E+03  0.30247907668E+03  0.00000000000E+00 0. -1.
          4   -1    0    0  503    0 -0.00000000000E+00 -0.00000000000E+00 -0.33570839687E+03  0.33570839687E+03  0.00000000000E+00 0. -1.
         24    2    1    2    0    0 -0.17371285354E+03 -0.10690242417E+03  0.30817328628E+02  0.22119146322E+03  0.79822752902E+02 0.  0.
         23    2    1    2    0    0  0.14969497050E+03  0.16979012214E+03  0.19120611801E+02  0.24424831898E+03  0.89746162933E+02 0.  0.
        -13    1    3    3    0    0 -0.49158432272E+02 -0.61343050332E+02  0.40089986917E+02  0.88242440687E+02  0.00000000000E+00 0.  1.
         14    1    3    3    0    0 -0.12455442126E+03 -0.45559373842E+02 -0.92726582891E+01  0.13294902254E+03  0.00000000000E+00 0. -1.
        -11    1    4    4    0    0  0.27205747569E+02  0.73937295425E+01  0.29197960034E+02  0.40587446428E+02  0.00000000000E+00 0.  1.
         11    1    4    4    0    0  0.12248922293E+03  0.16239639259E+03 -0.10077348233E+02  0.20366087255E+03  0.00000000000E+00 0. -1.
         21    1    1    2  503  502 -0.10386497474E+02 -0.58986911791E+02  0.20614246380E+02  0.63342578463E+02  0.00000000000E+00 0. -1.
          3    1    1    2  501    0  0.34404380512E+02 -0.39007861714E+01 -0.10378150699E+03  0.10940511288E+03  0.00000000000E+00 0. -1.
<scales pt_clust_5="13000.00000" pt_clust_6="13000.00000" pt_clust_7="13000.00000" pt_clust_8="13000.00000" pt_clust_9="59.89437" pt_clust_10="13000.00000"></scales>
<clustering>
<clus scale="   59.894">  1  9  2 -1</clus>
<clus scale="   79.823">  5  6 -1 -1</clus>
<clus scale="   89.746">  7  8 -1 -1</clus>
<clus scale="   34.591">  7 10 -1 -1</clus>
<clus scale="  238.036">  2  5  1 -1</clus>
<clus scale="   59.894">  1  5  2 -1</clus>
</clustering>
</event>
<event>
10    4  0.2565852E-005  0.2986237E+03  0.7546771E-02  0.1107496E+00
          2   -1    0    0  503    0 -0.00000000000E+00  0.00000000000E+00  0.54817388136E+03  0.54817388136E+03  0.00000000000E+00 0. -1.
         21   -1    0    0  501  502  0.00000000000E+00 -0.00000000000E+00 -0.11605553671E+03  0.11605553671E+03  0.00000000000E+00 0. -1.
         24    2    1    2    0    0  0.19957325890E+02 -0.15436561843E+03  0.95858675680E+02  0.20070349088E+03  0.82861128036E+02 0.  0.
         23    2    1    2    0    0  0.35864574366E+01  0.56225511414E+02  0.37898812680E+00  0.10622418240E+03  0.90051443546E+02 0.  0.
        -11    1    3    3    0    0  0.47934151329E+02 -0.54341359616E+02  0.40302162789E+02  0.82915200983E+02  0.00000000000E+00 0.  1.
         12    1    3    3    0    0 -0.27976825440E+02 -0.10002425881E+03  0.55556512891E+02  0.11778828990E+03  0.00000000000E+00 0. -1.
        -11    1    4    4    0    0  0.28975634548E+02 -0.22982984497E+01  0.24507782416E+02  0.38019744505E+02  0.00000000000E+00 0.  1.
         11    1    4    4    0    0 -0.25389177112E+02  0.58523809863E+02 -0.24128794289E+02  0.68204437900E+02  0.00000000000E+00 0. -1.
         21    1    1    2  503  502  0.15859201224E+02  0.17916668778E+02  0.28614206291E+02  0.37300054761E+02  0.00000000000E+00 0. -1.
          1    1    1    2  501    0 -0.39402984550E+02  0.80223438236E+02  0.30726647456E+03  0.32000169003E+03  0.00000000000E+00 0. -1.
<scales pt_clust_5="13000.00000" pt_clust_6="13000.00000" pt_clust_7="13000.00000" pt_clust_8="13000.00000" pt_clust_9="23.92743" pt_clust_10="13000.00000"></scales>
<clustering>
<clus scale="   23.927">  2  9  1 -1</clus>
<clus scale="   82.861">  5  6 -1 -1</clus>
<clus scale="   90.051">  7  8 -1 -1</clus>
<clus scale="   89.905">  7 10 -1 -1</clus>
<clus scale="  170.060">  1  5  2 -1</clus>
<clus scale="   23.927">  2  5  1 -1</clus>
</clustering>
</event>
<event>
10    4  0.2565852E-005  0.2602569E+03  0.7546771E-02  0.1116245E+00
         21   -1    0    0  503  502  0.00000000000E+00  0.00000000000E+00  0.36656538733E+03  0.36656538733E+03  0.00000000000E+00 0.  1.
         -1   -1    0    0    0  501 -0.00000000000E+00 -0.00000000000E+00 -0.56757551723E+03  0.56757551723E+03  0.00000000000E+00 0.  1.
         24    2    1    2    0    0  0.18444212351E+03 -0.15550245410E+03  0.14076549444E+03  0.29089866357E+03  0.81284671893E+02 0.  0.
         23    2    1    2    0    0 -0.92056925584E+02  0.10780113118E+03 -0.23297502740E+03  0.29657094622E+03  0.11653926943E+03 0.  0.
        -13    1    3    3    0    0  0.18543770399E+03 -0.13047338893E+03  0.13862608241E+03  0.26575860852E+03  0.00000000000E+00 0.  1.
         14    1    3    3    0    0 -0.99558047829E+00 -0.25029065173E+02  0.21394120289E+01  0.25140055047E+02  0.00000000000E+00 0. -1.
        -13    1    4    4    0    0 -0.11484417592E+03  0.10892970911E+03 -0.18519195726E+03  0.24362045748E+03  0.00000000000E+00 0. -1.
         13    1    4    4    0    0  0.22787250334E+02 -0.11285779303E+01 -0.47783070141E+02  0.52950488742E+02  0.00000000000E+00 0.  1.
         21    1    1    2  503  501 -0.65012709183E+02  0.19203605987E+02  0.10733698837E+03  0.12695140767E+03  0.00000000000E+00 0.  1.
         -2    1    1    2    0  502 -0.27372488746E+02  0.28497716929E+02 -0.21613758530E+03  0.21971988710E+03  0.00000000000E+00 0.  1.
<scales pt_clust_5="13000.00000" pt_clust_6="13000.00000" pt_clust_7="13000.00000" pt_clust_8="13000.00000" pt_clust_9="67.78961" pt_clust_10="13000.00000"></scales>
<clustering>
<clus scale="   67.790">  1  9  2 -1</clus>
<clus scale="   81.285">  5  6 -1 -1</clus>
<clus scale="  116.539">  7  8 -1 -1</clus>
<clus scale="   39.938">  7 10 -1 -1</clus>
<clus scale="  205.737">  2  5  1 -1</clus>
<clus scale="   67.790">  1  5  2 -1</clus>
</clustering>
</event>
<event>
10    4  0.2565852E-005  0.2430049E+03  0.7546771E-02  0.1130111E+00
          2   -1    0    0  502    0 -0.00000000000E+00  0.00000000000E+00  0.14141886294E+04  0.14141886294E+04  0.00000000000E+00 0. -1.
         21   -1    0    0  503  502  0.00000000000E+00 -0.00000000000E+00 -0.36456618534E+02  0.36456618534E+02  0.00000000000E+00 0. -1.
         24    2    1    2    0    0 -0.40435750002E+00  0.15327659858E+03  0.40048552214E+03  0.43628700502E+03  0.80397873908E+02 0.  0.
         23    2    1    2    0    0  0.13284103126E+02 -0.12538672829E+02  0.27814899976E+03  0.29281904435E+03  0.89679657403E+02 0.  0.
        -13    1    3    3    0    0  0.25119446151E+02  0.42040650861E+02  0.61570577582E+02  0.78672351710E+02  0.00000000000E+00 0.  1.
         14    1    3    3    0    0 -0.25523803651E+02  0.11123594772E+03  0.33891494456E+03  0.35761465332E+03  0.00000000000E+00 0. -1.
        -11    1    4    4    0    0 -0.21560397243E+02  0.22534761354E+02  0.18252579999E+03  0.18517109348E+03  0.00000000000E+00 0.  1.
         11    1    4    4    0    0  0.34844500369E+02 -0.35073434183E+02  0.95623199771E+02  0.10764795087E+03  0.00000000000E+00 0. -1.
         21    1    1    2  503  501 -0.18994642147E+02  0.12133813552E+02  0.53365425170E+02  0.57930082558E+02  0.00000000000E+00 0.  1.
          1    1    1    2  501    0  0.61148965209E+01 -0.15287173930E+03  0.64573206381E+03  0.66360911602E+03  0.00000000000E+00 0. -1.
<scales pt_clust_5="13000.00000" pt_clust_6="13000.00000" pt_clust_7="13000.00000" pt_clust_8="13000.00000" pt_clust_9="22.53943" pt_clust_10="13000.00000"></scales>
<clustering>
<clus scale="   22.539">  2  9  1 -1</clus>
<clus scale="   80.398">  5  6 -1 -1</clus>
<clus scale="   89.680">  7  8 -1 -1</clus>
<clus scale="  149.703">  7 10 -1 -1</clus>
<clus scale="  179.035">  1  5  2 -1</clus>
<clus scale="   22.539">  2  5  1 -1</clus>
</clustering>
</event>
<event>
10    4  0.2565852E-005  0.2008320E+03  0.7546771E-02  0.1179679E+00
          4   -1    0    0  502    0 -0.00000000000E+00  0.00000000000E+00  0.15139224080E+03  0.15139224080E+03  0.00000000000E+00 0. -1.
         21   -1    0    0  503  502  0.00000000000E+00 -0.00000000000E+00 -0.96041903922E+03  0.96041903922E+03  0.00000000000E+00 0. -1.
         24    2    1    2    0    0 -0.29468367102E+02 -0.50573910251E+02 -0.73684210148E+02  0.12336589967E+03  0.79772660228E+02 0.  0.
         23    2    1    2    0    0 -0.26690782315E+02  0.59813183006E+02  0.56641343167E+02  0.12545338972E+03  0.90776078976E+02 0.  0.
        -13    1    3    3    0    0 -0.27737899616E+02  0.82702113942E+01  0.13788992263E+00  0.28944887031E+02  0.00000000000E+00 0.  1.
         14    1    3    3    0    0 -0.17304674855E+01 -0.58844121645E+02 -0.73822100070E+02  0.94421012644E+02  0.00000000000E+00 0. -1.
        -11    1    4    4    0    0  0.17001204261E+02 -0.15336083478E+02  0.22381301452E+02  0.32018105151E+02  0.00000000000E+00 0.  1.
         11    1    4    4    0    0 -0.43691986576E+02  0.75149266483E+02  0.34260041715E+02  0.93435284568E+02  0.00000000000E+00 0. -1.
         21    1    1    2  503  501  0.46194989268E+02 -0.10242209410E+03 -0.75325803160E+03  0.76159170463E+03  0.00000000000E+00 0. -1.
          3    1    1    2  501    0  0.99641601481E+01  0.93182821347E+02 -0.38725899846E+02  0.10140028600E+03  0.00000000000E+00 0. -1.
<scales pt_clust_5="13000.00000" pt_clust_6="13000.00000" pt_clust_7="13000.00000" pt_clust_8="13000.00000" pt_clust_9="113.48762" pt_clust_10="13000.00000"></scales>
<clustering>
<clus scale="   79.773">  5  6 -1 -1</clus>
<clus scale="   90.776">  7  8 -1 -1</clus>
<clus scale="   93.714">  7 10 -1 -1</clus>
<clus scale="   98.943">  1  5  2 -1</clus>
<clus scale="  113.488">  2  9  1 -1</clus>
<clus scale="  113.488">  2  5  1 -1</clus>
</clustering>
</event>
<event>
10    4  0.2565852E-005  0.1491987E+03  0.7546771E-02  0.1218674E+00
         21   -1    0    0  501  502  0.00000000000E+00  0.00000000000E+00  0.54144070398E+02  0.54144070398E+02  0.00000000000E+00 0. -1.
          2   -1    0    0  503    0 -0.00000000000E+00 -0.00000000000E+00 -0.73665147635E+03  0.73665147635E+03  0.00000000000E+00 0. -1.
         24    2    1    2    0    0  0.36054329912E+02 -0.55499021073E+02 -0.32275504401E+03  0.33949278764E+03  0.81880879174E+02 0.  0.
         23    2    1    2    0    0  0.22456327720E+02  0.19696880916E+02 -0.11213675652E+03  0.14679458658E+03  0.89898524540E+02 0.  0.
        -13    1    3    3    0    0  0.34951985567E+02  0.12561582694E+02 -0.12003756691E+03  0.12565210752E+03  0.00000000000E+00 0.  1.
         14    1    3    3    0    0  0.11023443451E+01 -0.68060603767E+02 -0.20271747711E+03  0.21384068012E+03  0.00000000000E+00 0. -1.
        -13    1    4    4    0    0  0.56412038021E+02  0.30349665045E+01 -0.60348971389E+02  0.82665152290E+02  0.00000000000E+00 0.  1.
         13    1    4    4    0    0 -0.33955710301E+02  0.16661914411E+02 -0.51787785128E+02  0.64129434290E+02  0.00000000000E+00 0. -1.
         21    1    1    2  503  502 -0.98808115455E+02 -0.26381877425E+02 -0.12856062384E+03  0.16427684297E+03  0.00000000000E+00 0. -1.
          1    1    1    2  501    0  0.40297457824E+02  0.62184017581E+02 -0.11905498158E+03  0.14023132956E+03  0.00000000000E+00 0. -1.
<scales pt_clust_5="13000.00000" pt_clust_6="13000.00000" pt_clust_7="13000.00000" pt_clust_8="13000.00000" pt_clust_9="102.26948" pt_clust_10="13000.00000"></scales>
<clustering>
<clus scale="   81.881">  5  6 -1 -1</clus>
<clus scale="   89.899">  7  8 -1 -1</clus>
<clus scale="   74.100">  7 10 -1 -1</clus>
<clus scale="  102.269">  1  9  2 -1</clus>
<clus scale="  103.310">  2  5  1 -1</clus>
<clus scale="  102.269">  1  5  2 -1</clus>
</clustering>
</event>
<event>
10    4  0.2565852E-005  0.4835782E+03  0.7546771E-02  0.1062801E+00
         21   -1    0    0  501  502  0.00000000000E+00  0.00000000000E+00  0.54762743854E+03  0.54762743854E+03  0.00000000000E+00 0. -1.
         -1   -1    0    0    0  501 -0.00000000000E+00 -0.00000000000E+00 -0.18980421232E+03  0.18980421232E+03  0.00000000000E+00 0.  1.
         24    2    1    2    0    0  0.88265219392E+02 -0.64185837636E+02  0.62105316810E+02  0.14969524068E+03  0.81492478171E+02 0.  0.
         23    2    1    2    0    0 -0.10150632936E+02  0.23114345157E+03  0.25625892908E+03  0.36233841019E+03  0.10995523730E+03 0.  0.
        -13    1    3    3    0    0 -0.66918563285E+01 -0.36762099304E+02  0.16908878801E+02  0.41013937493E+02  0.00000000000E+00 0.  1.
         14    1    3    3    0    0  0.94957075720E+02 -0.27423738332E+02  0.45196438010E+02  0.10868130319E+03  0.00000000000E+00 0. -1.
        -11    1    4    4    0    0  0.26861051912E+02  0.19212674046E+03  0.23445392564E+03  0.30430715364E+03  0.00000000000E+00 0. -1.
         11    1    4    4    0    0 -0.37011684848E+02  0.39016711115E+02  0.21805003440E+02  0.58031256548E+02  0.00000000000E+00 0.  1.
         21    1    1    2  503  502 -0.23556746818E+02  0.11186784265E+02  0.28696789837E+02  0.38775897279E+02  0.00000000000E+00 0.  1.
         -2    1    1    2    0  503 -0.54557839638E+02 -0.17814439820E+03  0.10762190490E+02  0.18662210271E+03  0.00000000000E+00 0.  1.
<scales pt_clust_5="13000.00000" pt_clust_6="13000.00000" pt_clust_7="13000.00000" pt_clust_8="13000.00000" pt_clust_9="26.07805" pt_clust_10="13000.00000"></scales>
<clustering>
<clus scale="   26.078">  1  9  2 -1</clus>
<clus scale="   81.492">  5  6 -1 -1</clus>
<clus scale="  109.955">  7  8 -1 -1</clus>
<clus scale="  132.014">  2  5  1 -1</clus>
<clus scale="  213.412">  7 10 -1 -1</clus>
<clus scale="   26.078">  1  5  2 -1</clus>
</clustering>
</event>
<event>
10    4  0.2565852E-005  0.3510957E+03  0.7546771E-02  0.1084982E+00
          2   -1    0    0  502    0 -0.00000000000E+00  0.00000000000E+00  0.16236480558E+04  0.16236480558E+04  0.00000000000E+00 0. -1.
         21   -1    0    0  503  502  0.00000000000E+00 -0.00000000000E+00 -0.53594377775E+02  0.53594377775E+02  0.00000000000E+00 0. -1.
         24    2    1    2    0    0  0.15748137477E+03  0.72578028418E+02  0.65159491781E+03  0.67905535429E+03  0.80450504454E+02 0.  0.
         23    2    1    2    0    0  0.53782756633E+02  0.41720616399E+02  0.27226155316E+03  0.29552630047E+03  0.92608024472E+02 0.  0.
        -11    1    3    3    0    0  0.45041675650E+02 -0.16165212084E+02  0.17059310320E+03  0.17717808410E+03  0.00000000000E+00 0.  1.
         12    1    3    3    0    0  0.11243969912E+03  0.88743240502E+02  0.48100181461E+03  0.50187727019E+03  0.00000000000E+00 0. -1.
        -13    1    4    4    0    0  0.57776541438E+02 -0.10249146315E+02  0.10442142282E+03  0.11977899350E+03  0.00000000000E+00 0. -1.
         13    1    4    4    0    0 -0.39937848052E+01  0.51969762714E+02  0.16784013034E+03  0.17574730697E+03  0.00000000000E+00 0.  1.
         21    1    1    2  503  501 -0.23127378288E+02  0.23825605409E+02  0.34192680843E+02  0.47662086850E+02  0.00000000000E+00 0.  1.
          1    1    1    2  501    0 -0.18813675312E+03 -0.13812425023E+03  0.61200452625E+03  0.65499869200E+03  0.00000000000E+00 0. -1.
<scales pt_clust_5="13000.00000" pt_clust_6="13000.00000" pt_clust_7="13000.00000" pt_clust_8="13000.00000" pt_clust_9="33.20444" pt_clust_10="13000.00000"></scales>
<clustering>
<clus scale="   33.204">  2  9  1 -1</clus>
<clus scale="   80.451">  5  6 -1 -1</clus>
<clus scale="   92.608">  7  8 -1 -1</clus>
<clus scale="  188.451">  1  5  2 -1</clus>
<clus scale="  120.283">  7 10 -1 -1</clus>
<clus scale="   33.204">  2  5  1 -1</clus>
</clustering>
</event>
<event>
10    4  0.2565852E-005  0.3884942E+03  0.7546771E-02  0.1067960E+00
         21   -1    0    0  503  502  0.00000000000E+00  0.00000000000E+00  0.57379098385E+02  0.57379098385E+02  0.00000000000E+00 0. -1.
          4   -1    0    0  502    0 -0.00000000000E+00 -0.00000000000E+00 -0.20373445499E+04  0.20373445499E+04  0.00000000000E+00 0. -1.
         24    2    1    2    0    0  0.95139135591E+01 -0.19894101700E+03 -0.85829874721E+03  0.88479593238E+03  0.80740694170E+02 0.  0.
         23    2    1    2    0    0 -0.13602563687E+03  0.14010624332E+03 -0.33817642682E+03  0.40099715217E+03  0.91119081946E+02 0.  0.
        -13    1    3    3    0    0  0.29619553737E+02 -0.24569791895E+02 -0.18782547499E+03  0.19172741507E+03  0.00000000000E+00 0.  1.
         14    1    3    3    0    0 -0.20105640178E+02 -0.17437122510E+03 -0.67047327222E+03  0.69306851730E+03  0.00000000000E+00 0. -1.
        -13    1    4    4    0    0 -0.73344756729E+02  0.13365846374E+03 -0.23696567950E+03  0.28177432731E+03  0.00000000000E+00 0. -1.
         13    1    4    4    0    0 -0.62680880138E+02  0.64477795791E+01 -0.10121074732E+03  0.11922282487E+03  0.00000000000E+00 0.  1.
         21    1    1    2  503  501  0.40008982259E+02 -0.20347145904E+02 -0.54669320338E+02  0.70735136913E+02  0.00000000000E+00 0.  1.
          3    1    1    2  501    0  0.86502741049E+02  0.79181919578E+02 -0.72882095720E+03  0.73819542687E+03  0.00000000000E+00 0. -1.
<scales pt_clust_5="13000.00000" pt_clust_6="13000.00000" pt_clust_7="13000.00000" pt_clust_8="13000.00000" pt_clust_9="44.88569" pt_clust_10="13000.00000"></scales>
<clustering>
<clus scale="   44.886">  1  9  2 -1</clus>
<clus scale="   80.741">  5  6 -1 -1</clus>
<clus scale="   91.119">  7  8 -1 -1</clus>
<clus scale="  118.836">  7 10 -1 -1</clus>
<clus scale="  220.704">  2  5  1 -1</clus>
<clus scale="   44.886">  1  5  2 -1</clus>
</clustering>
</event>
<event>
10    4  0.2565852E-005  0.4099190E+03  0.7546771E-02  0.1064833E+00
         21   -1    0    0  503  502  0.00000000000E+00  0.00000000000E+00  0.15914952876E+03  0.15914952876E+03  0.00000000000E+00 0.  1.
          2   -1    0    0  502    0 -0.00000000000E+00 -0.00000000000E+00 -0.95455059479E+03  0.95455059479E+03  0.00000000000E+00 0. -1.
         24    2    1    2    0    0 -0.73342421231E+02  0.17739137905E+03 -0.49849352116E+03  0.54023746360E+03  0.80708824310E+02 0.  0.
         23    2    1    2    0    0 -0.26208711086E+02 -0.53766050100E+02  0.48211982108E+02  0.11970456711E+03  0.91799256462E+02 0.  0.
        -13    1    3    3    0    0  0.29835687037E+01  0.33843369889E+02 -0.33796881594E+02  0.47921859032E+02  0.00000000000E+00 0.  1.
         14    1    3    3    0    0 -0.76325989935E+02  0.14354800917E+03 -0.46469663957E+03  0.49231560457E+03  0.00000000000E+00 0. -1.
        -13    1    4    4    0    0 -0.45010491443E+02 -0.40522314806E+02 -0.59564783667E+01  0.60856240203E+02  0.00000000000E+00 0. -1.
         13    1    4    4    0    0  0.18801780356E+02 -0.13243735295E+02  0.54168460474E+02  0.58848326903E+02  0.00000000000E+00 0.  1.
         21    1    1    2  503  501  0.35149516820E+02 -0.80980756507E+01  0.35623161885E+02  0.50695927101E+02  0.00000000000E+00 0.  1.
          1    1    1    2  501    0  0.64401615498E+02 -0.11552725330E+03 -0.38074268886E+03  0.40306216574E+03  0.00000000000E+00 0. -1.
<scales pt_clust_5="13000.00000" pt_clust_6="13000.00000" pt_clust_7="13000.00000" pt_clust_8="13000.00000" pt_clust_9="36.07031" pt_clust_10="13000.00000"></scales>
<clustering>
<clus scale="   36.070">  1  9  2 -1</clus>
<clus scale="   80.709">  5  6 -1 -1</clus>
<clus scale="   91.799">  7  8 -1 -1</clus>
<clus scale="  134.617">  7 10 -1 -1</clus>
<clus scale="  204.837">  2  5  1 -1</clus>
<clus scale="   36.070">  1  5  2 -1</clus>
</clustering>
</event>
<event>
10    4  0.2565852E-005  0.3074304E+03  0.7546771E-02  0.1119429E+00
         21   -1    0    0  501  502  0.00000000000E+00  0.00000000000E+00  0.75738919345E+02  0.75738919345E+02  0.00000000000E+00 0. -1.
          2   -1    0    0  503    0 -0.00000000000E+00 -0.00000000000E+00 -0.94317356970E+03  0.94317356970E+03  0.00000000000E+00 0. -1.
         24    2    1    2    0    0 -0.48708519232E+02  0.23068069435E+02 -0.34444769667E+03  0.36350754156E+03  0.10290219313E+03 0.  0.
         23    2    1    2    0    0  0.16883146423E+02 -0.11213370656E+03 -0.13640734816E+03  0.20120319037E+03  0.94956571136E+02 0.  0.
        -13    1    3    3    0    0  0.26171251470E+02  0.28826794121E+02 -0.86691498121E+02  0.95033332622E+02  0.00000000000E+00 0.  1.
         14    1    3    3    0    0 -0.74879770701E+02 -0.57587246856E+01 -0.25775619855E+03  0.26847420893E+03  0.00000000000E+00 0. -1.
        -11    1    4    4    0    0 -0.14552504981E+01 -0.12374041821E+03 -0.12768715036E+03  0.17781399614E+03  0.00000000000E+00 0. -1.
         11    1    4    4    0    0  0.18338396921E+02  0.11606711657E+02 -0.87201977965E+01  0.23389194230E+02  0.00000000000E+00 0.  1.
         21    1    1    2  503  502  0.25996777640E+01 -0.20726534714E+02  0.21870985483E+02  0.30243802203E+02  0.00000000000E+00 0. -1.
          1    1    1    2  501    0  0.29225695045E+02  0.10979217184E+03 -0.40845059100E+03  0.42395795491E+03  0.00000000000E+00 0. -1.
<scales pt_clust_5="13000.00000" pt_clust_6="13000.00000" pt_clust_7="13000.00000" pt_clust_8="13000.00000" pt_clust_9="20.88893" pt_clust_10="13000.00000"></scales>
<clustering>
<clus scale="   20.889">  1  9  2 -1</clus>
<clus scale="   94.957">  7  8 -1 -1</clus>
<clus scale="  102.902">  5  6 -1 -1</clus>
<clus scale="  110.601">  7 10 -1 -1</clus>
<clus scale="  115.228">  2  5  1 -1</clus>
<clus scale="   20.889">  1  5  2 -1</clus>
</clustering>
</event>
<event>
10    4  0.2565852E-005  0.4201996E+03  0.7546771E-02  0.1060796E+00
          2   -1    0    0  503    0 -0.00000000000E+00  0.00000000000E+00  0.23027293311E+04  0.23027293311E+04  0.00000000000E+00 0. -1.
         21   -1    0    0  501  502  0.00000000000E+00 -0.00000000000E+00 -0.10702030168E+03  0.10702030168E+03  0.00000000000E+00 0. -1.
         24    2    1    2    0    0 -0.70760760615E+02  0.16596039621E+03  0.10684385050E+03  0.22323180381E+03  0.76595636234E+02 0.  0.
         23    2    1    2    0    0 -0.86999430413E+02  0.49710570130E+02  0.66562085149E+03  0.67931745673E+03  0.91548060641E+02 0.  0.
        -13    1    3    3    0    0 -0.22637446434E+02  0.41708809059E+02  0.70737069351E+02  0.85181052556E+02  0.00000000000E+00 0.  1.
         14    1    3    3    0    0 -0.48123314182E+02  0.12425158715E+03  0.36106781149E+02  0.13805075125E+03  0.00000000000E+00 0. -1.
        -13    1    4    4    0    0 -0.43917227603E+02 -0.22010758941E+02  0.18201310992E+03  0.18852577694E+03  0.00000000000E+00 0.  1.
         13    1    4    4    0    0 -0.43082202810E+02  0.71721329070E+02  0.48360774157E+03  0.49079167979E+03  0.00000000000E+00 0. -1.
         21    1    1    2  503  502  0.63029704587E+01  0.28898411579E+02 -0.19909766773E+02  0.35654515021E+02  0.00000000000E+00 0. -1.
          1    1    1    2  501    0  0.15145722057E+03 -0.24456937792E+03  0.14431540942E+04  0.14715458572E+04  0.00000000000E+00 0. -1.
<scales pt_clust_5="13000.00000" pt_clust_6="13000.00000" pt_clust_7="13000.00000" pt_clust_8="13000.00000" pt_clust_9="29.57779" pt_clust_10="13000.00000"></scales>
<clustering>
<clus scale="   29.578">  2  9  1 -1</clus>
<clus scale="   76.596">  5  6 -1 -1</clus>
<clus scale="   91.548">  7  8 -1 -1</clus>
<clus scale="  212.787">  1  5  2 -1</clus>
<clus scale="  156.090">  7 10 -1 -1</clus>
<clus scale="   29.578">  2  5  1 -1</clus>
</clustering>
</event>
<event>
10    4  0.2565852E-005  0.3962175E+03  0.7546771E-02  0.1092105E+00
          2   -1    0    0  503    0 -0.00000000000E+00  0.00000000000E+00  0.11039929955E+04  0.11039929955E+04  0.00000000000E+00 0. -1.
         21   -1    0    0  501  502  0.00000000000E+00 -0.00000000000E+00 -0.10568649922E+03  0.10568649922E+03  0.00000000000E+00 0. -1.
         24    2    1    2    0    0 -0.29422072544E+01  0.53259775305E+02 -0.26390091569E+01  0.96503131500E+02  0.80378042840E+02 0.  0.
         23    2    1    2    0    0  0.81694527231E+02 -0.82045870116E+02  0.11925856417E+03  0.18903877180E+03  0.90041832123E+02 0.  0.
        -11    1    3    3    0    0  0.39631697505E+01  0.21933015525E+02  0.38408874760E+02  0.44407269054E+02  0.00000000000E+00 0.  1.
         12    1    3    3    0    0 -0.69053770049E+01  0.31326759780E+02 -0.41047883917E+02  0.52095862446E+02  0.00000000000E+00 0. -1.
        -11    1    4    4    0    0 -0.18094497522E+02 -0.25702870607E+02  0.18683183722E+02  0.36566511346E+02  0.00000000000E+00 0.  1.
         11    1    4    4    0    0  0.99789024753E+02 -0.56342999509E+02  0.10057538045E+03  0.15247226045E+03  0.00000000000E+00 0. -1.
         21    1    1    2  503  502  0.61678478316E+02  0.23449227346E+02  0.55907545924E+02  0.86485574761E+02  0.00000000000E+00 0. -1.
          1    1    1    2  501    0 -0.14043079829E+03  0.53368674649E+01  0.82577939536E+03  0.83765201669E+03  0.00000000000E+00 0. -1.
<scales pt_clust_5="13000.00000" pt_clust_6="13000.00000" pt_clust_7="13000.00000" pt_clust_8="13000.00000" pt_clust_9="65.98561" pt_clust_10="13000.00000"></scales>
<clustering>
<clus scale="   65.986">  2  9  1 -1</clus>
<clus scale="   80.378">  5  6 -1 -1</clus>
<clus scale="   90.042">  7  8 -1 -1</clus>
<clus scale="  108.563">  1  5  2 -1</clus>
<clus scale="  126.635">  7 10 -1 -1</clus>
<clus scale="   65.986">  2  5  1 -1</clus>
</clustering>
</event>
<event>
10    4  0.2565852E-005  0.2431673E+03  0.7546771E-02  0.1144481E+00
         21   -1    0    0  501  502  0.00000000000E+00  0.00000000000E+00  0.19314952911E+03  0.19314952911E+03  0.00000000000E+00 0. -1.
          2   -1    0    0  503    0 -0.00000000000E+00 -0.00000000000E+00 -0.35591672193E+03  0.35591672193E+03  0.00000000000E+00 0. -1.
         24    2    1    2    0    0 -0.79864605258E+02  0.48757940370E+02 -0.26223695871E+02  0.12634196054E+03  0.80739809545E+02 0.  0.
         23    2    1    2    0    0  0.96769717273E+02  0.80770181117E+02 -0.15435874584E+03  0.21972926663E+03  0.92553378418E+02 0.  0.
        -13    1    3    3    0    0  0.13951839941E+01  0.32652938900E+02 -0.28655292275E+02  0.43465926109E+02  0.00000000000E+00 0.  1.
         14    1    3    3    0    0 -0.81259789252E+02  0.16105001470E+02  0.24315964035E+01  0.82876034429E+02  0.00000000000E+00 0. -1.
        -11    1    4    4    0    0  0.64885747788E+02  0.81018140328E+02 -0.59472150750E+02  0.11962874255E+03  0.00000000000E+00 0. -1.
         11    1    4    4    0    0  0.31883969485E+02 -0.24795921097E+00 -0.94886595087E+02  0.10010052408E+03  0.00000000000E+00 0.  1.
         21    1    1    2  503  502 -0.26267264383E+02 -0.40637202498E+02  0.80429553909E+02  0.93863009472E+02  0.00000000000E+00 0. -1.
          1    1    1    2  501    0  0.93621523682E+01 -0.88890918989E+02 -0.62614305024E+02  0.10913201441E+03  0.00000000000E+00 0. -1.
<scales pt_clust_5="13000.00000" pt_clust_6="13000.00000" pt_clust_7="13000.00000" pt_clust_8="13000.00000" pt_clust_9="48.38751" pt_clust_10="13000.00000"></scales>
<clustering>
<clus scale="   48.388">  1  9  2 -1</clus>
<clus scale="   80.740">  5  6 -1 -1</clus>
<clus scale="   92.553">  7  8 -1 -1</clus>
<clus scale="   97.874">  7 10 -1 -1</clus>
<clus scale="  126.122">  2  5  1 -1</clus>
<clus scale="   48.388">  1  5  2 -1</clus>
</clustering>
</event>
<event>
10    4  0.2565852E-005  0.1780704E+03  0.7546771E-02  0.1181580E+00
          2   -1    0    0  503    0 -0.00000000000E+00  0.00000000000E+00  0.48634892803E+03  0.48634892803E+03  0.00000000000E+00 0. -1.
         21   -1    0    0  501  502  0.00000000000E+00 -0.00000000000E+00 -0.10111718597E+03  0.10111718597E+03  0.00000000000E+00 0. -1.
         24    2    1    2    0    0 -0.12926460524E+03  0.31881664511E+02  0.86568995826E+02  0.17760537885E+03  0.79521700548E+02 0.  0.
         23    2    1    2    0    0  0.49796930334E+02 -0.42921492363E+02  0.24977545657E+03  0.27365663672E+03  0.90433330914E+02 0.  0.
        -11    1    3    3    0    0 -0.21434897138E+02  0.39984283866E+02  0.14389521753E+02  0.47594706721E+02  0.00000000000E+00 0.  1.
         12    1    3    3    0    0 -0.10782970811E+03 -0.81026193543E+01  0.72179474073E+02  0.13001067213E+03  0.00000000000E+00 0. -1.
        -11    1    4    4    0    0  0.23135552131E+02 -0.64684891421E+02  0.21054644712E+03  0.22147052929E+03  0.00000000000E+00 0. -1.
         11    1    4    4    0    0  0.26661378203E+02  0.21763399058E+02  0.39229009451E+02  0.52186107431E+02  0.00000000000E+00 0.  1.
         21    1    1    2  503  502  0.30641470210E+02 -0.16613702458E+02 -0.25383475615E+02  0.43118854812E+02  0.00000000000E+00 0. -1.
          1    1    1    2  501    0  0.48826204699E+02  0.27653530310E+02  0.74270765283E+02  0.93085243619E+02  0.00000000000E+00 0. -1.
<scales pt_clust_5="13000.00000" pt_clust_6="13000.00000" pt_clust_7="13000.00000" pt_clust_8="13000.00000" pt_clust_9="34.85563" pt_clust_10="13000.00000"></scales>
<clustering>
<clus scale="   34.856">  2  9  1 -1</clus>
<clus scale="   79.522">  5  6 -1 -1</clus>
<clus scale="   90.433">  7  8 -1 -1</clus>
<clus scale="   58.860">  7 10 -1 -1</clus>
<clus scale="  136.010">  1  5  2 -1</clus>
<clus scale="   34.856">  2  5  1 -1</clus>
</clustering>
</event>
<event>
10    4  0.2565852E-005  0.1957613E+03  0.7546771E-02  0.1170903E+00
         21   -1    0    0  501  502  0.00000000000E+00  0.00000000000E+00  0.25147254926E+03  0.25147254926E+03  0.00000000000E+00 0. -1.
          2   -1    0    0  503    0 -0.00000000000E+00 -0.00000000000E+00 -0.73538320921E+03  0.73538320921E+03  0.00000000000E+00 0. -1.
         24    2    1    2    0    0 -0.60075870632E+02 -0.83189060972E+02 -0.68350603619E+03  0.69589491638E+03  0.80991993605E+02 0.  0.
         23    2    1    2    0    0 -0.20628392541E+02  0.49842907415E+02  0.63465939307E+02  0.11959095237E+03  0.85815059507E+02 0.  0.
        -11    1    3    3    0    0  0.10932747667E+02 -0.51971811546E+02 -0.28718183698E+03  0.29205136818E+03  0.00000000000E+00 0.  1.
         12    1    3    3    0    0 -0.71008618299E+02 -0.31217249425E+02 -0.39632419922E+03  0.40384354820E+03  0.00000000000E+00 0. -1.
        -13    1    4    4    0    0  0.12799021586E+02  0.53937334756E+02  0.98913135377E+01  0.56310648351E+02  0.00000000000E+00 0.  1.
         13    1    4    4    0    0 -0.33427414127E+02 -0.40944273414E+01  0.53574625769E+02  0.63280304019E+02  0.00000000000E+00 0. -1.
         21    1    1    2  503  502 -0.66156951631E+00  0.21444831840E+02  0.34661807174E+02  0.40764682795E+02  0.00000000000E+00 0.  1.
          1    1    1    2  501    0  0.81365832690E+02  0.11901321717E+02  0.10146762977E+03  0.13060520693E+03  0.00000000000E+00 0. -1.
<scales pt_clust_5="13000.00000" pt_clust_6="13000.00000" pt_clust_7="13000.00000" pt_clust_8="13000.00000" pt_clust_9="21.45503" pt_clust_10="13000.00000"></scales>
<clustering>
<clus scale="   21.455">  1  9  2 -1</clus>
<clus scale="   80.992">  5  6 -1 -1</clus>
<clus scale="   85.815">  7  8 -1 -1</clus>
<clus scale="   84.358">  7 10 -1 -1</clus>
<clus scale="  130.340">  2  5  1 -1</clus>
<clus scale="   21.455">  1  5  2 -1</clus>
</clustering>
</event>
<event>
10    4  0.2565852E-005  0.3257795E+03  0.7546771E-02  0.1081052E+00
         21   -1    0    0  501  502  0.00000000000E+00  0.00000000000E+00  0.22658477062E+03  0.22658477062E+03  0.00000000000E+00 0. -1.
          2   -1    0    0  503    0 -0.00000000000E+00 -0.00000000000E+00 -0.79624816148E+03  0.79624816148E+03  0.00000000000E+00 0. -1.
         24    2    1    2    0    0  0.16839180087E+03  0.72855592639E+02 -0.14129944148E+02  0.19778062176E+03  0.72482984488E+02 0.  0.
         23    2    1    2    0    0 -0.55790123665E+02 -0.39195199389E+02 -0.24539562854E+03  0.27710971081E+03  0.10918780044E+03 0.  0.
        -11    1    3    3    0    0  0.45093711151E+02 -0.98076139946E+01 -0.17350053695E+02  0.49301688012E+02  0.00000000000E+00 0.  1.
         12    1    3    3    0    0  0.12329808972E+03  0.82663206633E+02  0.32201095472E+01  0.14847893374E+03  0.00000000000E+00 0. -1.
        -11    1    4    4    0    0 -0.68533586034E+02 -0.90023788086E+01 -0.68897674893E+02  0.97595004198E+02  0.00000000000E+00 0. -1.
         11    1    4    4    0    0  0.12743462369E+02 -0.30192820581E+02 -0.17649795365E+03  0.17951470661E+03  0.00000000000E+00 0.  1.
         21    1    1    2  503  502  0.10905877556E+03  0.51004925806E+01  0.52513097593E+02  0.12115055497E+03  0.00000000000E+00 0. -1.
          1    1    1    2  501    0 -0.22166045277E+03 -0.38760885830E+02 -0.36265091577E+03  0.42679204456E+03  0.00000000000E+00 0. -1.
<scales pt_clust_5="13000.00000" pt_clust_6="13000.00000" pt_clust_7="13000.00000" pt_clust_8="13000.00000" pt_clust_9="109.17798" pt_clust_10="13000.00000"></scales>
<clustering>
<clus scale="   72.483">  5  6 -1 -1</clus>
<clus scale="  109.178">  1  9  2 -1</clus>
<clus scale="  109.188">  7  8 -1 -1</clus>
<clus scale="  200.195">  7 10 -1 -1</clus>
<clus scale="  262.078">  2  5  1 -1</clus>
<clus scale="  109.178">  1  5  2 -1</clus>
</clustering>
</event>
<event>
10    4  0.2565852E-005  0.1599010E+03  0.7546771E-02  0.1196871E+00
          2   -1    0    0  502    0 -0.00000000000E+00  0.00000000000E+00  0.40105452827E+03  0.40105452827E+03  0.00000000000E+00 0. -1.
         21   -1    0    0  503  502  0.00000000000E+00 -0.00000000000E+00 -0.16027627168E+03  0.16027627168E+03  0.00000000000E+00 0.  1.
         24    2    1    2    0    0  0.94675398453E+02 -0.97645178059E+01  0.51831856363E+02  0.13453201293E+03  0.79709123003E+02 0.  0.
         23    2    1    2    0    0 -0.91270674577E+02 -0.55803942703E+02  0.17305074987E+03  0.22237302185E+03  0.89770723279E+02 0.  0.
        -11    1    3    3    0    0  0.39144254465E+02 -0.43898859686E+01  0.66099406304E+02  0.76945924325E+02  0.00000000000E+00 0.  1.
         12    1    3    3    0    0  0.55531143988E+02 -0.53746318373E+01 -0.14267549941E+02  0.57586088609E+02  0.00000000000E+00 0. -1.
        -13    1    4    4    0    0 -0.24447431616E+02 -0.60843226414E+02  0.12060349697E+03  0.13727628562E+03  0.00000000000E+00 0.  1.
         13    1    4    4    0    0 -0.66823242961E+02  0.50392837113E+01  0.52447252904E+02  0.85096736232E+02  0.00000000000E+00 0. -1.
         21    1    1    2  503  501  0.50595230055E+01  0.89956157559E+02 -0.70406766979E+02  0.11434518745E+03  0.00000000000E+00 0.  1.
          1    1    1    2  501    0 -0.84642468814E+01 -0.24387697050E+02  0.86302417341E+02  0.90080577716E+02  0.00000000000E+00 0. -1.
<scales pt_clust_5="13000.00000" pt_clust_6="13000.00000" pt_clust_7="13000.00000" pt_clust_8="13000.00000" pt_clust_9="90.09833" pt_clust_10="13000.00000"></scales>
<clustering>
<clus scale="   79.709">  5  6 -1 -1</clus>
<clus scale="   89.771">  7  8 -1 -1</clus>
<clus scale="   25.815">  7 10 -1 -1</clus>
<clus scale="   90.098">  2  9  1 -1</clus>
<clus scale="  133.927">  1  5  2 -1</clus>
<clus scale="   90.098">  2  5  1 -1</clus>
</clustering>
</event>
<event>
10    4  0.2565852E-005  0.6394961E+03  0.7546771E-02  0.1016208E+00
         21   -1    0    0  501  502  0.00000000000E+00  0.00000000000E+00  0.11786524789E+03  0.11786524789E+03  0.00000000000E+00 0.  1.
         -1   -1    0    0    0  501 -0.00000000000E+00 -0.00000000000E+00 -0.20409091381E+04  0.20409091381E+04  0.00000000000E+00 0.  1.
         24    2    1    2    0    0  0.18611348567E+03  0.10065983959E+03 -0.71438658356E+03  0.74947282779E+03  0.81183101553E+02 0.  0.
         23    2    1    2    0    0  0.74660648538E+02  0.18108842571E+03 -0.74804993723E+03  0.77865555748E+03  0.91425041677E+02 0.  0.
        -11    1    3    3    0    0  0.13200334543E+03  0.56443332150E+02 -0.34745075774E+03  0.37594249826E+03  0.00000000000E+00 0.  1.
         12    1    3    3    0    0  0.54110140237E+02  0.44216507440E+02 -0.36693582582E+03  0.37353032953E+03  0.00000000000E+00 0. -1.
        -11    1    4    4    0    0  0.57436773386E+02  0.16025558775E+03 -0.71939435243E+03  0.73926251808E+03  0.00000000000E+00 0.  1.
         11    1    4    4    0    0  0.17223875152E+02  0.20832837962E+02 -0.28655584805E+02  0.39393039402E+02  0.00000000000E+00 0. -1.
         21    1    1    2  503  502 -0.31789351836E+02  0.70171446376E+00  0.12315880510E+02  0.34098917961E+02  0.00000000000E+00 0.  1.
         -2    1    1    2    0  503 -0.22898478237E+03 -0.28244997976E+03 -0.47292324996E+03  0.59654708278E+03  0.00000000000E+00 0.  1.
<scales pt_clust_5="13000.00000" pt_clust_6="13000.00000" pt_clust_7="13000.00000" pt_clust_8="13000.00000" pt_clust_9="31.79710" pt_clust_10="13000.00000"></scales>
<clustering>
<clus scale="   31.797">  1  9  2 -1</clus>
<clus scale="   81.183">  5  6 -1 -1</clus>
<clus scale="   91.425">  7  8 -1 -1</clus>
<clus scale="  221.877">  2  5  1 -1</clus>
<clus scale="  293.628">  7 10 -1 -1</clus>
<clus scale="   31.797">  1  5  2 -1</clus>
</clustering>
</event>
<event>
10    4  0.2565852E-005  0.3441125E+03  0.7546771E-02  0.1108887E+00
         21   -1    0    0  503  502  0.00000000000E+00  0.00000000000E+00  0.35915324497E+03  0.35915324497E+03  0.00000000000E+00 0. -1.
          2   -1    0    0  502    0 -0.00000000000E+00 -0.00000000000E+00 -0.65710976515E+03  0.65710976515E+03  0.00000000000E+00 0. -1.
         24    2    1    2    0    0 -0.21299903149E+01  0.83058263550E+02 -0.16244592970E+03  0.20070866986E+03  0.83618646709E+02 0.  0.
         23    2    1    2    0    0 -0.24611632626E+02  0.12191158955E+03 -0.85754793547E+02  0.17676170575E+03  0.91774985016E+02 0.  0.
        -13    1    3    3    0    0 -0.36609480970E+02  0.33481168045E+02 -0.11021643158E+03  0.12086730120E+03  0.00000000000E+00 0.  1.
         14    1    3    3    0    0  0.34479490655E+02  0.49577095505E+02 -0.52229498124E+02  0.79841368655E+02  0.00000000000E+00 0. -1.
        -11    1    4    4    0    0 -0.24318478878E+02  0.54735497209E+02 -0.91478007833E+02  0.10934161599E+03  0.00000000000E+00 0.  1.
         11    1    4    4    0    0 -0.29315374814E+00  0.67176092340E+02  0.57232142854E+01  0.67420089758E+02  0.00000000000E+00 0. -1.
         21    1    1    2  503  501 -0.14556906484E+02 -0.67263178363E+02  0.27508337692E+03  0.28356146238E+03  0.00000000000E+00 0. -1.
          1    1    1    2  501    0  0.41298529425E+02 -0.13770667474E+03 -0.32483917384E+03  0.35523117214E+03  0.00000000000E+00 0. -1.
<scales pt_clust_5="13000.00000" pt_clust_6="13000.00000" pt_clust_7="13000.00000" pt_clust_8="13000.00000" pt_clust_9="68.82034" pt_clust_10="13000.00000"></scales>
<clustering>
<clus scale="   68.820">  1  9  2 -1</clus>
<clus scale="   83.619">  5  6 -1 -1</clus>
<clus scale="   91.775">  7  8 -1 -1</clus>
<clus scale="  107.259">  2  5  1 -1</clus>
<clus scale="  103.098">  7 10 -1 -1</clus>
<clus scale="   68.820">  1  5  2 -1</clus>
</clustering>
</event>
<event>
10    4  0.2565852E-005  0.2532932E+03  0.7546771E-02  0.1116080E+00
         21   -1    0    0  501  502  0.00000000000E+00  0.00000000000E+00  0.14071185456E+03  0.14071185456E+03  0.00000000000E+00 0.  1.
          2   -1    0    0  503    0 -0.00000000000E+00 -0.00000000000E+00 -0.59725948696E+03  0.59725948696E+03  0.00000000000E+00 0. -1.
         24    2    1    2    0    0  0.43987699379E+02  0.20195133746E+03 -0.31229939684E+03  0.38357261365E+03  0.82932359640E+02 0.  0.
         23    2    1    2    0    0 -0.46717926961E+02 -0.17459457327E+03 -0.10042177592E+03  0.22715283826E+03  0.94064069313E+02 0.  0.
        -13    1    3    3    0    0  0.67227703084E+02  0.12392983280E+03 -0.20753273941E+03  0.25089441095E+03  0.00000000000E+00 0.  1.
         14    1    3    3    0    0 -0.23240003705E+02  0.78021504659E+02 -0.10476665743E+03  0.13267820270E+03  0.00000000000E+00 0. -1.
        -11    1    4    4    0    0  0.11931898450E+01 -0.27781832834E+02  0.17491724863E+02  0.32851398392E+02  0.00000000000E+00 0.  1.
         11    1    4    4    0    0 -0.47911116806E+02 -0.14681274044E+03 -0.11791350078E+03  0.19430143987E+03  0.00000000000E+00 0. -1.
         21    1    1    2  503  502  0.20907261610E+02 -0.48595203053E+00  0.35690275828E+02  0.41365994804E+02  0.00000000000E+00 0.  1.
          1    1    1    2  501    0 -0.18177034029E+02 -0.26870812155E+02 -0.79516735471E+02  0.85879894806E+02  0.00000000000E+00 0. -1.
<scales pt_clust_5="13000.00000" pt_clust_6="13000.00000" pt_clust_7="13000.00000" pt_clust_8="13000.00000" pt_clust_9="20.91291" pt_clust_10="13000.00000"></scales>
<clustering>
<clus scale="   20.913">  1  9  2 -1</clus>
<clus scale="   82.932">  5  6 -1 -1</clus>
<clus scale="   94.064">  7  8 -1 -1</clus>
<clus scale="   32.094">  7 10 -1 -1</clus>
<clus scale="  224.105">  2  5  1 -1</clus>
<clus scale="   20.913">  1  5  2 -1</clus>
</clustering>
</event>
<event>
10    4  0.2565852E-005  0.2281118E+03  0.7546771E-02  0.1143755E+00
          2   -1    0    0  503    0 -0.00000000000E+00  0.00000000000E+00  0.11310484215E+04  0.11310484215E+04  0.00000000000E+00 0. -1.
         21   -1    0    0  501  502  0.00000000000E+00 -0.00000000000E+00 -0.65925061530E+02  0.65925061530E+02  0.00000000000E+00 0. -1.
         24    2    1    2    0    0  0.59425687433E+02  0.10365815626E+03  0.24704780570E+03  0.28557150480E+03  0.79006584331E+02 0.  0.
         23    2    1    2    0    0 -0.55319534106E+02 -0.22306174549E+02  0.18375800844E+03  0.21238542638E+03  0.88219880947E+02 0.  0.
        -13    1    3    3    0    0 -0.59031229344E+01  0.56053364012E+02  0.62871492883E+02  0.84437261294E+02  0.00000000000E+00 0.  1.
         14    1    3    3    0    0  0.65328810367E+02  0.47604792252E+02  0.18417631282E+03  0.20113424351E+03  0.00000000000E+00 0. -1.
        -13    1    4    4    0    0 -0.23372753095E+02 -0.26494231703E+02  0.11521994622E+02  0.37161623496E+02  0.00000000000E+00 0. -1.
         13    1    4    4    0    0 -0.31946781011E+02  0.41880571539E+01  0.17223601382E+03  0.17522380288E+03  0.00000000000E+00 0.  1.
         21    1    1    2  503  502  0.78385906903E+02 -0.27694920047E+02  0.32588419985E+02  0.89293695827E+02  0.00000000000E+00 0. -1.
          1    1    1    2  501    0 -0.82492060230E+02 -0.53657061668E+02  0.60172912583E+03  0.60972285601E+03  0.00000000000E+00 0. -1.
<scales pt_clust_5="13000.00000" pt_clust_6="13000.00000" pt_clust_7="13000.00000" pt_clust_8="13000.00000" pt_clust_9="83.13458" pt_clust_10="13000.00000"></scales>
<clustering>
<clus scale="   79.007">  5  6 -1 -1</clus>
<clus scale="   83.135">  2  9  1 -1</clus>
<clus scale="   88.220">  7  8 -1 -1</clus>
<clus scale="   93.288">  7 10 -1 -1</clus>
<clus scale="  155.459">  1  5  2 -1</clus>
<clus scale="   83.135">  2  5  1 -1</clus>
</clustering>
</event>
<event>
10    4  0.2565852E-005  0.2568727E+03  0.7546771E-02  0.1120321E+00
         21   -1    0    0  501  502  0.00000000000E+00  0.00000000000E+00  0.24487067344E+03  0.24487067344E+03  0.00000000000E+00 0.  1.
         -1   -1    0    0    0  501 -0.00000000000E+00 -0.00000000000E+00 -0.48740169265E+03  0.48740169265E+03  0.00000000000E+00 0.  1.
         24    2    1    2    0    0  0.25958023326E+02 -0.17852499265E+03 -0.33796241223E+03  0.39147013720E+03  0.80531262673E+02 0.  0.
         23    2    1    2    0    0  0.31072975981E+01  0.68289521498E+01  0.13681528082E+02  0.91208510589E+02  0.89863887672E+02 0.  0.
        -13    1    3    3    0    0  0.42156024705E+02 -0.17179063159E+03 -0.32363427511E+03  0.36882013983E+03  0.00000000000E+00 0.  1.
         14    1    3    3    0    0 -0.16198001379E+02 -0.67343610557E+01 -0.14328137118E+02  0.22649997368E+02  0.00000000000E+00 0. -1.
        -11    1    4    4    0    0 -0.37976491802E+00 -0.38201185063E+02 -0.10979355291E+02  0.39749478037E+02  0.00000000000E+00 0.  1.
         11    1    4    4    0    0  0.34870625161E+01  0.45030137213E+02  0.24660883374E+02  0.51459032552E+02  0.00000000000E+00 0. -1.
         21    1    1    2  503  502  0.58861871067E+02  0.41754863516E+02  0.54303859711E+02  0.90316652242E+02  0.00000000000E+00 0.  1.
         -2    1    1    2    0  503 -0.87927191991E+02  0.12994117698E+03  0.27446005224E+02  0.15927706605E+03  0.00000000000E+00 0.  1.
<scales pt_clust_5="13000.00000" pt_clust_6="13000.00000" pt_clust_7="13000.00000" pt_clust_8="13000.00000" pt_clust_9="72.16778" pt_clust_10="13000.00000"></scales>
<clustering>
<clus scale="   72.168">  1  9  2 -1</clus>
<clus scale="   80.531">  5  6 -1 -1</clus>
<clus scale="   89.864">  7  8 -1 -1</clus>
<clus scale="  162.515">  7 10 -1 -1</clus>
<clus scale="  193.178">  2  5  1 -1</clus>
<clus scale="   72.168">  1  5  2 -1</clus>
</clustering>
</event>
<event>
10    4  0.2565852E-005  0.2055673E+03  0.7546771E-02  0.1175515E+00
          2   -1    0    0  502    0 -0.00000000000E+00  0.00000000000E+00  0.65689901568E+03  0.65689901568E+03  0.00000000000E+00 0. -1.
         21   -1    0    0  503  502  0.00000000000E+00 -0.00000000000E+00 -0.25133425274E+03  0.25133425274E+03  0.00000000000E+00 0. -1.
         24    2    1    2    0    0  0.44661362726E+02 -0.80437887862E+01  0.91149811869E+02  0.12823340621E+03  0.77949845454E+02 0.  0.
         23    2    1    2    0    0  0.24505395138E+02  0.57010292435E+02  0.25292029711E+03  0.27593734359E+03  0.91225287415E+02 0.  0.
        -11    1    3    3    0    0  0.18691985067E+02  0.10055532282E+02  0.94079287528E+02  0.96443850903E+02  0.00000000000E+00 0.  1.
         12    1    3    3    0    0  0.25969377659E+02 -0.18099321068E+02 -0.29294756590E+01  0.31789555309E+02  0.00000000000E+00 0. -1.
        -11    1    4    4    0    0  0.21761264402E+02 -0.19514722312E+02  0.39091922542E+02  0.48811427180E+02  0.00000000000E+00 0.  1.
         11    1    4    4    0    0  0.27441307363E+01  0.76525014747E+02  0.21382837457E+03  0.22712591641E+03  0.00000000000E+00 0. -1.
         21    1    1    2  503  501  0.33203171988E+02 -0.33881809731E+02 -0.20907090471E+03  0.21438533265E+03  0.00000000000E+00 0. -1.
          1    1    1    2  501    0 -0.10236992985E+03 -0.15084693917E+02  0.27056555867E+03  0.28967718596E+03  0.00000000000E+00 0. -1.
<scales pt_clust_5="13000.00000" pt_clust_6="13000.00000" pt_clust_7="13000.00000" pt_clust_8="13000.00000" pt_clust_9="47.43867" pt_clust_10="13000.00000"></scales>
<clustering>
<clus scale="   47.439">  2  9  1 -1</clus>
<clus scale="   77.950">  5  6 -1 -1</clus>
<clus scale="   91.225">  7  8 -1 -1</clus>
<clus scale="   97.183">  7 10 -1 -1</clus>
<clus scale="  101.353">  1  5  2 -1</clus>
<clus scale="   47.439">  2  5  1 -1</clus>
</clustering>
</event>
<event>
10    4  0.2565852E-005  0.2695261E+03  0.7546771E-02  0.1117936E+00
          2   -1    0    0  502    0 -0.00000000000E+00  0.00000000000E+00  0.12288901157E+04  0.12288901157E+04  0.00000000000E+00 0. -1.
         21   -1    0    0  503  502  0.00000000000E+00 -0.00000000000E+00 -0.79039275062E+02  0.79039275062E+02  0.00000000000E+00 0. -1.
         24    2    1    2    0    0 -0.12577737491E+03 -0.91830342223E+02  0.76812124662E+03  0.78795581529E+03  0.81310254786E+02 0.  0.
         23    2    1    2    0    0  0.84049632259E+00  0.27009791761E+02  0.76195235930E+02  0.13124410593E+03  0.10338793971E+03 0.  0.
        -11    1    3    3    0    0 -0.86815394659E+01 -0.46457937541E+02  0.15245608183E+03  0.15961380258E+03  0.00000000000E+00 0.  1.
         12    1    3    3    0    0 -0.11709583544E+03 -0.45372404682E+02  0.61566516480E+03  0.62834201270E+03  0.00000000000E+00 0. -1.
        -13    1    4    4    0    0 -0.37571372512E+01  0.62328961984E+02  0.72118474817E+02  0.95394391828E+02  0.00000000000E+00 0. -1.
         13    1    4    4    0    0  0.45976335737E+01 -0.35319170223E+02  0.40767611127E+01  0.35849714098E+02  0.00000000000E+00 0.  1.
         21    1    1    2  503  501  0.18467174986E+02 -0.42812635502E+02 -0.12281019266E+01  0.46641896883E+02  0.00000000000E+00 0. -1.
          1    1    1    2  501    0  0.10646970360E+03  0.10763318596E+03  0.30676246006E+03  0.34208757271E+03  0.00000000000E+00 0. -1.
<scales pt_clust_5="13000.00000" pt_clust_6="13000.00000" pt_clust_7="13000.00000" pt_clust_8="13000.00000" pt_clust_9="46.62573" pt_clust_10="13000.00000"></scales>
<clustering>
<clus scale="   46.626">  2  9  1 -1</clus>
<clus scale="   81.310">  5  6 -1 -1</clus>
<clus scale="  103.388">  7  8 -1 -1</clus>
<clus scale="  146.460">  7 10 -1 -1</clus>
<clus scale="  177.521">  1  5  2 -1</clus>
<clus scale="   46.626">  2  5  1 -1</clus>
</clustering>
</event>
<event>
10    4  0.2565852E-005  0.3106644E+03  0.7546771E-02  0.1113804E+00
         21   -1    0    0  503  502  0.00000000000E+00  0.00000000000E+00  0.20340478219E+03  0.20340478219E+03  0.00000000000E+00 0. -1.
          2   -1    0    0  502    0 -0.00000000000E+00 -0.00000000000E+00 -0.28458641217E+03  0.28458641217E+03  0.00000000000E+00 0. -1.
         24    2    1    2    0    0  0.13168006603E+01  0.10570196355E+03 -0.52717210917E+02  0.14282358917E+03  0.80279724935E+02 0.  0.
         23    2    1    2    0    0  0.30529359047E+02  0.11878472490E+02  0.90538301437E+02  0.13176406678E+03  0.89952461866E+02 0.  0.
        -13    1    3    3    0    0 -0.11700315828E+01  0.54572458005E+02  0.16233740116E+02  0.56947839861E+02  0.00000000000E+00 0.  1.
         14    1    3    3    0    0  0.24868322431E+01  0.51129505542E+02 -0.68950951033E+02  0.85875749312E+02  0.00000000000E+00 0. -1.
        -13    1    4    4    0    0 -0.25921565674E+02  0.19360008576E+02  0.11473958796E+02  0.34327674397E+02  0.00000000000E+00 0.  1.
         13    1    4    4    0    0  0.56450924721E+02 -0.74815360857E+01  0.79064342641E+02  0.97436392386E+02  0.00000000000E+00 0. -1.
         21    1    1    2  503  501  0.65907957229E+01 -0.20064806129E+02  0.26620054660E+02  0.33980322885E+02  0.00000000000E+00 0.  1.
          1    1    1    2  501    0 -0.38436955430E+02 -0.97515629909E+02 -0.14562277516E+03  0.17942321551E+03  0.00000000000E+00 0. -1.
<scales pt_clust_5="13000.00000" pt_clust_6="13000.00000" pt_clust_7="13000.00000" pt_clust_8="13000.00000" pt_clust_9="21.11954" pt_clust_10="13000.00000"></scales>
<clustering>
<clus scale="   21.120">  1  9  2 -1</clus>
<clus scale="   80.280">  5  6 -1 -1</clus>
<clus scale="   89.952">  7  8 -1 -1</clus>
<clus scale="  106.412">  7 10 -1 -1</clus>
<clus scale="  128.648">  2  5  1 -1</clus>
<clus scale="   21.120">  1  5  2 -1</clus>
</clustering>
</event>
<event>
10    4  0.2565852E-005  0.2247801E+03  0.7546771E-02  0.1165411E+00
         21   -1    0    0  503  502  0.00000000000E+00  0.00000000000E+00  0.75274745376E+02  0.75274745376E+02  0.00000000000E+00 0.  1.
          2   -1    0    0  502    0 -0.00000000000E+00 -0.00000000000E+00 -0.79555861983E+03  0.79555861983E+03  0.00000000000E+00 0. -1.
         24    2    1    2    0    0 -0.17183941374E+02  0.44546940151E+02 -0.30241184576E+03  0.31710073586E+03  0.82584711113E+02 0.  0.
         23    2    1    2    0    0 -0.22456977695E+02 -0.19744882356E+02 -0.67936148527E+02  0.11611587353E+03  0.89293894434E+02 0.  0.
        -13    1    3    3    0    0 -0.42595194164E+02  0.20278068634E+02 -0.24715957585E+03  0.25162155426E+03  0.00000000000E+00 0.  1.
         14    1    3    3    0    0  0.25411252790E+02  0.24268871517E+02 -0.55252269911E+02  0.65479181603E+02  0.00000000000E+00 0. -1.
        -11    1    4    4    0    0 -0.40530963914E+02 -0.45885676310E+02 -0.53101833614E+02  0.81043562727E+02  0.00000000000E+00 0.  1.
         11    1    4    4    0    0  0.18073986219E+02  0.26140793954E+02 -0.14834314913E+02  0.35072310807E+02  0.00000000000E+00 0. -1.
         21    1    1    2  503  501 -0.18570397232E+02  0.14640095042E+02  0.37236754964E+02  0.44110859847E+02  0.00000000000E+00 0. -1.
          1    1    1    2  501    0  0.58211316301E+02 -0.39442152836E+02 -0.38717263513E+03  0.39350589597E+03  0.00000000000E+00 0. -1.
<scales pt_clust_5="13000.00000" pt_clust_6="13000.00000" pt_clust_7="13000.00000" pt_clust_8="13000.00000" pt_clust_9="23.64724" pt_clust_10="13000.00000"></scales>
<clustering>
<clus scale="   23.647">  1  9  2 -1</clus>
<clus scale="   82.585">  5  6 -1 -1</clus>
<clus scale="   89.294">  7  8 -1 -1</clus>
<clus scale="   68.157">  7 10 -1 -1</clus>
<clus scale="   97.660">  2  5  1 -1</clus>
<clus scale="   23.647">  1  5  2 -1</clus>
</clustering>
</event>
<event>
10    4  0.2565852E-005  0.5599972E+03  0.7546771E-02  0.1050649E+00
          2   -1    0    0  503    0 -0.00000000000E+00  0.00000000000E+00  0.18062720067E+03  0.18062720067E+03  0.00000000000E+00 0. -1.
         21   -1    0    0  501  502  0.00000000000E+00 -0.00000000000E+00 -0.79008932734E+03  0.79008932734E+03  0.00000000000E+00 0. -1.
         24    2    1    2    0    0  0.88779295838E+02  0.48349867443E+02 -0.14373906643E+03  0.19159350834E+03  0.76339243948E+02 0.  0.
         23    2    1    2    0    0  0.82495163921E+02  0.84698877675E+01  0.10823946450E+03  0.16262390238E+03  0.88620318665E+02 0.  0.
        -13    1    3    3    0    0  0.26227805196E+02 -0.20257622461E+02 -0.47022136324E+02  0.57526953141E+02  0.00000000000E+00 0.  1.
         14    1    3    3    0    0  0.62551490642E+02  0.68607489904E+02 -0.96716930107E+02  0.13406655519E+03  0.00000000000E+00 0. -1.
        -11    1    4    4    0    0  0.41804232777E+02  0.43208969499E+02  0.28342430525E+02  0.66467302422E+02  0.00000000000E+00 0.  1.
         11    1    4    4    0    0  0.40690931143E+02 -0.34739081731E+02  0.79897033979E+02  0.96156599958E+02  0.00000000000E+00 0. -1.
         21    1    1    2  503  502 -0.13704720713E+02 -0.56843704450E+02 -0.88218240249E+02  0.10583706354E+03  0.00000000000E+00 0. -1.
          1    1    1    2  501    0 -0.15756973905E+03  0.23949239625E-01 -0.48574428449E+03  0.51066205376E+03  0.00000000000E+00 0. -1.
<scales pt_clust_5="13000.00000" pt_clust_6="13000.00000" pt_clust_7="13000.00000" pt_clust_8="13000.00000" pt_clust_9="58.47244" pt_clust_10="13000.00000"></scales>
<clustering>
<clus scale="   58.472">  2  9  1 -1</clus>
<clus scale="   76.339">  5  6 -1 -1</clus>
<clus scale="   88.620">  7  8 -1 -1</clus>
<clus scale="  119.703">  1  5  2 -1</clus>
<clus scale="  159.864">  7 10 -1 -1</clus>
<clus scale="   58.472">  2  5  1 -1</clus>
</clustering>
</event>
<event>
10    4  0.2565852E-005  0.1985563E+03  0.7546771E-02  0.1162078E+00
         21   -1    0    0  503  502  0.00000000000E+00  0.00000000000E+00  0.15930185542E+03  0.15930185542E+03  0.00000000000E+00 0.  1.
          2   -1    0    0  502    0 -0.00000000000E+00 -0.00000000000E+00 -0.99032107947E+03  0.99032107947E+03  0.00000000000E+00 0. -1.
         24    2    1    2    0    0 -0.81944708987E+02  0.67577715161E+02 -0.37454708719E+03  0.39738283060E+03  0.79661224081E+02 0.  0.
         23    2    1    2    0    0  0.99781499354E+02 -0.24816321093E+02 -0.29108262723E+03  0.32194921697E+03  0.91378361936E+02 0.  0.
        -13    1    3    3    0    0 -0.83535265072E+02  0.22825963243E+02 -0.27286831443E+03  0.28628007638E+03  0.00000000000E+00 0.  1.
         14    1    3    3    0    0  0.15905560855E+01  0.44751751918E+02 -0.10167877275E+03  0.11110275423E+03  0.00000000000E+00 0. -1.
        -13    1    4    4    0    0  0.33126688451E+02 -0.21808421392E+02 -0.22345380833E+03  0.22694622532E+03  0.00000000000E+00 0.  1.
         13    1    4    4    0    0  0.66654810903E+02 -0.30078997010E+01 -0.67628818901E+02  0.95002991653E+02  0.00000000000E+00 0. -1.
         21    1    1    2  503  501 -0.63213751810E+02  0.39506000389E+02  0.11361841428E+03  0.13588909650E+03  0.00000000000E+00 0.  1.
          1    1    1    2  501    0  0.45376961443E+02 -0.82267394457E+02 -0.27900792392E+03  0.29440179081E+03  0.00000000000E+00 0. -1.
<scales pt_clust_5="13000.00000" pt_clust_6="13000.00000" pt_clust_7="13000.00000" pt_clust_8="13000.00000" pt_clust_9="74.54329" pt_clust_10="13000.00000"></scales>
<clustering>
<clus scale="   74.543">  1  9  2 -1</clus>
<clus scale="   79.661">  5  6 -1 -1</clus>
<clus scale="   91.378">  7  8 -1 -1</clus>
<clus scale="   79.853">  7 10 -1 -1</clus>
<clus scale="  153.046">  2  5  1 -1</clus>
<clus scale="   74.543">  1  5  2 -1</clus>
</clustering>
</event>
<event>
10    4  0.2565852E-005  0.2212865E+03  0.7546771E-02  0.1145074E+00
          2   -1    0    0  503    0 -0.00000000000E+00  0.00000000000E+00  0.18134232485E+04  0.18134232485E+04  0.00000000000E+00 0. -1.
         21   -1    0    0  501  502  0.00000000000E+00 -0.00000000000E+00 -0.17555804966E+03  0.17555804966E+03  0.00000000000E+00 0. -1.
         24    2    1    2    0    0  0.12479794273E+03 -0.69003729977E+02  0.15865111835E+04  0.15949040897E+04  0.79782697215E+02 0.  0.
         23    2    1    2    0    0 -0.59411479251E+02  0.38857777165E+02  0.56435916424E+02  0.12861576770E+03  0.91199519325E+02 0.  0.
        -11    1    3    3    0    0  0.47127537113E+02 -0.16777438068E+02  0.24076556492E+03  0.24590759328E+03  0.00000000000E+00 0.  1.
         12    1    3    3    0    0  0.77670405618E+02 -0.52226291909E+02  0.13457456186E+04  0.13489964964E+04  0.00000000000E+00 0. -1.
        -11    1    4    4    0    0 -0.95585271884E+01 -0.24985736016E+02  0.36399188657E+02  0.45172484780E+02  0.00000000000E+00 0.  1.
         11    1    4    4    0    0 -0.49852952062E+02  0.63843513181E+02  0.20036727767E+02  0.83443282919E+02  0.00000000000E+00 0. -1.
         21    1    1    2  503  502  0.79071894330E+02  0.60284710723E+02 -0.49881853889E+02  0.11124212407E+03  0.00000000000E+00 0. -1.
          1    1    1    2  501    0 -0.14445835781E+03 -0.30138757910E+02  0.44799952840E+02  0.15421931670E+03  0.00000000000E+00 0. -1.
<scales pt_clust_5="13000.00000" pt_clust_6="13000.00000" pt_clust_7="13000.00000" pt_clust_8="13000.00000" pt_clust_9="99.43144" pt_clust_10="13000.00000"></scales>
<clustering>
<clus scale="   79.783">  5  6 -1 -1</clus>
<clus scale="   91.200">  7  8 -1 -1</clus>
<clus scale="   99.431">  2  9  1 -1</clus>
<clus scale="   99.026">  7 10 -1 -1</clus>
<clus scale="  165.000">  1  5  2 -1</clus>
<clus scale="   99.431">  2  5  1 -1</clus>
</clustering>
</event>
<event>
10    4  0.2565852E-005  0.5303846E+03  0.7546771E-02  0.1044712E+00
         21   -1    0    0  503  502  0.00000000000E+00  0.00000000000E+00  0.95513859208E+03  0.95513859208E+03  0.00000000000E+00 0. -1.
          2   -1    0    0  502    0 -0.00000000000E+00 -0.00000000000E+00 -0.17334058753E+03  0.17334058753E+03  0.00000000000E+00 0. -1.
         24    2    1    2    0    0  0.77660220121E+02 -0.13267320874E+03  0.85699093903E+02  0.19435296504E+03  0.82434520796E+02 0.  0.
         23    2    1    2    0    0  0.99755667696E+02 -0.13071530789E+03  0.40439756397E+02  0.19215328766E+03  0.90828558864E+02 0.  0.
        -11    1    3    3    0    0 -0.25159530125E+01 -0.60941952239E+02  0.77137595789E+01  0.61479701114E+02  0.00000000000E+00 0.  1.
         12    1    3    3    0    0  0.80176173134E+02 -0.71731256500E+02  0.77985334325E+02  0.13287326393E+03  0.00000000000E+00 0. -1.
        -11    1    4    4    0    0 -0.64416403653E+01 -0.30034124624E+02 -0.16810102411E+02  0.35016037976E+02  0.00000000000E+00 0.  1.
         11    1    4    4    0    0  0.10619730806E+03 -0.10068118327E+03  0.57249858808E+02  0.15713724968E+03  0.00000000000E+00 0. -1.
         21    1    1    2  503  501 -0.39473327307E+01  0.48886354170E+02  0.22684603034E+03  0.23208743727E+03  0.00000000000E+00 0.  1.
          1    1    1    2  501    0 -0.17346855509E+03  0.21450216246E+03  0.42881312392E+03  0.50988548964E+03  0.00000000000E+00 0. -1.
<scales pt_clust_5="13000.00000" pt_clust_6="13000.00000" pt_clust_7="13000.00000" pt_clust_8="13000.00000" pt_clust_9="49.04546" pt_clust_10="13000.00000"></scales>
<clustering>
<clus scale="   49.045">  1  9  2 -1</clus>
<clus scale="   82.435">  5  6 -1 -1</clus>
<clus scale="   90.829">  7  8 -1 -1</clus>
<clus scale="  167.024">  2  5  1 -1</clus>
<clus scale="  243.245">  7 10 -1 -1</clus>
<clus scale="   49.045">  1  5  2 -1</clus>
</clustering>
</event>
<event>
10    4  0.2565852E-005  0.1169360E+03  0.7546771E-02  0.1266487E+00
         21   -1    0    0  503  502  0.00000000000E+00  0.00000000000E+00  0.63608389222E+02  0.63608389222E+02  0.00000000000E+00 0. -1.
         -1   -1    0    0    0  501 -0.00000000000E+00 -0.00000000000E+00 -0.62624037721E+03  0.62624037721E+03  0.00000000000E+00 0.  1.
         24    2    1    2    0    0 -0.11503046903E+02  0.64807074522E+01 -0.48148279652E+03  0.48835494475E+03  0.80563943951E+02 0.  0.
         23    2    1    2    0    0  0.95641066380E+01  0.18321845491E+02 -0.73366025201E+02  0.11771144021E+03  0.89700877055E+02 0.  0.
        -11    1    3    3    0    0 -0.45318040689E+02  0.12246969897E+02 -0.25423208169E+03  0.25852981345E+03  0.00000000000E+00 0.  1.
         12    1    3    3    0    0  0.33814993786E+02 -0.57662624447E+01 -0.22725071483E+03  0.22982513130E+03  0.00000000000E+00 0. -1.
        -11    1    4    4    0    0  0.21039220745E+02 -0.30870094829E+02 -0.14323194811E+02  0.40009567280E+02  0.00000000000E+00 0. -1.
         11    1    4    4    0    0 -0.11475114107E+02  0.49191940320E+02 -0.59042830390E+02  0.77701872929E+02  0.00000000000E+00 0.  1.
         21    1    1    2  503  501 -0.12418379130E+02 -0.51568768824E+02 -0.45843596569E+01  0.53240683802E+02  0.00000000000E+00 0. -1.
         -2    1    1    2    0  502  0.14357319395E+02  0.26766215881E+02 -0.31988066146E+01  0.30541697670E+02  0.00000000000E+00 0.  1.
<scales pt_clust_5="13000.00000" pt_clust_6="13000.00000" pt_clust_7="13000.00000" pt_clust_8="13000.00000" pt_clust_9="53.04295" pt_clust_10="13000.00000"></scales>
<clustering>
<clus scale="   53.043">  1  9  2 -1</clus>
<clus scale="   80.564">  5  6 -1 -1</clus>
<clus scale="   81.565">  2  5  1 -1</clus>
<clus scale="   89.701">  7  8 -1 -1</clus>
<clus scale="   12.301">  7 10 -1 -1</clus>
<clus scale="   53.043">  1  5  2 -1</clus>
</clustering>
</event>
<event>
10    4  0.2565852E-005  0.1609885E+03  0.7546771E-02  0.1203770E+00
          2   -1    0    0  502    0 -0.00000000000E+00  0.00000000000E+00  0.10875733097E+04  0.10875733097E+04  0.00000000000E+00 0. -1.
         21   -1    0    0  503  502  0.00000000000E+00 -0.00000000000E+00 -0.44278715568E+02  0.44278715568E+02  0.00000000000E+00 0.  1.
         24    2    1    2    0    0  0.70206321240E+02 -0.26262771370E+02  0.73717403188E+03  0.74528398407E+03  0.80025014407E+02 0.  0.
         23    2    1    2    0    0 -0.70622139067E+02 -0.15429699111E+02  0.13650904933E+03  0.17925290698E+03  0.90946808480E+02 0.  0.
        -11    1    3    3    0    0  0.15997175504E+02 -0.45200657004E+02  0.23529372570E+03  0.24012943670E+03  0.00000000000E+00 0.  1.
         12    1    3    3    0    0  0.54209145737E+02  0.18937885634E+02  0.50188030618E+03  0.50515454737E+03  0.00000000000E+00 0. -1.
        -13    1    4    4    0    0 -0.15822464223E+02 -0.23837957056E+02  0.11705011978E+03  0.12049617883E+03  0.00000000000E+00 0. -1.
         13    1    4    4    0    0 -0.54799674844E+02  0.84082579446E+01  0.19458929543E+02  0.58756728156E+02  0.00000000000E+00 0.  1.
         21    1    1    2  503  501  0.40863115292E+02  0.11407633809E+02  0.15560645137E+02  0.45189179873E+02  0.00000000000E+00 0.  1.
          1    1    1    2  501    0 -0.40447297466E+02  0.30284836671E+02  0.15405086775E+03  0.16212595431E+03  0.00000000000E+00 0. -1.
<scales pt_clust_5="13000.00000" pt_clust_6="13000.00000" pt_clust_7="13000.00000" pt_clust_8="13000.00000" pt_clust_9="42.42556" pt_clust_10="13000.00000"></scales>
<clustering>
<clus scale="   42.426">  2  9  1 -1</clus>
<clus scale="   80.025">  5  6 -1 -1</clus>
<clus scale="   90.947">  7  8 -1 -1</clus>
<clus scale="   47.209">  7 10 -1 -1</clus>
<clus scale="  112.978">  1  5  2 -1</clus>
<clus scale="   42.426">  2  5  1 -1</clus>
</clustering>
</event>
<event>
10    4  0.2565852E-005  0.1517719E+03  0.7546771E-02  0.1220756E+00
          2   -1    0    0  503    0 -0.00000000000E+00  0.00000000000E+00  0.43234612545E+03  0.43234612545E+03  0.00000000000E+00 0. -1.
         21   -1    0    0  501  502  0.00000000000E+00 -0.00000000000E+00 -0.58200729356E+02  0.58200729356E+02  0.00000000000E+00 0. -1.
         24    2    1    2    0    0  0.18100740673E+02  0.42055207932E+02  0.17356389370E+03  0.19590167162E+03  0.78465039465E+02 0.  0.
         23    2    1    2    0    0 -0.59562208018E+02 -0.15190126259E+02  0.15280067066E+03  0.18677236607E+03  0.88076530424E+02 0.  0.
        -11    1    3    3    0    0  0.39621638049E+02  0.16473226014E+02  0.41583073289E+02  0.59752768649E+02  0.00000000000E+00 0.  1.
         12    1    3    3    0    0 -0.21520897376E+02  0.25581981917E+02  0.13198082041E+03  0.13614890297E+03  0.00000000000E+00 0. -1.
        -11    1    4    4    0    0 -0.35087376209E+02 -0.16086541923E+02  0.15721708625E+03  0.16188611123E+03  0.00000000000E+00 0.  1.
         11    1    4    4    0    0 -0.24474831809E+02  0.89641566431E+00 -0.44164155876E+01  0.24886254836E+02  0.00000000000E+00 0. -1.
         21    1    1    2  503  502  0.14430043957E+02  0.14534789417E+02 -0.16833608594E+02  0.26511443761E+02  0.00000000000E+00 0. -1.
          1    1    1    2  501    0  0.27031423388E+02 -0.41399871090E+02  0.64614440320E+02  0.81361373357E+02  0.00000000000E+00 0. -1.
<scales pt_clust_5="13000.00000" pt_clust_6="13000.00000" pt_clust_7="13000.00000" pt_clust_8="13000.00000" pt_clust_9="20.48136" pt_clust_10="13000.00000"></scales>
<clustering>
<clus scale="   20.481">  2  9  1 -1</clus>
<clus scale="   78.465">  5  6 -1 -1</clus>
<clus scale="   88.077">  7  8 -1 -1</clus>
<clus scale="   48.679">  7 10 -1 -1</clus>
<clus scale="   93.946">  1  5  2 -1</clus>
<clus scale="   20.481">  2  5  1 -1</clus>
</clustering>
</event>
<event>
10    4  0.2565852E-005  0.3677592E+03  0.7546771E-02  0.1097662E+00
         21   -1    0    0  503  502  0.00000000000E+00  0.00000000000E+00  0.79268058969E+02  0.79268058969E+02  0.00000000000E+00 0. -1.
          2   -1    0    0  502    0 -0.00000000000E+00 -0.00000000000E+00 -0.85433945381E+03  0.85433945381E+03  0.00000000000E+00 0. -1.
         24    2    1    2    0    0 -0.23659246572E+02 -0.96267651793E+02 -0.11626136998E+03  0.16829125128E+03  0.70555073364E+02 0.  0.
         23    2    1    2    0    0  0.90713822858E+02  0.24270425681E+02 -0.49963769751E+02  0.14078817256E+03  0.92232749193E+02 0.  0.
        -11    1    3    3    0    0 -0.52607193044E+01 -0.22496733658E+02  0.64033819891E+01  0.23974601014E+02  0.00000000000E+00 0.  1.
         12    1    3    3    0    0 -0.18398527268E+02 -0.73770918136E+02 -0.12266475197E+03  0.14431665027E+03  0.00000000000E+00 0. -1.
        -11    1    4    4    0    0  0.31924830851E+02  0.20257329316E+02 -0.69154940930E+02  0.78815988676E+02  0.00000000000E+00 0.  1.
         11    1    4    4    0    0  0.58788992007E+02  0.40130963647E+01  0.19191171179E+02  0.61972183880E+02  0.00000000000E+00 0. -1.
         21    1    1    2  503  501  0.20658986043E+02  0.11607902054E+02 -0.46527335867E+02  0.52214270820E+02  0.00000000000E+00 0.  1.
          1    1    1    2  501    0 -0.87713562328E+02  0.60389324058E+02 -0.56231891924E+03  0.57231381812E+03  0.00000000000E+00 0. -1.
<scales pt_clust_5="13000.00000" pt_clust_6="13000.00000" pt_clust_7="13000.00000" pt_clust_8="13000.00000" pt_clust_9="23.69679" pt_clust_10="13000.00000"></scales>
<clustering>
<clus scale="   23.697">  1  9  2 -1</clus>
<clus scale="   70.555">  5  6 -1 -1</clus>
<clus scale="   92.233">  7  8 -1 -1</clus>
<clus scale="  105.819">  7 10 -1 -1</clus>
<clus scale="  117.375">  2  5  1 -1</clus>
<clus scale="   23.697">  1  5  2 -1</clus>
</clustering>
</event>
<event>
10    4  0.2565852E-005  0.1823137E+03  0.7546771E-02  0.1198555E+00
          2   -1    0    0  502    0 -0.00000000000E+00  0.00000000000E+00  0.12004776049E+03  0.12004776049E+03  0.00000000000E+00 0. -1.
         21   -1    0    0  503  502  0.00000000000E+00 -0.00000000000E+00 -0.40392092647E+03  0.40392092647E+03  0.00000000000E+00 0. -1.
         24    2    1    2    0    0  0.87762894615E+01 -0.49691925910E+02 -0.64347335828E+02  0.11519530849E+03  0.81136112263E+02 0.  0.
         23    2    1    2    0    0  0.32745235943E+02 -0.47848389535E+01 -0.60537132821E+02  0.11330301289E+03  0.89875931815E+02 0.  0.
        -11    1    3    3    0    0 -0.85206586167E+01 -0.21680630004E+02  0.16070040318E+02  0.28300133153E+02  0.00000000000E+00 0.  1.
         12    1    3    3    0    0  0.17296948078E+02 -0.28011295906E+02 -0.80417376146E+02  0.86895175340E+02  0.00000000000E+00 0. -1.
        -13    1    4    4    0    0  0.55838704507E+02 -0.14632424194E+02 -0.12442105132E+02  0.59049764936E+02  0.00000000000E+00 0. -1.
         13    1    4    4    0    0 -0.23093468565E+02  0.98475852403E+01 -0.48095027689E+02  0.54253247956E+02  0.00000000000E+00 0.  1.
         21    1    1    2  503  501 -0.28003768581E+02  0.36733025852E+02 -0.22297419145E+03  0.22770818232E+03  0.00000000000E+00 0. -1.
          1    1    1    2  501    0 -0.13517756823E+02  0.17743739012E+02  0.63985494112E+02  0.67762183262E+02  0.00000000000E+00 0. -1.
<scales pt_clust_5="13000.00000" pt_clust_6="13000.00000" pt_clust_7="13000.00000" pt_clust_8="13000.00000" pt_clust_9="46.19011" pt_clust_10="13000.00000"></scales>
<clustering>
<clus scale="   46.190">  2  9  1 -1</clus>
<clus scale="   81.136">  5  6 -1 -1</clus>
<clus scale="   87.099">  1  5  2 -1</clus>
<clus scale="   89.876">  7  8 -1 -1</clus>
<clus scale="   18.107">  7 10 -1 -1</clus>
<clus scale="   46.190">  2  5  1 -1</clus>
</clustering>
</event>
<event>
10    4  0.2565852E-005  0.4777025E+03  0.7546771E-02  0.1069171E+00
         21   -1    0    0  503  502  0.00000000000E+00  0.00000000000E+00  0.30771639301E+03  0.30771639301E+03  0.00000000000E+00 0. -1.
          2   -1    0    0  502    0 -0.00000000000E+00 -0.00000000000E+00 -0.70369468128E+03  0.70369468128E+03  0.00000000000E+00 0. -1.
         24    2    1    2    0    0 -0.36297398378E+02 -0.41413167738E+02  0.12213473197E+03  0.15664132108E+03  0.81160699378E+02 0.  0.
         23    2    1    2    0    0  0.76971678251E+02  0.23132504009E+03 -0.26565570438E+03  0.36905678918E+03  0.78702267714E+02 0.  0.
        -11    1    3    3    0    0  0.60791203948E+01 -0.48016885655E+02  0.35669727121E+02  0.60124092057E+02  0.00000000000E+00 0.  1.
         12    1    3    3    0    0 -0.42376518773E+02  0.66037179173E+01  0.86465004852E+02  0.96517229020E+02  0.00000000000E+00 0. -1.
        -13    1    4    4    0    0  0.29800450360E+02  0.22963963707E+02 -0.69494145251E+02  0.79024342420E+02  0.00000000000E+00 0.  1.
         13    1    4    4    0    0  0.47171227891E+02  0.20836107639E+03 -0.19616155913E+03  0.29003244676E+03  0.00000000000E+00 0. -1.
         21    1    1    2  503  501 -0.67811706956E+02  0.30908370198E+02  0.64436628931E+02  0.98518191704E+02  0.00000000000E+00 0. -1.
          1    1    1    2  501    0  0.27137427083E+02 -0.22082024255E+03 -0.31689394479E+03  0.38719477232E+03  0.00000000000E+00 0. -1.
<scales pt_clust_5="13000.00000" pt_clust_6="13000.00000" pt_clust_7="13000.00000" pt_clust_8="13000.00000" pt_clust_9="74.52352" pt_clust_10="13000.00000"></scales>
<clustering>
<clus scale="   74.524">  1  9  2 -1</clus>
<clus scale="   78.702">  7  8 -1 -1</clus>
<clus scale="   81.161">  5  6 -1 -1</clus>
<clus scale="  114.819">  2  5  1 -1</clus>
<clus scale="  228.538">  7 10 -1 -1</clus>
<clus scale="   74.524">  1  5  2 -1</clus>
</clustering>
</event>
<event>
10    4  0.2565852E-005  0.2997843E+03  0.7546771E-02  0.1099974E+00
          2   -1    0    0  503    0 -0.00000000000E+00  0.00000000000E+00  0.54919194522E+03  0.54919194522E+03  0.00000000000E+00 0. -1.
         21   -1    0    0  501  502  0.00000000000E+00 -0.00000000000E+00 -0.37873085493E+03  0.37873085493E+03  0.00000000000E+00 0.  1.
         24    2    1    2    0    0  0.84027158482E+02 -0.18550089774E+03  0.14542065487E+03  0.26284253561E+03  0.80423163553E+02 0.  0.
         23    2    1    2    0    0  0.65233850630E+01  0.58652065840E+01  0.20860243521E+02  0.93749909402E+02  0.90977692608E+02 0.  0.
        -13    1    3    3    0    0  0.64102095963E+01 -0.93400059388E+02  0.91399621647E+02  0.13083788717E+03  0.00000000000E+00 0.  1.
         14    1    3    3    0    0  0.77616948885E+02 -0.92100838355E+02  0.54021033227E+02  0.13200464844E+03  0.00000000000E+00 0. -1.
        -13    1    4    4    0    0  0.32558166839E+02  0.36128564947E+02  0.22943544259E+02  0.53774656263E+02  0.00000000000E+00 0.  1.
         13    1    4    4    0    0 -0.26034781776E+02 -0.30263358363E+02 -0.20833007386E+01  0.39975253139E+02  0.00000000000E+00 0. -1.
         21    1    1    2  503  502 -0.26232132178E+02  0.24491638339E+02 -0.25771968347E+03  0.26020645717E+03  0.00000000000E+00 0.  1.
          1    1    1    2  501    0 -0.64318411367E+02  0.15514405282E+03  0.26189987536E+03  0.31112389796E+03  0.00000000000E+00 0. -1.
<scales pt_clust_5="13000.00000" pt_clust_6="13000.00000" pt_clust_7="13000.00000" pt_clust_8="13000.00000" pt_clust_9="35.88823" pt_clust_10="13000.00000"></scales>
<clustering>
<clus scale="   35.888">  2  9  1 -1</clus>
<clus scale="   80.423">  5  6 -1 -1</clus>
<clus scale="   90.978">  7  8 -1 -1</clus>
<clus scale="  174.688">  7 10 -1 -1</clus>
<clus scale="  204.042">  1  5  2 -1</clus>
<clus scale="   35.888">  2  5  1 -1</clus>
</clustering>
</event>
<event>
10    4  0.2565852E-005  0.1702631E+03  0.7546771E-02  0.1204995E+00
         21   -1    0    0  501  502  0.00000000000E+00  0.00000000000E+00  0.12409627641E+03  0.12409627641E+03  0.00000000000E+00 0. -1.
          2   -1    0    0  503    0 -0.00000000000E+00 -0.00000000000E+00 -0.19725830025E+03  0.19725830025E+03  0.00000000000E+00 0. -1.
         24    2    1    2    0    0  0.29968980340E+02 -0.32106658765E+02  0.20689121936E+02  0.92851418252E+02  0.79147765510E+02 0.  0.
         23    2    1    2    0    0 -0.35104718072E+02  0.50788763689E+01 -0.12200443887E+03  0.15369068225E+03  0.86473154739E+02 0.  0.
        -13    1    3    3    0    0  0.16795532315E+02 -0.13812682641E+02 -0.30187259705E+02  0.37204176594E+02  0.00000000000E+00 0.  1.
         14    1    3    3    0    0  0.13173448025E+02 -0.18293976124E+02  0.50876381641E+02  0.55647241658E+02  0.00000000000E+00 0. -1.
        -13    1    4    4    0    0 -0.41327196363E+02 -0.21790548795E+02 -0.25300954842E+02  0.53131003114E+02  0.00000000000E+00 0. -1.
         13    1    4    4    0    0  0.62224782909E+01  0.26869425163E+02 -0.96703484033E+02  0.10055967914E+03  0.00000000000E+00 0.  1.
         21    1    1    2  503  502 -0.94782466570E+01 -0.18336303645E+02  0.14534385053E+02  0.25244911169E+02  0.00000000000E+00 0. -1.
          1    1    1    2  501    0  0.14613984389E+02  0.45364086041E+02  0.13618908046E+02  0.49567564983E+02  0.00000000000E+00 0. -1.
<scales pt_clust_5="13000.00000" pt_clust_6="13000.00000" pt_clust_7="13000.00000" pt_clust_8="13000.00000" pt_clust_9="20.64115" pt_clust_10="13000.00000"></scales>
<clustering>
<clus scale="   20.641">  1  9  2 -1</clus>
<clus scale="   79.148">  5  6 -1 -1</clus>
<clus scale="   86.473">  7  8 -1 -1</clus>
<clus scale="   41.500">  7 10 -1 -1</clus>
<clus scale="   93.015">  2  5  1 -1</clus>
<clus scale="   20.641">  1  5  2 -1</clus>
</clustering>
</event>
<event>
10    4  0.2565852E-005  0.1949295E+03  0.7546771E-02  0.1173944E+00
          2   -1    0    0  503    0 -0.00000000000E+00  0.00000000000E+00  0.45349541636E+03  0.45349541636E+03  0.00000000000E+00 0. -1.
         21   -1    0    0  501  502  0.00000000000E+00 -0.00000000000E+00 -0.11935177195E+03  0.11935177195E+03  0.00000000000E+00 0.  1.
         24    2    1    2    0    0  0.62559926484E+02  0.89113807939E+02  0.10474870684E+03  0.16977932557E+03  0.77444900672E+02 0.  0.
         23    2    1    2    0    0  0.23100053689E+01  0.91047291197E+01  0.96938713780E+02  0.13281735770E+03  0.90305614768E+02 0.  0.
        -13    1    3    3    0    0  0.15261334071E+02  0.70890829733E+02  0.27852175987E+02  0.77679867180E+02  0.00000000000E+00 0.  1.
         14    1    3    3    0    0  0.47298592413E+02  0.18222978206E+02  0.76896530854E+02  0.92099458394E+02  0.00000000000E+00 0. -1.
        -13    1    4    4    0    0 -0.38734410610E+02  0.11739807219E+02  0.19043337781E+02  0.44730597500E+02  0.00000000000E+00 0. -1.
         13    1    4    4    0    0  0.41044415979E+02 -0.26350780997E+01  0.77895375998E+02  0.88086760195E+02  0.00000000000E+00 0.  1.
         21    1    1    2  503  502  0.35595298504E+01 -0.34547415395E+02 -0.52540436248E+02  0.62981676735E+02  0.00000000000E+00 0.  1.
          1    1    1    2  501    0 -0.68429461703E+02 -0.63671121664E+02  0.18499666004E+03  0.20726882831E+03  0.00000000000E+00 0. -1.
<scales pt_clust_5="13000.00000" pt_clust_6="13000.00000" pt_clust_7="13000.00000" pt_clust_8="13000.00000" pt_clust_9="34.73031" pt_clust_10="13000.00000"></scales>
<clustering>
<clus scale="   34.730">  2  9  1 -1</clus>
<clus scale="   77.445">  5  6 -1 -1</clus>
<clus scale="   90.306">  7  8 -1 -1</clus>
<clus scale="   97.383">  7 10 -1 -1</clus>
<clus scale="  123.181">  1  5  2 -1</clus>
<clus scale="   34.730">  2  5  1 -1</clus>
</clustering>
</event>
<event>
10    4  0.2565852E-005  0.7135993E+03  0.7546771E-02  0.1029749E+00
         21   -1    0    0  501  502  0.00000000000E+00  0.00000000000E+00  0.24981998381E+03  0.24981998381E+03  0.00000000000E+00 0.  1.
          2   -1    0    0  503    0 -0.00000000000E+00 -0.00000000000E+00 -0.75087445587E+03  0.75087445587E+03  0.00000000000E+00 0. -1.
         24    2    1    2    0    0 -0.68082708756E+02  0.72403500587E+01 -0.97715717964E+02  0.14397563872E+03  0.80578813014E+02 0.  0.
         23    2    1    2    0    0  0.20642137110E+03  0.27221429325E+03 -0.33925302180E+03  0.48925624781E+03  0.86998042083E+02 0.  0.
        -13    1    3    3    0    0 -0.34715072538E+02 -0.22715668934E+02 -0.60442676158E+01  0.41924587624E+02  0.00000000000E+00 0.  1.
         14    1    3    3    0    0 -0.33367636218E+02  0.29956018992E+02 -0.91671450348E+02  0.10205105109E+03  0.00000000000E+00 0. -1.
        -11    1    4    4    0    0  0.14578316301E+03  0.21573677736E+03 -0.20458116368E+03  0.33113220963E+03  0.00000000000E+00 0.  1.
         11    1    4    4    0    0  0.60638208095E+02  0.56477515893E+02 -0.13467185812E+03  0.15812403818E+03  0.00000000000E+00 0. -1.
         21    1    1    2  503  502 -0.49990847638E+01  0.22181451649E+02  0.16344865420E+02  0.28002897552E+02  0.00000000000E+00 0. -1.
          1    1    1    2  501    0 -0.13333957759E+03 -0.30163609496E+03 -0.80430597719E+02  0.33945965560E+03  0.00000000000E+00 0. -1.
<scales pt_clust_5="13000.00000" pt_clust_6="13000.00000" pt_clust_7="13000.00000" pt_clust_8="13000.00000" pt_clust_9="22.73780" pt_clust_10="13000.00000"></scales>
<clustering>
<clus scale="   22.738">  1  9  2 -1</clus>
<clus scale="   80.579">  5  6 -1 -1</clus>
<clus scale="   86.998">  7  8 -1 -1</clus>
<clus scale="  106.244">  2  5  1 -1</clus>
<clus scale="  326.780">  7 10 -1 -1</clus>
<clus scale="   22.738">  1  5  2 -1</clus>
</clustering>
</event>
<event>
10    4  0.2565852E-005  0.7097529E+03  0.7546771E-02  0.1014203E+00
         21   -1    0    0  501  502  0.00000000000E+00  0.00000000000E+00  0.33018488229E+03  0.33018488229E+03  0.00000000000E+00 0. -1.
          2   -1    0    0  503    0 -0.00000000000E+00 -0.00000000000E+00 -0.65270822728E+03  0.65270822728E+03  0.00000000000E+00 0. -1.
         24    2    1    2    0    0  0.15021226901E+03  0.43744694491E+02  0.70757934969E+01  0.17605406996E+03  0.80421667715E+02 0.  0.
         23    2    1    2    0    0 -0.10489151216E+03  0.28731197194E+03 -0.26463222385E+02  0.31984545090E+03  0.89724086959E+02 0.  0.
        -13    1    3    3    0    0  0.55138370680E+02  0.33727746638E+02  0.38728081700E+02  0.75350282858E+02  0.00000000000E+00 0.  1.
         14    1    3    3    0    0  0.95073898330E+02  0.10016947852E+02 -0.31652288203E+02  0.10070378710E+03  0.00000000000E+00 0. -1.
        -13    1    4    4    0    0 -0.11940171974E+03  0.25904327983E+03 -0.33804351874E+02  0.28723322528E+03  0.00000000000E+00 0. -1.
         13    1    4    4    0    0  0.14510207579E+02  0.28268692115E+02  0.73411294893E+01  0.32612225622E+02  0.00000000000E+00 0.  1.
         21    1    1    2  503  502 -0.20232659066E+02  0.19844482209E+02 -0.13920333876E+02  0.31574351335E+02  0.00000000000E+00 0.  1.
          1    1    1    2  501    0 -0.25088097785E+02 -0.35090114864E+03 -0.28921558222E+03  0.45541923737E+03  0.00000000000E+00 0. -1.
<scales pt_clust_5="13000.00000" pt_clust_6="13000.00000" pt_clust_7="13000.00000" pt_clust_8="13000.00000" pt_clust_9="28.34016" pt_clust_10="13000.00000"></scales>
<clustering>
<clus scale="   28.340">  1  9  2 -1</clus>
<clus scale="   80.422">  5  6 -1 -1</clus>
<clus scale="   89.724">  7  8 -1 -1</clus>
<clus scale="  172.548">  2  5  1 -1</clus>
<clus scale="  320.003">  7 10 -1 -1</clus>
<clus scale="   28.340">  1  5  2 -1</clus>
</clustering>
</event>
<event>
10    4  0.2565852E-005  0.5198129E+03  0.7546771E-02  0.1053690E+00
         21   -1    0    0  501  502  0.00000000000E+00  0.00000000000E+00  0.20500212274E+03  0.20500212274E+03  0.00000000000E+00 0.  1.
         -1   -1    0    0    0  501 -0.00000000000E+00 -0.00000000000E+00 -0.10047663942E+04  0.10047663942E+04  0.00000000000E+00 0.  1.
         24    2    1    2    0    0 -0.31515474931E+02 -0.10465885191E+03 -0.49181372150E+03  0.50995605574E+03  0.78916042054E+02 0.  0.
         23    2    1    2    0    0 -0.52456257002E+02 -0.10054005335E+02  0.10165853243E+03  0.14691983037E+03  0.91641897720E+02 0.  0.
        -13    1    3    3    0    0 -0.46648971084E+02 -0.42437006074E+02 -0.32924223094E+03  0.33522749383E+03  0.00000000000E+00 0.  1.
         14    1    3    3    0    0  0.15133496153E+02 -0.62221845839E+02 -0.16257149056E+03  0.17472856192E+03  0.00000000000E+00 0. -1.
        -11    1    4    4    0    0 -0.66445269577E+02  0.22225393461E+02  0.58771794723E+02  0.91449799446E+02  0.00000000000E+00 0.  1.
         11    1    4    4    0    0  0.13989012575E+02 -0.32279398796E+02  0.42886737708E+02  0.55470030924E+02  0.00000000000E+00 0. -1.
         21    1    1    2  503  502 -0.37684384071E+02 -0.42292235867E+02  0.34546205895E+02  0.66348974063E+02  0.00000000000E+00 0. -1.
         -2    1    1    2    0  503  0.12165611600E+03  0.15700509312E+03 -0.44415528833E+03  0.48654365680E+03  0.00000000000E+00 0.  1.
<scales pt_clust_5="13000.00000" pt_clust_6="13000.00000" pt_clust_7="13000.00000" pt_clust_8="13000.00000" pt_clust_9="56.64579" pt_clust_10="13000.00000"></scales>
<clustering>
<clus scale="   56.646">  1  9  2 -1</clus>
<clus scale="   78.916">  5  6 -1 -1</clus>
<clus scale="   91.642">  7  8 -1 -1</clus>
<clus scale="  137.275">  2  5  1 -1</clus>
<clus scale="  102.856">  7 10 -1 -1</clus>
<clus scale="   56.646">  1  5  2 -1</clus>
</clustering>
</event>
<event>
10    4  0.2565852E-005  0.3843851E+03  0.7546771E-02  0.1102092E+00
          2   -1    0    0  502    0 -0.00000000000E+00  0.00000000000E+00  0.16811120914E+04  0.16811120914E+04  0.00000000000E+00 0. -1.
         21   -1    0    0  503  502  0.00000000000E+00 -0.00000000000E+00 -0.10301709807E+03  0.10301709807E+03  0.00000000000E+00 0. -1.
         24    2    1    2    0    0  0.10211136697E+02  0.15069341137E+02 -0.11129689841E+02  0.87813962841E+02  0.85182566990E+02 0.  0.
         23    2    1    2    0    0 -0.12831726467E+03  0.16432807999E+03  0.85552430630E+03  0.88536390859E+03  0.92078084762E+02 0.  0.
        -11    1    3    3    0    0 -0.24913569166E+02 -0.80165074589E+01  0.22083169717E+02  0.34243491429E+02  0.00000000000E+00 0.  1.
         12    1    3    3    0    0  0.35124705863E+02  0.23085848596E+02 -0.33212859558E+02  0.53570471413E+02  0.00000000000E+00 0. -1.
        -13    1    4    4    0    0 -0.75425557713E+02  0.26041282386E+02  0.31004709493E+03  0.32015053369E+03  0.00000000000E+00 0. -1.
         13    1    4    4    0    0 -0.52891706953E+02  0.13828679761E+03  0.54547721136E+03  0.56521337491E+03  0.00000000000E+00 0.  1.
         21    1    1    2  503  501  0.16467309017E+02 -0.60448904346E+02  0.19718685374E+01  0.62682777287E+02  0.00000000000E+00 0. -1.
          1    1    1    2  501    0  0.10163881895E+03 -0.11894851678E+03  0.73172850836E+03  0.74826854078E+03  0.00000000000E+00 0. -1.
<scales pt_clust_5="13000.00000" pt_clust_6="13000.00000" pt_clust_7="13000.00000" pt_clust_8="13000.00000" pt_clust_9="62.65175" pt_clust_10="13000.00000"></scales>
<clustering>
<clus scale="   62.652">  2  9  1 -1</clus>
<clus scale="   85.183">  5  6 -1 -1</clus>
<clus scale="   91.627">  1  5  2 -1</clus>
<clus scale="   92.078">  7  8 -1 -1</clus>
<clus scale="  179.922">  7 10 -1 -1</clus>
<clus scale="   62.652">  2  5  1 -1</clus>
</clustering>
</event>
<event>
10    4  0.2565852E-005  0.4760026E+03  0.7546771E-02  0.1040318E+00
          2   -1    0    0  503    0 -0.00000000000E+00  0.00000000000E+00  0.19734615923E+04  0.19734615923E+04  0.00000000000E+00 0. -1.
         21   -1    0    0  501  502  0.00000000000E+00 -0.00000000000E+00 -0.10169968524E+03  0.10169968524E+03  0.00000000000E+00 0. -1.
         24    2    1    2    0    0  0.11456404126E+03 -0.22297842089E+03  0.98152124266E+03  0.10163423434E+04  0.81997033425E+02 0.  0.
         23    2    1    2    0    0  0.95248408364E+02 -0.12126421621E+02  0.14187616833E+03  0.19384885611E+03  0.90715062022E+02 0.  0.
        -11    1    3    3    0    0  0.56850835729E+02 -0.34184934806E+02  0.24861047889E+03  0.25730875910E+03  0.00000000000E+00 0.  1.
         12    1    3    3    0    0  0.57713205530E+02 -0.18879348609E+03  0.73291076377E+03  0.75903358432E+03  0.00000000000E+00 0. -1.
        -11    1    4    4    0    0  0.10079608539E+02 -0.40925682803E+02  0.43129526704E+02  0.60304776717E+02  0.00000000000E+00 0. -1.
         11    1    4    4    0    0  0.85168799825E+02  0.28799261182E+02  0.98746641625E+02  0.13354407939E+03  0.00000000000E+00 0.  1.
         21    1    1    2  503  502  0.38503859229E+02  0.27932406101E+02 -0.22847007863E+01  0.47623380222E+02  0.00000000000E+00 0. -1.
          1    1    1    2  501    0 -0.24831630885E+03  0.20717243641E+03  0.75064919689E+03  0.81734669782E+03  0.00000000000E+00 0. -1.
<scales pt_clust_5="13000.00000" pt_clust_6="13000.00000" pt_clust_7="13000.00000" pt_clust_8="13000.00000" pt_clust_9="47.56855" pt_clust_10="13000.00000"></scales>
<clustering>
<clus scale="   47.569">  2  9  1 -1</clus>
<clus scale="   81.997">  5  6 -1 -1</clus>
<clus scale="   90.715">  7  8 -1 -1</clus>
<clus scale="  262.411">  1  5  2 -1</clus>
<clus scale="  143.012">  7 10 -1 -1</clus>
<clus scale="   47.569">  2  5  1 -1</clus>
</clustering>
</event>
<event>
10    4  0.2565852E-005  0.6306718E+03  0.7546771E-02  0.9938796E-01
          2   -1    0    0  502    0 -0.00000000000E+00  0.00000000000E+00  0.78262636801E+03  0.78262636801E+03  0.00000000000E+00 0. -1.
         21   -1    0    0  503  502  0.00000000000E+00 -0.00000000000E+00 -0.11196328931E+04  0.11196328931E+04  0.00000000000E+00 0. -1.
         24    2    1    2    0    0  0.23604345595E+03 -0.39309804333E+03  0.59780536474E+03  0.75789285378E+03  0.82387735287E+02 0.  0.
         23    2    1    2    0    0 -0.28379805173E+03  0.34923752640E+03 -0.82539797209E+03  0.94451188396E+03  0.91174023671E+02 0.  0.
        -13    1    3    3    0    0  0.93052447511E+02 -0.96703357006E+02  0.13839187122E+03  0.19277605470E+03  0.00000000000E+00 0.  1.
         14    1    3    3    0    0  0.14299100844E+03 -0.29639468632E+03  0.45941349352E+03  0.56511679908E+03  0.00000000000E+00 0. -1.
        -13    1    4    4    0    0 -0.83325070820E+02  0.15613207570E+03 -0.26300029514E+03  0.31700070620E+03  0.00000000000E+00 0.  1.
         13    1    4    4    0    0 -0.20047298091E+03  0.19310545070E+03 -0.56239767696E+03  0.62751117776E+03  0.00000000000E+00 0. -1.
         21    1    1    2  503  501 -0.29798415086E+02  0.61833559825E+01 -0.10948251993E+03  0.11363362884E+03  0.00000000000E+00 0.  1.
          1    1    1    2  501    0  0.77553010863E+02  0.37677160942E+02  0.68602166994E-01  0.86220894549E+02  0.00000000000E+00 0. -1.
<scales pt_clust_5="13000.00000" pt_clust_6="13000.00000" pt_clust_7="13000.00000" pt_clust_8="13000.00000" pt_clust_9="30.43320" pt_clust_10="13000.00000"></scales>
<clustering>
<clus scale="   30.433">  2  9  1 -1</clus>
<clus scale="   82.388">  5  6 -1 -1</clus>
<clus scale="   91.174">  7  8 -1 -1</clus>
<clus scale="   85.195">  7 10 -1 -1</clus>
<clus scale="  464.256">  1  5  2 -1</clus>
<clus scale="   30.433">  2  5  1 -1</clus>
</clustering>
</event>
<event>
10    4  0.2565852E-005  0.5074539E+03  0.7546771E-02  0.1022994E+00
          2   -1    0    0  503    0 -0.00000000000E+00  0.00000000000E+00  0.13068808086E+04  0.13068808086E+04  0.00000000000E+00 0. -1.
         21   -1    0    0  501  502  0.00000000000E+00 -0.00000000000E+00 -0.16625478392E+03  0.16625478392E+03  0.00000000000E+00 0. -1.
         24    2    1    2    0    0 -0.28247680671E+03  0.22487131034E+03  0.44514717670E+03  0.57873830203E+03  0.80135889351E+02 0.  0.
         23    2    1    2    0    0 -0.62886940031E+02 -0.22373041117E+01  0.17520003654E+03  0.20655110482E+03  0.89490409227E+02 0.  0.
        -13    1    3    3    0    0 -0.18175615671E+03  0.18937702848E+03  0.33060148658E+03  0.42213303868E+03  0.00000000000E+00 0.  1.
         14    1    3    3    0    0 -0.10072065000E+03  0.35494281859E+02  0.11454569013E+03  0.15660526335E+03  0.00000000000E+00 0. -1.
        -13    1    4    4    0    0 -0.51100080506E+02 -0.43104081270E+02  0.10539159189E+03  0.12480612040E+03  0.00000000000E+00 0. -1.
         13    1    4    4    0    0 -0.11786859525E+02  0.40866777158E+02  0.69808444649E+02  0.81744984415E+02  0.00000000000E+00 0.  1.
         21    1    1    2  503  502  0.27380601120E+02  0.39844765012E+01 -0.99066398312E+01  0.29389026582E+02  0.00000000000E+00 0.  1.
          1    1    1    2  501    0  0.31798314562E+03 -0.22661848273E+03  0.53018545129E+03  0.65845715910E+03  0.00000000000E+00 0. -1.
<scales pt_clust_5="13000.00000" pt_clust_6="13000.00000" pt_clust_7="13000.00000" pt_clust_8="13000.00000" pt_clust_9="27.66900" pt_clust_10="13000.00000"></scales>
<clustering>
<clus scale="   27.669">  2  9  1 -1</clus>
<clus scale="   80.136">  5  6 -1 -1</clus>
<clus scale="   89.490">  7  8 -1 -1</clus>
<clus scale="  361.538">  1  5  2 -1</clus>
<clus scale="  132.633">  7 10 -1 -1</clus>
<clus scale="   27.669">  2  5  1 -1</clus>
</clustering>
</event>
<event>
10    4  0.2565852E-005  0.1680996E+03  0.7546771E-02  0.1210214E+00
         21   -1    0    0  501  502  0.00000000000E+00  0.00000000000E+00  0.28393406126E+03  0.28393406126E+03  0.00000000000E+00 0. -1.
          2   -1    0    0  503    0 -0.00000000000E+00 -0.00000000000E+00 -0.18289834897E+03  0.18289834897E+03  0.00000000000E+00 0. -1.
         24    2    1    2    0    0  0.20711228516E+02  0.29182439443E+02 -0.81892719787E+02  0.11773306234E+03  0.76642590355E+02 0.  0.
         23    2    1    2    0    0 -0.47963875650E+02 -0.76691803124E+02 -0.22010705266E+02  0.13115425167E+03  0.92383984274E+02 0.  0.
        -11    1    3    3    0    0  0.47233845791E+02  0.29313428349E+02 -0.41340162611E+02  0.69277141356E+02  0.00000000000E+00 0.  1.
         12    1    3    3    0    0 -0.26522617276E+02 -0.13098890567E+00 -0.40552557176E+02  0.48455920988E+02  0.00000000000E+00 0. -1.
        -11    1    4    4    0    0 -0.12123234792E+02 -0.39467223422E+02  0.35060334437E+02  0.54165132671E+02  0.00000000000E+00 0.  1.
         11    1    4    4    0    0 -0.35840640858E+02 -0.37224579702E+02 -0.57071039702E+02  0.76989118996E+02  0.00000000000E+00 0. -1.
         21    1    1    2  503  502  0.12377136993E+02  0.22536186486E+02  0.17242691953E+03  0.17433334678E+03  0.00000000000E+00 0. -1.
          1    1    1    2  501    0  0.14875510141E+02  0.24973177195E+02  0.32512217817E+02  0.43611749432E+02  0.00000000000E+00 0. -1.
<scales pt_clust_5="13000.00000" pt_clust_6="13000.00000" pt_clust_7="13000.00000" pt_clust_8="13000.00000" pt_clust_9="25.71134" pt_clust_10="13000.00000"></scales>
<clustering>
<clus scale="   25.711">  1  9  2 -1</clus>
<clus scale="   76.643">  5  6 -1 -1</clus>
<clus scale="   86.420">  2  5  1 -1</clus>
<clus scale="   92.384">  7  8 -1 -1</clus>
<clus scale="   43.271">  7 10 -1 -1</clus>
<clus scale="   25.711">  1  5  2 -1</clus>
</clustering>
</event>
<event>
10    4  0.2565852E-005  0.1077100E+04  0.7546771E-02  0.9679192E-01
         21   -1    0    0  501  502  0.00000000000E+00  0.00000000000E+00  0.19296976335E+04  0.19296976335E+04  0.00000000000E+00 0. -1.
          2   -1    0    0  503    0 -0.00000000000E+00 -0.00000000000E+00 -0.26303150853E+03  0.26303150853E+03  0.00000000000E+00 0. -1.
         24    2    1    2    0    0 -0.20274365867E+03 -0.72968642038E+01  0.43067240174E+02  0.22403935433E+03  0.84738478591E+02 0.  0.
         23    2    1    2    0    0  0.22591959160E+03  0.49917687164E+03  0.58557686950E+03  0.80743332784E+03  0.93973920714E+02 0.  0.
        -11    1    3    3    0    0 -0.17810690446E+02  0.93375239514E+01  0.32298986070E+02  0.38047792956E+02  0.00000000000E+00 0.  1.
         12    1    3    3    0    0 -0.18493296822E+03 -0.16634388155E+02  0.10768254104E+02  0.18599156137E+03  0.00000000000E+00 0. -1.
        -13    1    4    4    0    0  0.19070682081E+03  0.46653499992E+03  0.55856338221E+03  0.75234104606E+03  0.00000000000E+00 0. -1.
         13    1    4    4    0    0  0.35212770785E+02  0.32641871723E+02  0.27013487289E+02  0.55092281777E+02  0.00000000000E+00 0.  1.
         21    1    1    2  503  502  0.23308888475E+02 -0.64792597026E+01  0.11320032156E+03  0.11575663216E+03  0.00000000000E+00 0. -1.
          1    1    1    2  501    0 -0.46484821404E+02 -0.48540074773E+03  0.92482169372E+03  0.10454998277E+04  0.00000000000E+00 0. -1.
<scales pt_clust_5="13000.00000" pt_clust_6="13000.00000" pt_clust_7="13000.00000" pt_clust_8="13000.00000" pt_clust_9="24.19267" pt_clust_10="13000.00000"></scales>
<clustering>
<clus scale="   24.193">  1  9  2 -1</clus>
<clus scale="   84.738">  5  6 -1 -1</clus>
<clus scale="   93.974">  7  8 -1 -1</clus>
<clus scale="  218.297">  2  5  1 -1</clus>
<clus scale="  502.825">  7 10 -1 -1</clus>
<clus scale="   24.193">  1  5  2 -1</clus>
</clustering>
</event>
<event>
10    4  0.2567837E-005  0.4049033E+03  0.7546771E-02  0.1065074E+00
          2   -1    0    0  503    0 -0.00000000000E+00  0.00000000000E+00  0.29094068544E+04  0.29094068544E+04  0.00000000000E+00 0. -1.
         21   -1    0    0  501  502  0.00000000000E+00 -0.00000000000E+00 -0.86835282250E+02  0.86835282250E+02  0.00000000000E+00 0.  1.
         24    2    1    2    0    0 -0.95359023948E+02  0.21520088494E+03  0.17923437281E+03  0.30691664389E+03  0.81658444560E+02 0.  0.
         23    2    1    2    0    0 -0.78743797449E+01  0.84941294157E+02  0.61020635824E+03  0.62311730366E+03  0.92985725626E+02 0.  0.
        -11    1    3    3    0    0 -0.10819991316E+03  0.19655519261E+03  0.14978844884E+03  0.26977350566E+03  0.00000000000E+00 0.  1.
         12    1    3    3    0    0  0.12840889216E+02  0.18645692330E+02  0.29445923978E+02  0.37143138225E+02  0.00000000000E+00 0. -1.
        -11    1    4    4    0    0 -0.44769308118E+02  0.15251463962E+02  0.22139414129E+03  0.22638962852E+03  0.00000000000E+00 0.  1.
         11    1    4    4    0    0  0.36894928373E+02  0.69689830195E+02  0.38881221695E+03  0.39672767514E+03  0.00000000000E+00 0. -1.
         21    1    1    2  503  502  0.18598958493E+02 -0.47083865370E+02  0.78235827513E+02  0.93186138142E+02  0.00000000000E+00 0.  1.
          1    1    1    2  501    0  0.84634445200E+02 -0.25305831373E+03  0.19548950136E+04  0.19730220510E+04  0.00000000000E+00 0. -1.
<scales pt_clust_5="13000.00000" pt_clust_6="13000.00000" pt_clust_7="13000.00000" pt_clust_8="13000.00000" pt_clust_9="50.62422" pt_clust_10="13000.00000"></scales>
<clustering>
<clus scale="   50.624">  2  9  1 -1</clus>
<clus scale="   81.658">  5  6 -1 -1</clus>
<clus scale="   92.986">  7  8 -1 -1</clus>
<clus scale="  211.130">  1  5  2 -1</clus>
<clus scale="  123.861">  7 10 -1 -1</clus>
<clus scale="   50.624">  2  5  1 -1</clus>
</clustering>
</event>
<event>
10    4  0.2565852E-005  0.2622768E+03  0.7546771E-02  0.1149763E+00
         21   -1    0    0  501  502  0.00000000000E+00  0.00000000000E+00  0.23293023199E+03  0.23293023199E+03  0.00000000000E+00 0. -1.
          2   -1    0    0  503    0 -0.00000000000E+00 -0.00000000000E+00 -0.57103530221E+03  0.57103530221E+03  0.00000000000E+00 0. -1.
         24    2    1    2    0    0 -0.25159532425E+02 -0.26521187985E+02  0.49568897457E+02  0.10133237450E+03  0.80466135997E+02 0.  0.
         23    2    1    2    0    0 -0.23568644095E+02 -0.83895208015E+02 -0.17224756062E+03  0.21295503556E+03  0.89926292700E+02 0.  0.
        -11    1    3    3    0    0 -0.24843308522E+02 -0.28235065326E+02 -0.12200728422E+02  0.39538167210E+02  0.00000000000E+00 0.  1.
         12    1    3    3    0    0 -0.31622390249E+00  0.17138773407E+01  0.61769625879E+02  0.61794207288E+02  0.00000000000E+00 0. -1.
        -11    1    4    4    0    0 -0.43948167358E+02 -0.21094828623E+02 -0.11740796614E+03  0.12712617245E+03  0.00000000000E+00 0.  1.
         11    1    4    4    0    0  0.20379523263E+02 -0.62800379392E+02 -0.54839594482E+02  0.85828863112E+02  0.00000000000E+00 0. -1.
         21    1    1    2  503  502  0.16692338692E+02 -0.11558036232E+02  0.12500273577E+03  0.12664085566E+03  0.00000000000E+00 0. -1.
          1    1    1    2  501    0  0.32035837828E+02  0.12197443223E+03 -0.34042914282E+03  0.36303726848E+03  0.00000000000E+00 0. -1.
<scales pt_clust_5="13000.00000" pt_clust_6="13000.00000" pt_clust_7="13000.00000" pt_clust_8="13000.00000" pt_clust_9="20.30326" pt_clust_10="13000.00000"></scales>
<clustering>
<clus scale="   20.303">  1  9  2 -1</clus>
<clus scale="   80.466">  5  6 -1 -1</clus>
<clus scale="   88.634">  2  5  1 -1</clus>
<clus scale="   89.926">  7  8 -1 -1</clus>
<clus scale="  101.754">  7 10 -1 -1</clus>
<clus scale="   20.303">  1  5  2 -1</clus>
</clustering>
</event>
<event>
10    4  0.2565852E-005  0.4265350E+03  0.7546771E-02  0.1074015E+00
          2   -1    0    0  502    0 -0.00000000000E+00  0.00000000000E+00  0.15528233682E+04  0.15528233682E+04  0.00000000000E+00 0. -1.
         21   -1    0    0  503  502  0.00000000000E+00 -0.00000000000E+00 -0.21097332082E+03  0.21097332082E+03  0.00000000000E+00 0. -1.
         24    2    1    2    0    0  0.93386511242E+02  0.71130244382E+02  0.37720626611E+03  0.40295421427E+03  0.79416493606E+02 0.  0.
         23    2    1    2    0    0  0.11527389008E+03  0.19458620751E+02  0.19745479573E+03  0.24666826148E+03  0.90499321579E+02 0.  0.
        -11    1    3    3    0    0  0.69512374530E+02  0.74519776897E+02  0.35771611571E+03  0.37194890348E+03  0.00000000000E+00 0.  1.
         12    1    3    3    0    0  0.23874136713E+02 -0.33895325155E+01  0.19490150398E+02  0.31005310787E+02  0.00000000000E+00 0. -1.
        -11    1    4    4    0    0  0.50344195934E+02 -0.36281815158E+02  0.89550273169E+02  0.10895026205E+03  0.00000000000E+00 0.  1.
         11    1    4    4    0    0  0.64929694148E+02  0.55740435909E+02  0.10790452256E+03  0.13771799943E+03  0.00000000000E+00 0. -1.
         21    1    1    2  503  501  0.18063440890E+02 -0.29510573421E+02 -0.15692588109E+03  0.16069503413E+03  0.00000000000E+00 0. -1.
          1    1    1    2  501    0 -0.22672384221E+03 -0.61078291712E+02  0.92411486665E+03  0.95347917917E+03  0.00000000000E+00 0. -1.
<scales pt_clust_5="13000.00000" pt_clust_6="13000.00000" pt_clust_7="13000.00000" pt_clust_8="13000.00000" pt_clust_9="34.60003" pt_clust_10="13000.00000"></scales>
<clustering>
<clus scale="   34.600">  2  9  1 -1</clus>
<clus scale="   79.416">  5  6 -1 -1</clus>
<clus scale="   90.499">  7  8 -1 -1</clus>
<clus scale="  141.269">  1  5  2 -1</clus>
<clus scale="  145.532">  7 10 -1 -1</clus>
<clus scale="   34.600">  2  5  1 -1</clus>
</clustering>
</event>
<event>
10    4  0.2565852E-005  0.2476599E+03  0.7546771E-02  0.1145581E+00
         21   -1    0    0  501  502  0.00000000000E+00  0.00000000000E+00  0.65483228194E+03  0.65483228194E+03  0.00000000000E+00 0. -1.
          2   -1    0    0  503    0 -0.00000000000E+00 -0.00000000000E+00 -0.19162241653E+03  0.19162241653E+03  0.00000000000E+00 0. -1.
         24    2    1    2    0    0  0.75947112142E+02 -0.32982967964E+02 -0.12697444073E+03  0.17234950866E+03  0.82012221755E+02 0.  0.
         23    2    1    2    0    0 -0.35169431739E+02  0.19963518544E+02  0.32915956537E+02  0.10671137149E+03  0.93104380180E+02 0.  0.
        -13    1    3    3    0    0  0.54290828142E+02 -0.44682199871E+02 -0.37778988174E+02  0.79820078634E+02  0.00000000000E+00 0.  1.
         14    1    3    3    0    0  0.21656284001E+02  0.11699231907E+02 -0.89195452554E+02  0.92529430022E+02  0.00000000000E+00 0. -1.
        -11    1    4    4    0    0 -0.45855689097E+02  0.39928242157E+02  0.49694942212E+02  0.78527676814E+02  0.00000000000E+00 0.  1.
         11    1    4    4    0    0  0.10686257358E+02 -0.19964723612E+02 -0.16778985675E+02  0.28183694675E+02  0.00000000000E+00 0. -1.
         21    1    1    2  503  502 -0.26331687015E+02 -0.41856599171E+02  0.23184132986E+03  0.23705639596E+03  0.00000000000E+00 0. -1.
          1    1    1    2  501    0 -0.14445993388E+02  0.54876048590E+02  0.32542701974E+03  0.33033742236E+03  0.00000000000E+00 0. -1.
<scales pt_clust_5="13000.00000" pt_clust_6="13000.00000" pt_clust_7="13000.00000" pt_clust_8="13000.00000" pt_clust_9="49.45030" pt_clust_10="13000.00000"></scales>
<clustering>
<clus scale="   49.450">  1  9  2 -1</clus>
<clus scale="   82.012">  5  6 -1 -1</clus>
<clus scale="   93.104">  7  8 -1 -1</clus>
<clus scale="   41.449">  7 10 -1 -1</clus>
<clus scale="  116.285">  2  5  1 -1</clus>
<clus scale="   49.450">  1  5  2 -1</clus>
</clustering>
</event>
<event>
10    4  0.2565852E-005  0.2838648E+03  0.7546771E-02  0.1117058E+00
          2   -1    0    0  503    0 -0.00000000000E+00  0.00000000000E+00  0.51573539059E+03  0.51573539059E+03  0.00000000000E+00 0. -1.
         21   -1    0    0  501  502  0.00000000000E+00 -0.00000000000E+00 -0.49777263278E+03  0.49777263278E+03  0.00000000000E+00 0. -1.
         24    2    1    2    0    0 -0.16934534188E+03 -0.27107123205E+02  0.58773162445E+02  0.19854846032E+03  0.80960271280E+02 0.  0.
         23    2    1    2    0    0  0.10972805228E+03  0.11911468857E+03  0.27947334357E+03  0.33544306622E+03  0.90488377284E+02 0.  0.
        -13    1    3    3    0    0 -0.45882120206E+02 -0.32384228411E+02 -0.10122747159E+02  0.57064675714E+02  0.00000000000E+00 0.  1.
         14    1    3    3    0    0 -0.12346322168E+03  0.52771052058E+01  0.68895909603E+02  0.14148378461E+03  0.00000000000E+00 0. -1.
        -13    1    4    4    0    0  0.63823913874E+02  0.82747268228E+02  0.24763931543E+03  0.26878584957E+03  0.00000000000E+00 0.  1.
         13    1    4    4    0    0  0.45904138405E+02  0.36367420344E+02  0.31834028139E+02  0.66657216659E+02  0.00000000000E+00 0. -1.
         21    1    1    2  503  502  0.70322528278E+02 -0.13605026496E+02 -0.37598564384E+03  0.38274738288E+03  0.00000000000E+00 0. -1.
          1    1    1    2  501    0 -0.10705238674E+02 -0.78402538871E+02  0.55701895635E+02  0.96769113945E+02  0.00000000000E+00 0. -1.
<scales pt_clust_5="13000.00000" pt_clust_6="13000.00000" pt_clust_7="13000.00000" pt_clust_8="13000.00000" pt_clust_9="71.62649" pt_clust_10="13000.00000"></scales>
<clustering>
<clus scale="   71.626">  2  9  1 -1</clus>
<clus scale="   80.960">  5  6 -1 -1</clus>
<clus scale="   90.488">  7  8 -1 -1</clus>
<clus scale="   80.776">  7 10 -1 -1</clus>
<clus scale="  155.344">  1  5  2 -1</clus>
<clus scale="   71.626">  2  5  1 -1</clus>
</clustering>
</event>
<event>
10    4  0.2565852E-005  0.2083117E+03  0.7546771E-02  0.1177243E+00
          2   -1    0    0  502    0 -0.00000000000E+00  0.00000000000E+00  0.86573868145E+03  0.86573868145E+03  0.00000000000E+00 0. -1.
         21   -1    0    0  503  502  0.00000000000E+00 -0.00000000000E+00 -0.10028416015E+03  0.10028416015E+03  0.00000000000E+00 0. -1.
         24    2    1    2    0    0 -0.43907355776E+02 -0.72654511550E+01  0.63258653903E+02  0.11069865866E+03  0.79195284358E+02 0.  0.
         23    2    1    2    0    0 -0.17066285497E+02 -0.26520686427E+02  0.19703548276E+03  0.21873837483E+03  0.89604074951E+02 0.  0.
        -11    1    3    3    0    0 -0.21882187112E+02  0.33883734474E+02  0.45389761906E+02  0.60722055800E+02  0.00000000000E+00 0.  1.
         12    1    3    3    0    0 -0.22025168664E+02 -0.41149185629E+02  0.17868891997E+02  0.49976602864E+02  0.00000000000E+00 0. -1.
        -13    1    4    4    0    0  0.31553081443E+02 -0.11489687889E+02  0.33359398777E+02  0.47333490924E+02  0.00000000000E+00 0.  1.
         13    1    4    4    0    0 -0.48619366940E+02 -0.15030998538E+02  0.16367608398E+03  0.17140488390E+03  0.00000000000E+00 0. -1.
         21    1    1    2  503  501  0.29823024911E+01 -0.31716065112E+02 -0.58267138455E+02  0.66406794367E+02  0.00000000000E+00 0. -1.
          1    1    1    2  501    0  0.57991338782E+02  0.65502202694E+02  0.56342752309E+03  0.57017901374E+03  0.00000000000E+00 0. -1.
<scales pt_clust_5="13000.00000" pt_clust_6="13000.00000" pt_clust_7="13000.00000" pt_clust_8="13000.00000" pt_clust_9="31.85597" pt_clust_10="13000.00000"></scales>
<clustering>
<clus scale="   31.856">  2  9  1 -1</clus>
<clus scale="   79.195">  5  6 -1 -1</clus>
<clus scale="   89.604">  7  8 -1 -1</clus>
<clus scale="   85.573">  7 10 -1 -1</clus>
<clus scale="   93.667">  1  5  2 -1</clus>
<clus scale="   31.856">  2  5  1 -1</clus>
</clustering>
</event>
<event>
10    4  0.2565852E-005  0.2768841E+03  0.7546771E-02  0.1145260E+00
         21   -1    0    0  503  502  0.00000000000E+00  0.00000000000E+00  0.17241994937E+03  0.17241994937E+03  0.00000000000E+00 0. -1.
          2   -1    0    0  502    0 -0.00000000000E+00 -0.00000000000E+00 -0.51112885278E+03  0.51112885278E+03  0.00000000000E+00 0. -1.
         24    2    1    2    0    0 -0.10172842656E+02  0.11013708468E+02 -0.91652891265E+02  0.12475476147E+03  0.83298916735E+02 0.  0.
         23    2    1    2    0    0 -0.20018551970E+02  0.11491504614E+03 -0.35445077671E+03  0.38432457213E+03  0.91998985758E+02 0.  0.
        -11    1    3    3    0    0  0.28193341812E+02  0.89190873211E+01 -0.78917820194E+02  0.84275957339E+02  0.00000000000E+00 0.  1.
         12    1    3    3    0    0 -0.38366184468E+02  0.20946211469E+01 -0.12735071071E+02  0.40478804127E+02  0.00000000000E+00 0. -1.
        -13    1    4    4    0    0  0.13668354107E+02  0.15838366658E+02 -0.79733463242E+01  0.22388658155E+02  0.00000000000E+00 0.  1.
         13    1    4    4    0    0 -0.33686906077E+02  0.99076679481E+02 -0.34647743039E+03  0.36193591397E+03  0.00000000000E+00 0. -1.
         21    1    1    2  503  501  0.14544969247E+02 -0.74248767589E+02  0.90352274170E+02  0.11784722766E+03  0.00000000000E+00 0. -1.
          1    1    1    2  501    0  0.15646425378E+02 -0.51679987018E+02  0.17042490388E+02  0.56622240895E+02  0.00000000000E+00 0. -1.
<scales pt_clust_5="13000.00000" pt_clust_6="13000.00000" pt_clust_7="13000.00000" pt_clust_8="13000.00000" pt_clust_9="75.66000" pt_clust_10="13000.00000"></scales>
<clustering>
<clus scale="   75.660">  1  9  2 -1</clus>
<clus scale="   83.299">  5  6 -1 -1</clus>
<clus scale="   83.854">  2  5  1 -1</clus>
<clus scale="   91.999">  7  8 -1 -1</clus>
<clus scale="   95.711">  7 10 -1 -1</clus>
<clus scale="   75.660">  1  5  2 -1</clus>
</clustering>
</event>
<event>
10    4  0.2565852E-005  0.2475412E+03  0.7546771E-02  0.1155254E+00
         -3   -1    0    0    0  501 -0.00000000000E+00  0.00000000000E+00  0.33640821775E+03  0.33640821775E+03  0.00000000000E+00 0.  1.
         21   -1    0    0  501  502  0.00000000000E+00 -0.00000000000E+00 -0.10767206226E+03  0.10767206226E+03  0.00000000000E+00 0.  1.
         24    2    1    2    0    0 -0.11140293500E+02 -0.43743891807E+02  0.69923135759E+02  0.11583933805E+03  0.80572160926E+02 0.  0.
         23    2    1    2    0    0 -0.30780792510E+02 -0.64847370066E+02  0.30119941910E+02  0.12017152837E+03  0.91549695457E+02 0.  0.
        -13    1    3    3    0    0 -0.33532484938E+02 -0.28248074285E+02  0.76182131995E+02  0.87898227981E+02  0.00000000000E+00 0.  1.
         14    1    3    3    0    0  0.22392191438E+02 -0.15495817522E+02 -0.62589962365E+01  0.27941110071E+02  0.00000000000E+00 0. -1.
        -11    1    4    4    0    0  0.26425181481E+02  0.15893703379E+01 -0.25834444216E+01  0.26598693567E+02  0.00000000000E+00 0. -1.
         11    1    4    4    0    0 -0.57205973991E+02 -0.66436740404E+02  0.32703386331E+02  0.93572834804E+02  0.00000000000E+00 0.  1.
         21    1    1    2  503  502  0.26530504837E+02 -0.66862356236E+01 -0.80863706026E+01  0.28530033705E+02  0.00000000000E+00 0. -1.
         -4    1    1    2    0  503  0.15390581173E+02  0.11527749750E+03  0.13677944842E+03  0.17953937988E+03  0.00000000000E+00 0.  1.
<scales pt_clust_5="13000.00000" pt_clust_6="13000.00000" pt_clust_7="13000.00000" pt_clust_8="13000.00000" pt_clust_9="27.36007" pt_clust_10="13000.00000"></scales>
<clustering>
<clus scale="   27.360">  2  9  1 -1</clus>
<clus scale="   80.572">  5  6 -1 -1</clus>
<clus scale="   91.550">  7  8 -1 -1</clus>
<clus scale="   92.614">  1  5  2 -1</clus>
<clus scale="   85.746">  7 10 -1 -1</clus>
<clus scale="   27.360">  2  5  1 -1</clus>
</clustering>
</event>
<event>
10    4  0.2565852E-005  0.2465351E+03  0.7546771E-02  0.1158551E+00
         21   -1    0    0  501  502  0.00000000000E+00  0.00000000000E+00  0.30021649776E+03  0.30021649776E+03  0.00000000000E+00 0. -1.
          2   -1    0    0  503    0 -0.00000000000E+00 -0.00000000000E+00 -0.80159632319E+03  0.80159632319E+03  0.00000000000E+00 0. -1.
         24    2    1    2    0    0 -0.29791657060E+02 -0.99168674373E+01 -0.59382983616E+03  0.60003518051E+03  0.80140229946E+02 0.  0.
         23    2    1    2    0    0 -0.48029233573E+01  0.23648509913E+02  0.43798100113E+02  0.10149272103E+03  0.88318620654E+02 0.  0.
        -13    1    3    3    0    0  0.17851820331E+02 -0.15646622948E+02 -0.68078625685E+02  0.72098568460E+02  0.00000000000E+00 0.  1.
         14    1    3    3    0    0 -0.47643477391E+02  0.57297555108E+01 -0.52575121047E+03  0.52793661205E+03  0.00000000000E+00 0. -1.
        -13    1    4    4    0    0 -0.24755371189E+02  0.50106250107E+02  0.38666400173E+02  0.67959952949E+02  0.00000000000E+00 0. -1.
         13    1    4    4    0    0  0.19952447832E+02 -0.26457740194E+02  0.51316999392E+01  0.33532768078E+02  0.00000000000E+00 0.  1.
         21    1    1    2  503  502 -0.49754967000E+02 -0.19222314279E+02  0.21079112065E+03  0.21743493430E+03  0.00000000000E+00 0. -1.
          1    1    1    2  501    0  0.84349547418E+02  0.54906718036E+01 -0.16213921004E+03  0.18284998512E+03  0.00000000000E+00 0. -1.
<scales pt_clust_5="13000.00000" pt_clust_6="13000.00000" pt_clust_7="13000.00000" pt_clust_8="13000.00000" pt_clust_9="53.33905" pt_clust_10="13000.00000"></scales>
<clustering>
<clus scale="   53.339">  1  9  2 -1</clus>
<clus scale="   80.140">  5  6 -1 -1</clus>
<clus scale="   86.791">  2  5  1 -1</clus>
<clus scale="   88.319">  7  8 -1 -1</clus>
<clus scale="   54.313">  7 10 -1 -1</clus>
<clus scale="   53.339">  1  5  2 -1</clus>
</clustering>
</event>
<event>
10    4  0.2565852E-005  0.3153121E+03  0.7546771E-02  0.1087462E+00
         21   -1    0    0  501  502  0.00000000000E+00  0.00000000000E+00  0.11160407522E+03  0.11160407522E+03  0.00000000000E+00 0.  1.
         -1   -1    0    0    0  501 -0.00000000000E+00 -0.00000000000E+00 -0.88384224603E+03  0.88384224603E+03  0.00000000000E+00 0.  1.
         24    2    1    2    0    0 -0.24867639505E+03  0.48089252775E+01 -0.27893981726E+03  0.38258275715E+03  0.81847841751E+02 0.  0.
         23    2    1    2    0    0  0.82551220541E+02  0.72033602275E+02 -0.16559561137E+03  0.21817387165E+03  0.90412321589E+02 0.  0.
        -13    1    3    3    0    0 -0.21831820677E+03  0.14509875307E+02 -0.27350089710E+03  0.35025150479E+03  0.00000000000E+00 0.  1.
         14    1    3    3    0    0 -0.30358188276E+02 -0.97009500294E+01 -0.54389201567E+01  0.32331252363E+02  0.00000000000E+00 0. -1.
        -13    1    4    4    0    0  0.44102235038E+02  0.76089830768E+02 -0.15479014311E+03  0.17802993537E+03  0.00000000000E+00 0.  1.
         13    1    4    4    0    0  0.38448985503E+02 -0.40562284931E+01 -0.10805468255E+02  0.40143936279E+02  0.00000000000E+00 0. -1.
         21    1    1    2  503  502  0.35494971631E+02  0.11463759028E+01 -0.24316089387E+01  0.35596627802E+02  0.00000000000E+00 0.  1.
         -2    1    1    2    0  503  0.13063020288E+03 -0.77988903455E+02 -0.32527113324E+03  0.35909306466E+03  0.00000000000E+00 0.  1.
<scales pt_clust_5="13000.00000" pt_clust_6="13000.00000" pt_clust_7="13000.00000" pt_clust_8="13000.00000" pt_clust_9="35.51348" pt_clust_10="13000.00000"></scales>
<clustering>
<clus scale="   35.513">  1  9  2 -1</clus>
<clus scale="   81.848">  5  6 -1 -1</clus>
<clus scale="   90.412">  7  8 -1 -1</clus>
<clus scale="  157.496">  7 10 -1 -1</clus>
<clus scale="  243.548">  2  5  1 -1</clus>
<clus scale="   35.513">  1  5  2 -1</clus>
</clustering>
</event>
<event>
10    4  0.2565852E-005  0.1996161E+03  0.7546771E-02  0.1176354E+00
          2   -1    0    0  502    0 -0.00000000000E+00  0.00000000000E+00  0.14709720752E+04  0.14709720752E+04  0.00000000000E+00 0. -1.
         21   -1    0    0  503  502  0.00000000000E+00 -0.00000000000E+00 -0.22897632111E+02  0.22897632111E+02  0.00000000000E+00 0. -1.
         24    2    1    2    0    0 -0.21180158422E+02 -0.46610103997E+02  0.42952127602E+03  0.44168702202E+03  0.89318519676E+02 0.  0.
         23    2    1    2    0    0 -0.54483403527E+02  0.70346712679E+02  0.68848454573E+03  0.70029876032E+03  0.92142730306E+02 0.  0.
        -11    1    3    3    0    0 -0.46352125313E+02  0.23993127219E+01  0.16021505060E+03  0.16680269381E+03  0.00000000000E+00 0.  1.
         12    1    3    3    0    0  0.25171966891E+02 -0.49009416718E+02  0.26930622542E+03  0.27488432821E+03  0.00000000000E+00 0. -1.
        -13    1    4    4    0    0  0.20437955451E+02 -0.50555956896E+01  0.88395364880E+02  0.90868089025E+02  0.00000000000E+00 0.  1.
         13    1    4    4    0    0 -0.74921358978E+02  0.75402308369E+02  0.60008918085E+03  0.60943067130E+03  0.00000000000E+00 0. -1.
         21    1    1    2  503  501  0.17318522405E+00 -0.31635507956E+02  0.34866006138E+02  0.47079440744E+02  0.00000000000E+00 0.  1.
          1    1    1    2  501    0  0.75490376725E+02  0.78988992734E+01  0.29520261520E+03  0.30480448424E+03  0.00000000000E+00 0. -1.
<scales pt_clust_5="13000.00000" pt_clust_6="13000.00000" pt_clust_7="13000.00000" pt_clust_8="13000.00000" pt_clust_9="31.63598" pt_clust_10="13000.00000"></scales>
<clustering>
<clus scale="   31.636">  2  9  1 -1</clus>
<clus scale="   89.319">  5  6 -1 -1</clus>
<clus scale="   92.143">  7  8 -1 -1</clus>
<clus scale="   75.549">  7 10 -1 -1</clus>
<clus scale="  108.609">  1  5  2 -1</clus>
<clus scale="   31.636">  2  5  1 -1</clus>
</clustering>
</event>
<event>
10    4  0.2565852E-005  0.2090744E+03  0.7546771E-02  0.1154483E+00
         21   -1    0    0  501  502  0.00000000000E+00  0.00000000000E+00  0.28671838294E+03  0.28671838294E+03  0.00000000000E+00 0.  1.
          2   -1    0    0  503    0 -0.00000000000E+00 -0.00000000000E+00 -0.83292102515E+03  0.83292102515E+03  0.00000000000E+00 0. -1.
         24    2    1    2    0    0  0.15725203480E+03 -0.67960069021E+01 -0.61102924705E+02  0.18689050030E+03  0.80125548605E+02 0.  0.
         23    2    1    2    0    0 -0.94373019856E+02  0.39203983627E+02 -0.64980630355E+03  0.66428040057E+03  0.92612090152E+02 0.  0.
        -13    1    3    3    0    0  0.11453268448E+03 -0.13344137184E+01 -0.30166869232E+01  0.11458017662E+03  0.00000000000E+00 0.  1.
         14    1    3    3    0    0  0.42719350311E+02 -0.54615931837E+01 -0.58086237782E+02  0.72310323681E+02  0.00000000000E+00 0. -1.
        -11    1    4    4    0    0 -0.33036360764E+01  0.43267590868E+02 -0.14675342589E+03  0.15303452696E+03  0.00000000000E+00 0.  1.
         11    1    4    4    0    0 -0.91069383780E+02 -0.40636072404E+01 -0.50305287765E+03  0.51124587361E+03  0.00000000000E+00 0. -1.
         21    1    1    2  503  502 -0.29388948997E+02 -0.11393885531E+02  0.20768920746E+03  0.21006746023E+03  0.00000000000E+00 0.  1.
          1    1    1    2  501    0 -0.33490065941E+02 -0.21014091194E+02 -0.42982621419E+02  0.58401046990E+02  0.00000000000E+00 0. -1.
<scales pt_clust_5="13000.00000" pt_clust_6="13000.00000" pt_clust_7="13000.00000" pt_clust_8="13000.00000" pt_clust_9="31.52033" pt_clust_10="13000.00000"></scales>
<clustering>
<clus scale="   31.520">  1  9  2 -1</clus>
<clus scale="   80.126">  5  6 -1 -1</clus>
<clus scale="   92.612">  7  8 -1 -1</clus>
<clus scale="   42.606">  7 10 -1 -1</clus>
<clus scale="  156.525">  2  5  1 -1</clus>
<clus scale="   31.520">  1  5  2 -1</clus>
</clustering>
</event>
<event>
10    4  0.2565852E-005  0.1557061E+03  0.7546771E-02  0.1219346E+00
         21   -1    0    0  503  502  0.00000000000E+00  0.00000000000E+00  0.45222993055E+02  0.45222993055E+02  0.00000000000E+00 0.  1.
          2   -1    0    0  502    0 -0.00000000000E+00 -0.00000000000E+00 -0.48108166463E+03  0.48108166463E+03  0.00000000000E+00 0. -1.
         24    2    1    2    0    0 -0.38913671905E+02  0.19103159661E+02 -0.16700761818E+03  0.19044101483E+03  0.80604162603E+02 0.  0.
         23    2    1    2    0    0  0.11326839316E+02  0.26518525920E+02 -0.25810256913E+03  0.27309509682E+03  0.84453929531E+02 0.  0.
        -13    1    3    3    0    0 -0.39513712952E+02  0.48427596009E+00 -0.24018295775E+02  0.46243340779E+02  0.00000000000E+00 0.  1.
         14    1    3    3    0    0  0.60004104730E+00  0.18618883701E+02 -0.14298932241E+03  0.14419767405E+03  0.00000000000E+00 0. -1.
        -13    1    4    4    0    0  0.57667349116E+01 -0.29992072558E+02 -0.65016818725E+02  0.71832905864E+02  0.00000000000E+00 0. -1.
         13    1    4    4    0    0  0.55601044042E+01  0.56510598478E+02 -0.19308575040E+03  0.20126219096E+03  0.00000000000E+00 0.  1.
         21    1    1    2  503  501  0.15547660346E+01 -0.31893279661E+02 -0.94895663955E+01  0.33311416291E+02  0.00000000000E+00 0. -1.
          1    1    1    2  501    0  0.26032066555E+02 -0.13728405920E+02 -0.12589178705E+01  0.29457129738E+02  0.00000000000E+00 0. -1.
<scales pt_clust_5="13000.00000" pt_clust_6="13000.00000" pt_clust_7="13000.00000" pt_clust_8="13000.00000" pt_clust_9="31.93115" pt_clust_10="13000.00000"></scales>
<clustering>
<clus scale="   31.931">  1  9  2 -1</clus>
<clus scale="   80.604">  5  6 -1 -1</clus>
<clus scale="   84.454">  7  8 -1 -1</clus>
<clus scale="   38.127">  7 10 -1 -1</clus>
<clus scale="   89.617">  2  5  1 -1</clus>
<clus scale="   31.931">  1  5  2 -1</clus>
</clustering>
</event>
<event>
10    4  0.2565852E-005  0.2632675E+03  0.7546771E-02  0.1144162E+00
         21   -1    0    0  503  502  0.00000000000E+00  0.00000000000E+00  0.58541016693E+02  0.58541016693E+02  0.00000000000E+00 0. -1.
          2   -1    0    0  502    0 -0.00000000000E+00 -0.00000000000E+00 -0.81125591772E+03  0.81125591772E+03  0.00000000000E+00 0. -1.
         24    2    1    2    0    0  0.41417219554E+02 -0.38646294479E+02 -0.37420830730E+03  0.38719690505E+03  0.81735328212E+02 0.  0.
         23    2    1    2    0    0 -0.21164156679E+02 -0.60043046093E+02 -0.38883326474E+02  0.11824715307E+03  0.91746319924E+02 0.  0.
        -13    1    3    3    0    0  0.31055129146E+02  0.78534785796E+01 -0.49156299365E+02  0.58672309818E+02  0.00000000000E+00 0.  1.
         14    1    3    3    0    0  0.10362090408E+02 -0.46499773059E+02 -0.32505200793E+03  0.32852459523E+03  0.00000000000E+00 0. -1.
        -11    1    4    4    0    0 -0.22545759003E+02 -0.81341940724E+02 -0.45513583302E+02  0.95897387007E+02  0.00000000000E+00 0. -1.
         11    1    4    4    0    0  0.13816023237E+01  0.21298894631E+02  0.66302568284E+01  0.22349766064E+02  0.00000000000E+00 0.  1.
         21    1    1    2  503  501  0.27615226458E+02  0.16222158071E+02 -0.49462955584E+02  0.58926590941E+02  0.00000000000E+00 0. -1.
          1    1    1    2  501    0 -0.47868289334E+02  0.82467182501E+02 -0.29016031167E+03  0.30542628535E+03  0.00000000000E+00 0. -1.
<scales pt_clust_5="13000.00000" pt_clust_6="13000.00000" pt_clust_7="13000.00000" pt_clust_8="13000.00000" pt_clust_9="32.02747" pt_clust_10="13000.00000"></scales>
<clustering>
<clus scale="   32.027">  1  9  2 -1</clus>
<clus scale="   81.735">  5  6 -1 -1</clus>
<clus scale="   91.746">  7  8 -1 -1</clus>
<clus scale="   95.485">  7 10 -1 -1</clus>
<clus scale="  100.146">  2  5  1 -1</clus>
<clus scale="   32.027">  1  5  2 -1</clus>
</clustering>
</event>
<event>
10    4  0.2565852E-005  0.8048200E+03  0.7546771E-02  0.1009113E+00
         21   -1    0    0  501  502  0.00000000000E+00  0.00000000000E+00  0.57502461117E+03  0.57502461117E+03  0.00000000000E+00 0.  1.
          2   -1    0    0  503    0 -0.00000000000E+00 -0.00000000000E+00 -0.62461651985E+03  0.62461651985E+03  0.00000000000E+00 0. -1.
         24    2    1    2    0    0  0.33208639107E+02  0.10990194811E+03 -0.23310576994E+03  0.27196135139E+03  0.80270945933E+02 0.  0.
         23    2    1    2    0    0  0.91469596541E+02  0.33976457241E+03 -0.51183815756E+02  0.36690814307E+03  0.90527071631E+02 0.  0.
        -13    1    3    3    0    0  0.32071602049E+02  0.11499091867E+03 -0.23705663736E+03  0.26541919364E+03  0.00000000000E+00 0.  1.
         14    1    3    3    0    0  0.11370370586E+01 -0.50889705556E+01  0.39508674270E+01  0.65421577491E+01  0.00000000000E+00 0. -1.
        -11    1    4    4    0    0  0.10290858987E+03  0.25117903422E+03 -0.57129719195E+02  0.27738941926E+03  0.00000000000E+00 0.  1.
         11    1    4    4    0    0 -0.11438993330E+02  0.88585538193E+02  0.59459034397E+01  0.89518723813E+02  0.00000000000E+00 0. -1.
         21    1    1    2  503  502  0.14193295801E+02 -0.54805624472E+02  0.11051032134E+03  0.12416777860E+03  0.00000000000E+00 0.  1.
          1    1    1    2  501    0 -0.13887153145E+03 -0.39486089605E+03  0.12418735567E+03  0.43660385796E+03  0.00000000000E+00 0. -1.
<scales pt_clust_5="13000.00000" pt_clust_6="13000.00000" pt_clust_7="13000.00000" pt_clust_8="13000.00000" pt_clust_9="56.61366" pt_clust_10="13000.00000"></scales>
<clustering>
<clus scale="   56.614">  1  9  2 -1</clus>
<clus scale="   80.271">  5  6 -1 -1</clus>
<clus scale="   90.527">  7  8 -1 -1</clus>
<clus scale="  138.416">  2  5  1 -1</clus>
<clus scale="  393.168">  7 10 -1 -1</clus>
<clus scale="   56.614">  1  5  2 -1</clus>
</clustering>
</event>
<event>
10    4  0.2565852E-005  0.4674649E+03  0.7546771E-02  0.1068793E+00
          2   -1    0    0  502    0 -0.00000000000E+00  0.00000000000E+00  0.14886120853E+04  0.14886120853E+04  0.00000000000E+00 0. -1.
         21   -1    0    0  503  502  0.00000000000E+00 -0.00000000000E+00 -0.15394784206E+03  0.15394784206E+03  0.00000000000E+00 0. -1.
         24    2    1    2    0    0  0.19678716805E+02  0.83759345189E+02  0.11651325211E+03  0.16664471796E+03  0.82415073300E+02 0.  0.
         23    2    1    2    0    0  0.51667244292E+02  0.81496298358E+02  0.99167543892E+02  0.16578847647E+03  0.91326153925E+02 0.  0.
        -13    1    3    3    0    0  0.82800002445E+01  0.79432712078E+02  0.12735825152E+03  0.15032710461E+03  0.00000000000E+00 0.  1.
         14    1    3    3    0    0  0.11398716560E+02  0.43266331112E+01 -0.10844999408E+02  0.16317613351E+02  0.00000000000E+00 0. -1.
        -13    1    4    4    0    0  0.20527856722E+02 -0.18349298260E+02  0.28089888757E+02  0.39333592495E+02  0.00000000000E+00 0.  1.
         13    1    4    4    0    0  0.31139387570E+02  0.99845596617E+02  0.71077655135E+02  0.12645488398E+03  0.00000000000E+00 0. -1.
         21    1    1    2  503  501 -0.15537057502E+02  0.20043288793E+02 -0.86021182387E+02  0.89681533220E+02  0.00000000000E+00 0. -1.
          1    1    1    2  501    0 -0.55808903595E+02 -0.18529893234E+03  0.12050046296E+04  0.12204451997E+04  0.00000000000E+00 0. -1.
<scales pt_clust_5="13000.00000" pt_clust_6="13000.00000" pt_clust_7="13000.00000" pt_clust_8="13000.00000" pt_clust_9="25.36008" pt_clust_10="13000.00000"></scales>
<clustering>
<clus scale="   25.360">  2  9  1 -1</clus>
<clus scale="   82.415">  5  6 -1 -1</clus>
<clus scale="   91.326">  7  8 -1 -1</clus>
<clus scale="  123.811">  1  5  2 -1</clus>
<clus scale="  111.014">  7 10 -1 -1</clus>
<clus scale="   25.360">  2  5  1 -1</clus>
</clustering>
</event>
<event>
10    4  0.2565852E-005  0.2736599E+03  0.7546771E-02  0.1135370E+00
          4   -1    0    0  502    0 -0.00000000000E+00  0.00000000000E+00  0.87017293752E+03  0.87017293752E+03  0.00000000000E+00 0. -1.
         21   -1    0    0  503  502  0.00000000000E+00 -0.00000000000E+00 -0.22208777679E+03  0.22208777679E+03  0.00000000000E+00 0.  1.
         24    2    1    2    0    0  0.50300384115E+02  0.67507913979E+02  0.94382802735E+02  0.15044637676E+03  0.81477308101E+02 0.  0.
         23    2    1    2    0    0  0.45544077565E+02 -0.13191482866E+03  0.46764899989E+03  0.49633408784E+03  0.90422091520E+02 0.  0.
        -13    1    3    3    0    0  0.41521179713E+02 -0.64500841842E+01  0.26520714949E+02  0.49688633229E+02  0.00000000000E+00 0.  1.
         14    1    3    3    0    0  0.87792044016E+01  0.73957998163E+02  0.67862087786E+02  0.10075774353E+03  0.00000000000E+00 0. -1.
        -13    1    4    4    0    0  0.32273401078E+02 -0.67911207686E+00  0.64008399282E+02  0.71687577648E+02  0.00000000000E+00 0.  1.
         13    1    4    4    0    0  0.13270676486E+02 -0.13123571658E+03  0.40364060060E+03  0.42464651019E+03  0.00000000000E+00 0. -1.
         21    1    1    2  503  501 -0.20702536347E+02 -0.84625786005E+01 -0.16864014903E+03  0.17011675436E+03  0.00000000000E+00 0.  1.
          3    1    1    2  501    0 -0.75141925333E+02  0.72869493279E+02  0.25469350714E+03  0.27536349535E+03  0.00000000000E+00 0. -1.
<scales pt_clust_5="13000.00000" pt_clust_6="13000.00000" pt_clust_7="13000.00000" pt_clust_8="13000.00000" pt_clust_9="22.36538" pt_clust_10="13000.00000"></scales>
<clustering>
<clus scale="   22.365">  2  9  1 -1</clus>
<clus scale="   81.477">  5  6 -1 -1</clus>
<clus scale="   90.422">  7  8 -1 -1</clus>
<clus scale="  106.507">  7 10 -1 -1</clus>
<clus scale="  110.237">  1  5  2 -1</clus>
<clus scale="   22.365">  2  5  1 -1</clus>
</clustering>
</event>
<event>
10    4  0.2565852E-005  0.1963989E+03  0.7546771E-02  0.1182165E+00
          2   -1    0    0  503    0 -0.00000000000E+00  0.00000000000E+00  0.69153314487E+03  0.69153314487E+03  0.00000000000E+00 0. -1.
         21   -1    0    0  501  502  0.00000000000E+00 -0.00000000000E+00 -0.14684070509E+03  0.14684070509E+03  0.00000000000E+00 0.  1.
         24    2    1    2    0    0  0.36936895063E+02  0.36279427935E+02  0.21693825717E+03  0.23725318995E+03  0.80909440813E+02 0.  0.
         23    2    1    2    0    0 -0.76643138723E+02 -0.47388556924E+02  0.42907725761E+03  0.44752343758E+03  0.89722283431E+02 0.  0.
        -13    1    3    3    0    0 -0.19586066638E+02  0.26191925627E+02  0.42618324924E+02  0.53721062850E+02  0.00000000000E+00 0.  1.
         14    1    3    3    0    0  0.56522961701E+02  0.10087502308E+02  0.17431993224E+03  0.18353212710E+03  0.00000000000E+00 0. -1.
        -11    1    4    4    0    0 -0.29582854415E+02  0.16104095160E+02  0.49941962068E+02  0.60238581751E+02  0.00000000000E+00 0.  1.
         11    1    4    4    0    0 -0.47060284308E+02 -0.63492652084E+02  0.37913529554E+03  0.38728485582E+03  0.00000000000E+00 0. -1.
         21    1    1    2  503  502  0.67858135968E+01  0.24460580355E+02 -0.11329915444E+03  0.11610799134E+03  0.00000000000E+00 0.  1.
          1    1    1    2  501    0  0.32920430063E+02 -0.13351451366E+02  0.11976079442E+02  0.37489231093E+02  0.00000000000E+00 0. -1.
<scales pt_clust_5="13000.00000" pt_clust_6="13000.00000" pt_clust_7="13000.00000" pt_clust_8="13000.00000" pt_clust_9="25.38439" pt_clust_10="13000.00000"></scales>
<clustering>
<clus scale="   25.384">  2  9  1 -1</clus>
<clus scale="   80.909">  5  6 -1 -1</clus>
<clus scale="   89.722">  7  8 -1 -1</clus>
<clus scale="   35.800">  7 10 -1 -1</clus>
<clus scale="  100.053">  1  5  2 -1</clus>
<clus scale="   25.384">  2  5  1 -1</clus>
</clustering>
</event>
<event>
10    4  0.2565852E-005  0.2574499E+03  0.7546771E-02  0.1129076E+00
          2   -1    0    0  503    0 -0.00000000000E+00  0.00000000000E+00  0.11357005809E+04  0.11357005809E+04  0.00000000000E+00 0. -1.
         21   -1    0    0  501  502  0.00000000000E+00 -0.00000000000E+00 -0.91868284584E+02  0.91868284584E+02  0.00000000000E+00 0.  1.
         24    2    1    2    0    0 -0.12561341463E+03 -0.43852677887E+02  0.52142798253E+03  0.54443861641E+03  0.82610403621E+02 0.  0.
         23    2    1    2    0    0  0.76684890837E+02  0.43127165195E+02  0.13840474375E+03  0.18912017830E+03  0.94180910420E+02 0.  0.
        -11    1    3    3    0    0 -0.92826987620E+02 -0.67519209216E+02  0.41521140041E+03  0.43078556182E+03  0.00000000000E+00 0.  1.
         12    1    3    3    0    0 -0.32786427010E+02  0.23666531329E+02  0.10621658212E+03  0.11365305459E+03  0.00000000000E+00 0. -1.
        -13    1    4    4    0    0  0.73713002919E+02  0.65978083100E+02  0.83071299335E+02  0.12918031979E+03  0.00000000000E+00 0.  1.
         13    1    4    4    0    0  0.29718879181E+01 -0.22850917905E+02  0.55333444417E+02  0.59939858508E+02  0.00000000000E+00 0. -1.
         21    1    1    2  503  502 -0.79259354050E+00  0.31652262664E+02 -0.48305550691E+02  0.57757425184E+02  0.00000000000E+00 0.  1.
          1    1    1    2  501    0  0.49721117334E+02 -0.30926749971E+02  0.43230512077E+03  0.43625264562E+03  0.00000000000E+00 0. -1.
<scales pt_clust_5="13000.00000" pt_clust_6="13000.00000" pt_clust_7="13000.00000" pt_clust_8="13000.00000" pt_clust_9="31.66218" pt_clust_10="13000.00000"></scales>
<clustering>
<clus scale="   31.662">  2  9  1 -1</clus>
<clus scale="   82.610">  5  6 -1 -1</clus>
<clus scale="   94.181">  7  8 -1 -1</clus>
<clus scale="   57.687">  7 10 -1 -1</clus>
<clus scale="  154.437">  1  5  2 -1</clus>
<clus scale="   31.662">  2  5  1 -1</clus>
</clustering>
</event>
<event>
10    4  0.2565852E-005  0.2855717E+03  0.7546771E-02  0.1132477E+00
          2   -1    0    0  502    0 -0.00000000000E+00  0.00000000000E+00  0.90846921053E+03  0.90846921053E+03  0.00000000000E+00 0. -1.
         21   -1    0    0  503  502  0.00000000000E+00 -0.00000000000E+00 -0.16297490290E+03  0.16297490290E+03  0.00000000000E+00 0.  1.
         24    2    1    2    0    0  0.54331150836E+02 -0.36189486674E+02  0.14439095728E+03  0.17800570540E+03  0.81090873176E+02 0.  0.
         23    2    1    2    0    0  0.43298730117E+01 -0.10851086473E+03  0.30736802844E+03  0.33861223042E+03  0.91595753810E+02 0.  0.
        -13    1    3    3    0    0  0.48661505265E+02  0.11933421602E+02  0.10192915098E+03  0.11357772874E+03  0.00000000000E+00 0.  1.
         14    1    3    3    0    0  0.56696455715E+01 -0.48122908276E+02  0.42461806295E+02  0.64427976654E+02  0.00000000000E+00 0. -1.
        -13    1    4    4    0    0  0.37450430728E+02 -0.83169058239E+02  0.14775401552E+03  0.17364007634E+03  0.00000000000E+00 0.  1.
         13    1    4    4    0    0 -0.33120557716E+02 -0.25341806495E+02  0.15961401292E+03  0.16497215407E+03  0.00000000000E+00 0. -1.
         21    1    1    2  503  501 -0.69896092916E+02  0.25618645115E+03  0.28723177667E+02  0.26709919973E+03  0.00000000000E+00 0.  1.
          1    1    1    2  501    0  0.11235069068E+02 -0.11148609974E+03  0.26501214424E+03  0.28772697789E+03  0.00000000000E+00 0. -1.
<scales pt_clust_5="13000.00000" pt_clust_6="13000.00000" pt_clust_7="13000.00000" pt_clust_8="13000.00000" pt_clust_9="255.94995" pt_clust_10="13000.00000"></scales>
<clustering>
<clus scale="   81.091">  5  6 -1 -1</clus>
<clus scale="   91.596">  7  8 -1 -1</clus>
<clus scale="  104.102">  1  5  2 -1</clus>
<clus scale="  128.741">  7 10 -1 -1</clus>
<clus scale="  255.950">  2  9  1 -1</clus>
<clus scale="  255.950">  2  5  1 -1</clus>
</clustering>
</event>
<event>
10    4  0.2565852E-005  0.1881106E+03  0.7546771E-02  0.1190299E+00
          2   -1    0    0  503    0 -0.00000000000E+00  0.00000000000E+00  0.21668924435E+04  0.21668924435E+04  0.00000000000E+00 0. -1.
         21   -1    0    0  501  502  0.00000000000E+00 -0.00000000000E+00 -0.55142939145E+02  0.55142939145E+02  0.00000000000E+00 0.  1.
         24    2    1    2    0    0  0.46212783830E+02 -0.27020227462E+02  0.15955363290E+04  0.15985169609E+04  0.81575628629E+02 0.  0.
         23    2    1    2    0    0 -0.25738397136E+02 -0.81077656954E+02  0.43140358547E+03  0.44873623020E+03  0.89549423181E+02 0.  0.
        -13    1    3    3    0    0  0.18428653304E+02 -0.10788661207E+02  0.85115038499E+02  0.87752950104E+02  0.00000000000E+00 0.  1.
         14    1    3    3    0    0  0.27784130526E+02 -0.16231566256E+02  0.15104212905E+04  0.15107640108E+04  0.00000000000E+00 0. -1.
        -11    1    4    4    0    0 -0.42872828722E+02 -0.67113836789E+02  0.41103389938E+03  0.41867793466E+03  0.00000000000E+00 0. -1.
         11    1    4    4    0    0  0.17134431586E+02 -0.13963820165E+02  0.20369686094E+02  0.30058295542E+02  0.00000000000E+00 0.  1.
         21    1    1    2  503  502 -0.32355412824E+02  0.55821173486E+02 -0.10558789495E+02  0.65378621766E+02  0.00000000000E+00 0.  1.
          1    1    1    2  501    0  0.11881026129E+02  0.52276710930E+02  0.95368379446E+02  0.10940356980E+03  0.00000000000E+00 0. -1.
<scales pt_clust_5="13000.00000" pt_clust_6="13000.00000" pt_clust_7="13000.00000" pt_clust_8="13000.00000" pt_clust_9="64.52035" pt_clust_10="13000.00000"></scales>
<clustering>
<clus scale="   64.520">  2  9  1 -1</clus>
<clus scale="   81.576">  5  6 -1 -1</clus>
<clus scale="   89.549">  7  8 -1 -1</clus>
<clus scale="   75.098">  7 10 -1 -1</clus>
<clus scale="   95.028">  1  5  2 -1</clus>
<clus scale="   64.520">  2  5  1 -1</clus>
</clustering>
</event>
<event>
10    4  0.2565852E-005  0.3004381E+03  0.7546771E-02  0.1130375E+00
         21   -1    0    0  501  502  0.00000000000E+00  0.00000000000E+00  0.45597112009E+03  0.45597112009E+03  0.00000000000E+00 0.  1.
          2   -1    0    0  503    0 -0.00000000000E+00 -0.00000000000E+00 -0.31208029504E+03  0.31208029504E+03  0.00000000000E+00 0. -1.
         24    2    1    2    0    0  0.31890546687E+02  0.41277022240E+02  0.83245278910E+02  0.12771650424E+03  0.81614517469E+02 0.  0.
         23    2    1    2    0    0  0.94136839841E+02 -0.63955607268E+02 -0.23063073349E+03  0.27241465861E+03  0.89817296091E+02 0.  0.
        -11    1    3    3    0    0  0.24438241195E+02  0.62210252363E+02  0.81537107983E+02  0.10543075031E+03  0.00000000000E+00 0.  1.
         12    1    3    3    0    0  0.74523054912E+01 -0.20933230123E+02  0.17081709271E+01  0.22285753935E+02  0.00000000000E+00 0. -1.
        -13    1    4    4    0    0  0.64389067251E+02 -0.86002533229E+02 -0.16106578878E+03  0.19360933866E+03  0.00000000000E+00 0. -1.
         13    1    4    4    0    0  0.29747772590E+02  0.22046925961E+02 -0.69564944715E+02  0.78805319944E+02  0.00000000000E+00 0.  1.
         21    1    1    2  503  502 -0.34976756427E+02  0.71333354233E+01  0.27101531266E+03  0.27335610046E+03  0.00000000000E+00 0.  1.
          1    1    1    2  501    0 -0.91050630100E+02  0.15545249605E+02  0.20260966981E+02  0.94564151823E+02  0.00000000000E+00 0. -1.
<scales pt_clust_5="13000.00000" pt_clust_6="13000.00000" pt_clust_7="13000.00000" pt_clust_8="13000.00000" pt_clust_9="35.69675" pt_clust_10="13000.00000"></scales>
<clustering>
<clus scale="   35.697">  1  9  2 -1</clus>
<clus scale="   81.615">  5  6 -1 -1</clus>
<clus scale="   89.817">  7  8 -1 -1</clus>
<clus scale="   94.123">  2  5  1 -1</clus>
<clus scale="  103.168">  7 10 -1 -1</clus>
<clus scale="   35.697">  1  5  2 -1</clus>
</clustering>
</event>
<event>
10    4  0.2565852E-005  0.4256021E+03  0.7546771E-02  0.1083860E+00
         21   -1    0    0  503  502  0.00000000000E+00  0.00000000000E+00  0.16661516444E+03  0.16661516444E+03  0.00000000000E+00 0.  1.
         -1   -1    0    0    0  501 -0.00000000000E+00 -0.00000000000E+00 -0.64428647872E+03  0.64428647872E+03  0.00000000000E+00 0.  1.
         24    2    1    2    0    0  0.18729569499E+02 -0.63817613820E+02 -0.26147927111E+03  0.28411544581E+03  0.89031975823E+02 0.  0.
         23    2    1    2    0    0  0.10605249732E+03 -0.15359463970E+03 -0.49537861262E+02  0.21353250699E+03  0.91124564804E+02 0.  0.
        -11    1    3    3    0    0  0.39154619555E+02 -0.18250450719E+02 -0.20145951296E+03  0.20603907044E+03  0.00000000000E+00 0.  1.
         12    1    3    3    0    0 -0.20425050057E+02 -0.45567163101E+02 -0.60019758155E+02  0.78076375376E+02  0.00000000000E+00 0. -1.
        -13    1    4    4    0    0  0.11884958942E+03 -0.12026723748E+03 -0.26769421218E+02  0.17119005587E+03  0.00000000000E+00 0.  1.
         13    1    4    4    0    0 -0.12797092098E+02 -0.33327402227E+02 -0.22768440044E+02  0.42342451126E+02  0.00000000000E+00 0. -1.
         21    1    1    2  503  501  0.55477220110E+01  0.53285982394E+02 -0.50578014579E+02  0.73677056795E+02  0.00000000000E+00 0.  1.
         -2    1    1    2    0  502 -0.13032978883E+03  0.16412627113E+03 -0.11607616732E+03  0.23957663357E+03  0.00000000000E+00 0.  1.
<scales pt_clust_5="13000.00000" pt_clust_6="13000.00000" pt_clust_7="13000.00000" pt_clust_8="13000.00000" pt_clust_9="53.57402" pt_clust_10="13000.00000"></scales>
<clustering>
<clus scale="   53.574">  1  9  2 -1</clus>
<clus scale="   89.032">  5  6 -1 -1</clus>
<clus scale="   91.125">  7  8 -1 -1</clus>
<clus scale="  109.015">  2  5  1 -1</clus>
<clus scale="  189.599">  7 10 -1 -1</clus>
<clus scale="   53.574">  1  5  2 -1</clus>
</clustering>
</event>
<event>
10    4  0.4156144E-005  0.2127988E+03  0.7546771E-02  0.1176931E+00
         21   -1    0    0  501  502  0.00000000000E+00  0.00000000000E+00  0.28192972130E+03  0.28192972130E+03  0.00000000000E+00 0.  1.
          2   -1    0    0  503    0 -0.00000000000E+00 -0.00000000000E+00 -0.64950466490E+03  0.64950466490E+03  0.00000000000E+00 0. -1.
         24    2    1    2    0    0 -0.25437345689E+02 -0.37748656876E+01 -0.15044352197E+03  0.17257558739E+03  0.80546706294E+02 0.  0.
         23    2    1    2    0    0  0.43860189135E+02 -0.65246280158E+00 -0.44145609851E+03  0.45276922599E+03  0.90511563896E+02 0.  0.
        -11    1    3    3    0    0 -0.32107053315E+02 -0.37337881322E+02 -0.10199994461E+03  0.11326503854E+03  0.00000000000E+00 0.  1.
         12    1    3    3    0    0  0.66697076251E+01  0.33563015634E+02 -0.48443577356E+02  0.59310548854E+02  0.00000000000E+00 0. -1.
        -13    1    4    4    0    0  0.67413802704E+02 -0.19313836167E+01 -0.39447958570E+03  0.40020306666E+03  0.00000000000E+00 0. -1.
         13    1    4    4    0    0 -0.23553613569E+02  0.12789208151E+01 -0.46976512812E+02  0.52566159329E+02  0.00000000000E+00 0.  1.
         21    1    1    2  503  502 -0.28545923454E+02  0.57707625141E+02  0.24091974260E+03  0.24937394034E+03  0.00000000000E+00 0.  1.
          1    1    1    2  501    0  0.10123080008E+02 -0.53280296652E+02 -0.16595065721E+02  0.56715632470E+02  0.00000000000E+00 0. -1.
<scales pt_clust_5="13000.00000" pt_clust_6="13000.00000" pt_clust_7="13000.00000" pt_clust_8="13000.00000" pt_clust_9="64.38198" pt_clust_10="13000.00000"></scales>
<clustering>
<clus scale="   64.382">  1  9  2 -1</clus>
<clus scale="   80.547">  5  6 -1 -1</clus>
<clus scale="   88.488">  2  5  1 -1</clus>
<clus scale="   90.512">  7  8 -1 -1</clus>
<clus scale="   22.302">  7 10 -1 -1</clus>
<clus scale="   64.382">  1  5  2 -1</clus>
</clustering>
</event>
<event>
10    4  0.2565852E-005  0.1740960E+03  0.7546771E-02  0.1204371E+00
          2   -1    0    0  502    0 -0.00000000000E+00  0.00000000000E+00  0.47812458798E+03  0.47812458798E+03  0.00000000000E+00 0. -1.
         21   -1    0    0  503  502  0.00000000000E+00 -0.00000000000E+00 -0.95245782759E+02  0.95245782759E+02  0.00000000000E+00 0.  1.
         24    2    1    2    0    0 -0.11829262595E+02  0.20881270107E+02  0.52752880787E+02  0.10039292730E+03  0.81975084792E+02 0.  0.
         23    2    1    2    0    0 -0.31962538036E+02  0.10033976807E+02  0.25525068382E+03  0.27272567598E+03  0.90022765018E+02 0.  0.
        -11    1    3    3    0    0  0.13639758344E+02  0.30137440879E+02 -0.78572353637E+01  0.34000654375E+02  0.00000000000E+00 0.  1.
         12    1    3    3    0    0 -0.25469020938E+02 -0.92561707715E+01  0.60610116151E+02  0.66392272929E+02  0.00000000000E+00 0. -1.
        -11    1    4    4    0    0  0.29586186170E+02 -0.26865882496E+01  0.50974687876E+02  0.58999821801E+02  0.00000000000E+00 0. -1.
         11    1    4    4    0    0 -0.61548724206E+02  0.12720565057E+02  0.20427599594E+03  0.21372585418E+03  0.00000000000E+00 0.  1.
         21    1    1    2  503  501 -0.27682252503E+02 -0.51924186892E+01 -0.48081258730E+02  0.55723206625E+02  0.00000000000E+00 0.  1.
          1    1    1    2  501    0  0.71474053134E+02 -0.25722828225E+02  0.12295649934E+03  0.14452856083E+03  0.00000000000E+00 0. -1.
<scales pt_clust_5="13000.00000" pt_clust_6="13000.00000" pt_clust_7="13000.00000" pt_clust_8="13000.00000" pt_clust_9="28.16502" pt_clust_10="13000.00000"></scales>
<clustering>
<clus scale="   28.165">  2  9  1 -1</clus>
<clus scale="   81.975">  5  6 -1 -1</clus>
<clus scale="   88.183">  1  5  2 -1</clus>
<clus scale="   90.023">  7  8 -1 -1</clus>
<clus scale="   60.656">  7 10 -1 -1</clus>
<clus scale="   28.165">  2  5  1 -1</clus>
</clustering>
</event>
<event>
10    4  0.2565852E-005  0.2110013E+03  0.7546771E-02  0.1162502E+00
         21   -1    0    0  501  502  0.00000000000E+00  0.00000000000E+00  0.22454131966E+03  0.22454131966E+03  0.00000000000E+00 0.  1.
          2   -1    0    0  503    0 -0.00000000000E+00 -0.00000000000E+00 -0.47029823407E+03  0.47029823407E+03  0.00000000000E+00 0. -1.
         24    2    1    2    0    0 -0.10795627173E+03 -0.78456227196E+02  0.91165307967E+02  0.18031273578E+03  0.79947689889E+02 0.  0.
         23    2    1    2    0    0 -0.89963642308E+01 -0.17355499414E+02 -0.15005505312E+03  0.17744060313E+03  0.92663373248E+02 0.  0.
        -13    1    3    3    0    0 -0.74005219751E+01 -0.50445253711E+02  0.34238839362E+02  0.61414896143E+02  0.00000000000E+00 0.  1.
         14    1    3    3    0    0 -0.10055574975E+03 -0.28010973485E+02  0.56926468605E+02  0.11889783964E+03  0.00000000000E+00 0. -1.
        -11    1    4    4    0    0 -0.40698122136E+02 -0.17529638604E+02 -0.30602824975E+02  0.53853117565E+02  0.00000000000E+00 0.  1.
         11    1    4    4    0    0  0.31701757905E+02  0.17413919068E+00 -0.11945222814E+03  0.12358748556E+03  0.00000000000E+00 0. -1.
         21    1    1    2  503  502  0.89227453696E+02 -0.15897153716E+02  0.26695640352E+02  0.94482353925E+02  0.00000000000E+00 0.  1.
          1    1    1    2  501    0  0.27725182261E+02  0.11170888033E+03 -0.21356280960E+03  0.24260386089E+03  0.00000000000E+00 0. -1.
<scales pt_clust_5="13000.00000" pt_clust_6="13000.00000" pt_clust_7="13000.00000" pt_clust_8="13000.00000" pt_clust_9="90.63254" pt_clust_10="13000.00000"></scales>
<clustering>
<clus scale="   79.948">  5  6 -1 -1</clus>
<clus scale="   90.633">  1  9  2 -1</clus>
<clus scale="   92.663">  7  8 -1 -1</clus>
<clus scale="  115.912">  7 10 -1 -1</clus>
<clus scale="  126.282">  2  5  1 -1</clus>
<clus scale="   90.633">  1  5  2 -1</clus>
</clustering>
</event>
<event>
10    4  0.2565852E-005  0.1656588E+03  0.7546771E-02  0.1210034E+00
         21   -1    0    0  503  502  0.00000000000E+00  0.00000000000E+00  0.10531253418E+03  0.10531253418E+03  0.00000000000E+00 0. -1.
          2   -1    0    0  502    0 -0.00000000000E+00 -0.00000000000E+00 -0.70199747068E+03  0.70199747068E+03  0.00000000000E+00 0. -1.
         24    2    1    2    0    0 -0.25335841205E+02  0.23885527736E+02 -0.15342986344E+03  0.17701228518E+03  0.81118449362E+02 0.  0.
         23    2    1    2    0    0  0.36349051303E+02 -0.36804819931E+02 -0.51163140130E+03  0.52231043593E+03  0.91463940333E+02 0.  0.
        -13    1    3    3    0    0 -0.18642318413E+02  0.52373447023E+02 -0.12199471135E+03  0.13406425171E+03  0.00000000000E+00 0.  1.
         14    1    3    3    0    0 -0.66935227912E+01 -0.28487919287E+02 -0.31435152088E+02  0.42948033476E+02  0.00000000000E+00 0. -1.
        -11    1    4    4    0    0  0.58900216585E+02 -0.51371253049E+02 -0.37192563927E+03  0.38004857886E+03  0.00000000000E+00 0.  1.
         11    1    4    4    0    0 -0.22551165282E+02  0.14566433118E+02 -0.13970576203E+03  0.14226185706E+03  0.00000000000E+00 0. -1.
         21    1    1    2  503  501  0.10259165065E+02  0.23293220797E+02  0.78293200301E+02  0.82326483080E+02  0.00000000000E+00 0. -1.
          1    1    1    2  501    0 -0.21272375164E+02 -0.10373928603E+02 -0.99168720621E+01  0.25660800674E+02  0.00000000000E+00 0. -1.
<scales pt_clust_5="13000.00000" pt_clust_6="13000.00000" pt_clust_7="13000.00000" pt_clust_8="13000.00000" pt_clust_9="25.45240" pt_clust_10="13000.00000"></scales>
<clustering>
<clus scale="   25.452">  1  9  2 -1</clus>
<clus scale="   81.118">  5  6 -1 -1</clus>
<clus scale="   90.644">  2  5  1 -1</clus>
<clus scale="   91.464">  7  8 -1 -1</clus>
<clus scale="   18.691">  7 10 -1 -1</clus>
<clus scale="   25.452">  1  5  2 -1</clus>
</clustering>
</event>
<event>
10    4  0.2565852E-005  0.2195752E+03  0.7546771E-02  0.1172771E+00
          2   -1    0    0  502    0 -0.00000000000E+00  0.00000000000E+00  0.14716517364E+03  0.14716517364E+03  0.00000000000E+00 0. -1.
         21   -1    0    0  503  502  0.00000000000E+00 -0.00000000000E+00 -0.20131335825E+03  0.20131335825E+03  0.00000000000E+00 0. -1.
         24    2    1    2    0    0  0.31846402400E+02 -0.24051184756E+02 -0.28378926960E+01  0.89950248844E+02  0.80562651385E+02 0.  0.
         23    2    1    2    0    0  0.34097729884E+02 -0.70942999637E+02 -0.36772588008E+02  0.12590090514E+03  0.91122172411E+02 0.  0.
        -11    1    3    3    0    0  0.25011452395E+02 -0.52352270329E+02  0.86299441444E+01  0.58658408566E+02  0.00000000000E+00 0.  1.
         12    1    3    3    0    0  0.68349500048E+01  0.28301085574E+02 -0.11467836840E+02  0.31291840278E+02  0.00000000000E+00 0. -1.
        -13    1    4    4    0    0  0.40641529612E+02 -0.90770648025E+02 -0.28663046251E+02  0.10350176178E+03  0.00000000000E+00 0. -1.
         13    1    4    4    0    0 -0.65437997279E+01  0.19827648387E+02 -0.81095417568E+01  0.22399143353E+02  0.00000000000E+00 0.  1.
         21    1    1    2  503  501  0.43683045947E+01  0.30180318271E+02 -0.20611044413E+02  0.36806913043E+02  0.00000000000E+00 0. -1.
          1    1    1    2  501    0 -0.70312436878E+02  0.64813866122E+02  0.60733405033E+01  0.95820464862E+02  0.00000000000E+00 0. -1.
<scales pt_clust_5="13000.00000" pt_clust_6="13000.00000" pt_clust_7="13000.00000" pt_clust_8="13000.00000" pt_clust_9="30.49481" pt_clust_10="13000.00000"></scales>
<clustering>
<clus scale="   30.495">  2  9  1 -1</clus>
<clus scale="   80.563">  5  6 -1 -1</clus>
<clus scale="   88.514">  1  5  2 -1</clus>
<clus scale="   91.122">  7  8 -1 -1</clus>
<clus scale="   81.282">  7 10 -1 -1</clus>
<clus scale="   30.495">  2  5  1 -1</clus>
</clustering>
</event>
<event>
10    4  0.2565852E-005  0.3205730E+03  0.7546771E-02  0.1126313E+00
         -1   -1    0    0    0  501 -0.00000000000E+00  0.00000000000E+00  0.40102464002E+03  0.40102464002E+03  0.00000000000E+00 0.  1.
         21   -1    0    0  501  502  0.00000000000E+00 -0.00000000000E+00 -0.13390700445E+03  0.13390700445E+03  0.00000000000E+00 0.  1.
         24    2    1    2    0    0  0.21371308018E+02  0.35718672031E+02  0.12002496717E+03  0.14831265556E+03  0.76538191240E+02 0.  0.
         23    2    1    2    0    0  0.76906175681E+02  0.10039610561E+03  0.20000585960E+02  0.15665444141E+03  0.90258809504E+02 0.  0.
        -11    1    3    3    0    0  0.21569706197E+02  0.55328683956E+02  0.11268109960E+03  0.12737168327E+03  0.00000000000E+00 0.  1.
         12    1    3    3    0    0 -0.19839817879E+00 -0.19610011925E+02  0.73438675735E+01  0.20940972290E+02  0.00000000000E+00 0. -1.
        -13    1    4    4    0    0  0.15538672881E+02  0.91472244303E+02  0.53638768368E+01  0.92937575864E+02  0.00000000000E+00 0.  1.
         13    1    4    4    0    0  0.61367502800E+02  0.89238613118E+01  0.14636709123E+02  0.63716865542E+02  0.00000000000E+00 0. -1.
         21    1    1    2  503  502 -0.15176279021E+02 -0.20682449881E+02 -0.14333828518E+02  0.29386082046E+02  0.00000000000E+00 0.  1.
         -2    1    1    2    0  503 -0.83101204677E+02 -0.11543232776E+03  0.14142591096E+03  0.20057846545E+03  0.00000000000E+00 0.  1.
<scales pt_clust_5="13000.00000" pt_clust_6="13000.00000" pt_clust_7="13000.00000" pt_clust_8="13000.00000" pt_clust_9="25.65313" pt_clust_10="13000.00000"></scales>
<clustering>
<clus scale="   25.653">  2  9  1 -1</clus>
<clus scale="   76.538">  5  6 -1 -1</clus>
<clus scale="   85.631">  1  5  2 -1</clus>
<clus scale="   90.259">  7  8 -1 -1</clus>
<clus scale="  122.244">  7 10 -1 -1</clus>
<clus scale="   25.653">  2  5  1 -1</clus>
</clustering>
</event>
<event>
10    4  0.2565852E-005  0.9241578E+03  0.7546771E-02  0.1008250E+00
         21   -1    0    0  503  502  0.00000000000E+00  0.00000000000E+00  0.33630243462E+03  0.33630243462E+03  0.00000000000E+00 0. -1.
          2   -1    0    0  502    0 -0.00000000000E+00 -0.00000000000E+00 -0.10090016589E+04  0.10090016589E+04  0.00000000000E+00 0. -1.
         24    2    1    2    0    0 -0.23736004442E+02 -0.42445179373E+02 -0.32045371868E+03  0.33399176054E+03  0.80591061111E+02 0.  0.
         23    2    1    2    0    0 -0.31235804201E+03 -0.29003511585E+03 -0.40645521072E+02  0.43974991996E+03  0.10019989465E+03 0.  0.
        -13    1    3    3    0    0  0.23929031649E+02  0.47278312214E+01 -0.54428456195E+02  0.59644008815E+02  0.00000000000E+00 0.  1.
         14    1    3    3    0    0 -0.47665036091E+02 -0.47173010594E+02 -0.26602526249E+03  0.27434775172E+03  0.00000000000E+00 0. -1.
        -11    1    4    4    0    0 -0.18132602443E+02 -0.59499469473E+02  0.83814707972E+01  0.62763263074E+02  0.00000000000E+00 0.  1.
         11    1    4    4    0    0 -0.29422543957E+03 -0.23053564638E+03 -0.49026991870E+02  0.37698665689E+03  0.00000000000E+00 0. -1.
         21    1    1    2  503  501  0.15077143955E+02  0.16095477308E+02  0.24922019461E+01  0.22194497746E+02  0.00000000000E+00 0.  1.
          1    1    1    2  501    0  0.32101690250E+03  0.31638481792E+03 -0.31409218643E+03  0.54936791522E+03  0.00000000000E+00 0. -1.
<scales pt_clust_5="13000.00000" pt_clust_6="13000.00000" pt_clust_7="13000.00000" pt_clust_8="13000.00000" pt_clust_9="22.05413" pt_clust_10="13000.00000"></scales>
<clustering>
<clus scale="   22.054">  1  9  2 -1</clus>
<clus scale="   80.591">  5  6 -1 -1</clus>
<clus scale="   93.897">  2  5  1 -1</clus>
<clus scale="  100.200">  7  8 -1 -1</clus>
<clus scale="  428.323">  7 10 -1 -1</clus>
<clus scale="   22.054">  1  5  2 -1</clus>
</clustering>
</event>
<event>
10    4  0.2565852E-005  0.6893581E+03  0.7546771E-02  0.1005809E+00
          2   -1    0    0  503    0 -0.00000000000E+00  0.00000000000E+00  0.21857222332E+04  0.21857222332E+04  0.00000000000E+00 0. -1.
         21   -1    0    0  501  502  0.00000000000E+00 -0.00000000000E+00 -0.13776054820E+03  0.13776054820E+03  0.00000000000E+00 0. -1.
         24    2    1    2    0    0  0.49670512112E+02  0.21055339604E+03  0.60301838734E+03  0.64527233300E+03  0.77105874711E+02 0.  0.
         23    2    1    2    0    0 -0.22953482861E+03  0.15752641043E+03  0.47242401360E+03  0.55581482751E+03  0.90801246307E+02 0.  0.
        -13    1    3    3    0    0  0.23701111118E+02  0.20607969703E+02  0.42295119623E+02  0.52681194248E+02  0.00000000000E+00 0.  1.
         14    1    3    3    0    0  0.25969400994E+02  0.18994542634E+03  0.56072326771E+03  0.59259113876E+03  0.00000000000E+00 0. -1.
        -11    1    4    4    0    0 -0.44753113507E+02 -0.67109005193E+01  0.63660441964E+02  0.78105884704E+02  0.00000000000E+00 0.  1.
         11    1    4    4    0    0 -0.18478171510E+03  0.16423731095E+03  0.40876357163E+03  0.47770894280E+03  0.00000000000E+00 0. -1.
         21    1    1    2  503  502  0.11785894713E+03  0.53922547273E+02  0.17238572311E+03  0.21567385111E+03  0.00000000000E+00 0.  1.
          1    1    1    2  501    0  0.62005369367E+02 -0.42200235375E+03  0.80013356097E+03  0.90672176978E+03  0.00000000000E+00 0. -1.
<scales pt_clust_5="13000.00000" pt_clust_6="13000.00000" pt_clust_7="13000.00000" pt_clust_8="13000.00000" pt_clust_9="129.60854" pt_clust_10="13000.00000"></scales>
<clustering>
<clus scale="   77.106">  5  6 -1 -1</clus>
<clus scale="   90.801">  7  8 -1 -1</clus>
<clus scale="  129.609">  2  9  1 -1</clus>
<clus scale="  244.055">  1  5  2 -1</clus>
<clus scale="  307.555">  7 10 -1 -1</clus>
<clus scale="  129.609">  2  5  1 -1</clus>
</clustering>
</event>
<event>
10    4  0.2565852E-005  0.4687187E+03  0.7546771E-02  0.1076892E+00
         21   -1    0    0  503  502  0.00000000000E+00  0.00000000000E+00  0.35319956313E+03  0.35319956313E+03  0.00000000000E+00 0. -1.
          2   -1    0    0  502    0 -0.00000000000E+00 -0.00000000000E+00 -0.93715203940E+03  0.93715203940E+03  0.00000000000E+00 0. -1.
         24    2    1    2    0    0 -0.44387147787E+02  0.92641265533E+01 -0.13010261736E+03  0.16315414309E+03  0.87387301333E+02 0.  0.
         23    2    1    2    0    0  0.47192822037E+02  0.25588460994E+03 -0.24738735945E+03  0.37239498173E+03  0.98860612702E+02 0.  0.
        -11    1    3    3    0    0 -0.24052360484E+02 -0.39142799941E+02 -0.61469560815E+02  0.76741004286E+02  0.00000000000E+00 0.  1.
         12    1    3    3    0    0 -0.20334787303E+02  0.48406926495E+02 -0.68633056549E+02  0.86413138807E+02  0.00000000000E+00 0. -1.
        -11    1    4    4    0    0  0.32480556680E+02  0.24037722949E+03 -0.18099775700E+03  0.30264895020E+03  0.00000000000E+00 0.  1.
         11    1    4    4    0    0  0.14712265357E+02  0.15507380451E+02 -0.66389602444E+02  0.69746031522E+02  0.00000000000E+00 0. -1.
         21    1    1    2  503  501 -0.57475707231E+01 -0.13888240026E+03  0.24735610054E+03  0.28373649068E+03  0.00000000000E+00 0. -1.
          1    1    1    2  501    0  0.29418964728E+01 -0.12626633624E+03 -0.45381860000E+03  0.47106598703E+03  0.00000000000E+00 0. -1.
<scales pt_clust_5="13000.00000" pt_clust_6="13000.00000" pt_clust_7="13000.00000" pt_clust_8="13000.00000" pt_clust_9="138.83434" pt_clust_10="13000.00000"></scales>
<clustering>
<clus scale="   87.387">  5  6 -1 -1</clus>
<clus scale="   98.451">  2  5  1 -1</clus>
<clus scale="   98.861">  7  8 -1 -1</clus>
<clus scale="  123.021">  7 10 -1 -1</clus>
<clus scale="  138.834">  1  9  2 -1</clus>
<clus scale="  138.834">  1  5  2 -1</clus>
</clustering>
</event>
<event>
10    4  0.2565852E-005  0.4276906E+03  0.7546771E-02  0.1060057E+00
         21   -1    0    0  501  502  0.00000000000E+00  0.00000000000E+00  0.11674876712E+03  0.11674876712E+03  0.00000000000E+00 0.  1.
         -3   -1    0    0    0  501 -0.00000000000E+00 -0.00000000000E+00 -0.13750311851E+04  0.13750311851E+04  0.00000000000E+00 0.  1.
         24    2    1    2    0    0  0.29975050745E+02  0.14209433215E+03 -0.11909150718E+03  0.20387513891E+03  0.79328319565E+02 0.  0.
         23    2    1    2    0    0  0.18430360663E+03 -0.16923520369E+03 -0.35746593920E+03  0.44622932013E+03  0.93436260978E+02 0.  0.
        -11    1    3    3    0    0  0.36165147403E+02  0.93464442647E+02 -0.34285541718E+02  0.10591986734E+03  0.00000000000E+00 0.  1.
         12    1    3    3    0    0 -0.61900966584E+01  0.48629889503E+02 -0.84805965465E+02  0.97955271568E+02  0.00000000000E+00 0. -1.
        -13    1    4    4    0    0  0.83728145534E+02 -0.13025550049E+03 -0.17002678062E+03  0.22996957166E+03  0.00000000000E+00 0.  1.
         13    1    4    4    0    0  0.10057546110E+03 -0.38979703201E+02 -0.18743915858E+03  0.21625974846E+03  0.00000000000E+00 0. -1.
         21    1    1    2  503  502 -0.82491396364E+02  0.11027717647E+03 -0.22725141033E+03  0.26572370918E+03  0.00000000000E+00 0.  1.
         -4    1    1    2    0  503 -0.13178726101E+03 -0.83136304928E+02 -0.55447356127E+03  0.57595178402E+03  0.00000000000E+00 0.  1.
<scales pt_clust_5="13000.00000" pt_clust_6="13000.00000" pt_clust_7="13000.00000" pt_clust_8="13000.00000" pt_clust_9="137.71676" pt_clust_10="13000.00000"></scales>
<clustering>
<clus scale="   79.328">  5  6 -1 -1</clus>
<clus scale="   93.436">  7  8 -1 -1</clus>
<clus scale="  137.717">  1  9  2 -1</clus>
<clus scale="  157.749">  7 10 -1 -1</clus>
<clus scale="  206.012">  2  5  1 -1</clus>
<clus scale="  137.717">  1  5  2 -1</clus>
</clustering>
</event>
<event>
10    4  0.2565852E-005  0.4900469E+03  0.7546771E-02  0.1036972E+00
          2   -1    0    0  503    0 -0.00000000000E+00  0.00000000000E+00  0.81099991517E+03  0.81099991517E+03  0.00000000000E+00 0. -1.
         21   -1    0    0  501  502  0.00000000000E+00 -0.00000000000E+00 -0.78835730170E+03  0.78835730170E+03  0.00000000000E+00 0. -1.
         24    2    1    2    0    0 -0.17690323485E+03 -0.12107415407E+03  0.10815331505E+03  0.25318920819E+03  0.80336357283E+02 0.  0.
         23    2    1    2    0    0 -0.59661244805E+02 -0.35491524073E+02  0.25406011589E+02  0.11339533179E+03  0.85987926090E+02 0.  0.
        -11    1    3    3    0    0 -0.11758468803E+03 -0.32347723576E+02  0.63513558927E+02  0.13750093180E+03  0.00000000000E+00 0.  1.
         12    1    3    3    0    0 -0.59318546820E+02 -0.88726430498E+02  0.44639756118E+02  0.11568827638E+03  0.00000000000E+00 0. -1.
        -13    1    4    4    0    0 -0.13280896344E+02 -0.15250857606E+02  0.52310331718E+02  0.56083345744E+02  0.00000000000E+00 0.  1.
         13    1    4    4    0    0 -0.46380348461E+02 -0.20240666467E+02 -0.26904320130E+02  0.57311986042E+02  0.00000000000E+00 0. -1.
         21    1    1    2  503  502 -0.12344007205E+03  0.18836531143E+02 -0.59841314763E+03  0.61130234872E+03  0.00000000000E+00 0. -1.
          1    1    1    2  501    0  0.36000455170E+03  0.13772914700E+03  0.48749643447E+03  0.62147032817E+03  0.00000000000E+00 0. -1.
<scales pt_clust_5="13000.00000" pt_clust_6="13000.00000" pt_clust_7="13000.00000" pt_clust_8="13000.00000" pt_clust_9="124.86900" pt_clust_10="13000.00000"></scales>
<clustering>
<clus scale="   80.336">  5  6 -1 -1</clus>
<clus scale="   85.988">  7  8 -1 -1</clus>
<clus scale="  124.869">  2  9  1 -1</clus>
<clus scale="  265.141">  1  5  2 -1</clus>
<clus scale="  141.426">  7 10 -1 -1</clus>
<clus scale="  124.869">  2  5  1 -1</clus>
</clustering>
</event>
<event>
10    4  0.2565852E-005  0.2070609E+03  0.7546771E-02  0.1180032E+00
         21   -1    0    0  501  502  0.00000000000E+00  0.00000000000E+00  0.19503190826E+03  0.19503190826E+03  0.00000000000E+00 0. -1.
          2   -1    0    0  503    0 -0.00000000000E+00 -0.00000000000E+00 -0.15696668471E+03  0.15696668471E+03  0.00000000000E+00 0. -1.
         24    2    1    2    0    0 -0.22034251496E+02  0.12233739106E+02 -0.23530021739E+02  0.90368974171E+02  0.83532729862E+02 0.  0.
         23    2    1    2    0    0 -0.10141324678E+00  0.56454117963E+02  0.75158844176E+01  0.10615576183E+03  0.89585040775E+02 0.  0.
        -11    1    3    3    0    0  0.28317024586E+02  0.22078786949E+02 -0.83441726180E+01  0.36863965213E+02  0.00000000000E+00 0.  1.
         12    1    3    3    0    0 -0.50351276082E+02 -0.98450478426E+01 -0.15185849121E+02  0.53505008959E+02  0.00000000000E+00 0. -1.
        -13    1    4    4    0    0 -0.10607583072E+02  0.73572566189E+02  0.26109315648E+02  0.78785402695E+02  0.00000000000E+00 0. -1.
         13    1    4    4    0    0  0.10506169825E+02 -0.17118448226E+02 -0.18593431230E+02  0.27370359131E+02  0.00000000000E+00 0.  1.
         21    1    1    2  503  502 -0.21889645848E+02  0.28274217185E+02  0.29081316106E+02  0.46090247334E+02  0.00000000000E+00 0.  1.
          1    1    1    2  501    0  0.44025310591E+02 -0.96962074255E+02  0.24998044767E+02  0.10938360964E+03  0.00000000000E+00 0. -1.
<scales pt_clust_5="13000.00000" pt_clust_6="13000.00000" pt_clust_7="13000.00000" pt_clust_8="13000.00000" pt_clust_9="35.75735" pt_clust_10="13000.00000"></scales>
<clustering>
<clus scale="   35.757">  1  9  2 -1</clus>
<clus scale="   83.533">  5  6 -1 -1</clus>
<clus scale="   89.566">  2  5  1 -1</clus>
<clus scale="   89.585">  7  8 -1 -1</clus>
<clus scale="   81.992">  7 10 -1 -1</clus>
<clus scale="   35.757">  1  5  2 -1</clus>
</clustering>
</event>
<event>
10    4  0.2565852E-005  0.1449070E+03  0.7546771E-02  0.1215741E+00
         21   -1    0    0  501  502  0.00000000000E+00  0.00000000000E+00  0.36403741861E+03  0.36403741861E+03  0.00000000000E+00 0.  1.
          2   -1    0    0  503    0 -0.00000000000E+00 -0.00000000000E+00 -0.33484049371E+03  0.33484049371E+03  0.00000000000E+00 0. -1.
         24    2    1    2    0    0  0.95750799480E+02 -0.88251669482E+01 -0.25658870384E+03  0.28602905357E+03  0.82029003238E+02 0.  0.
         23    2    1    2    0    0 -0.25483961924E+02  0.60749008140E+02  0.33534997459E+02  0.12009701241E+03  0.94651054040E+02 0.  0.
        -11    1    3    3    0    0  0.22584560571E+02  0.34592016899E+02 -0.83255934867E+02  0.92942028705E+02  0.00000000000E+00 0.  1.
         12    1    3    3    0    0  0.73166238910E+02 -0.43417183847E+02 -0.17333276897E+03  0.19308702486E+03  0.00000000000E+00 0. -1.
        -13    1    4    4    0    0  0.33436871666E+02  0.38146135659E+02  0.24544544043E+02  0.56352344182E+02  0.00000000000E+00 0. -1.
         13    1    4    4    0    0 -0.58920833590E+02  0.22602872481E+02  0.89904534157E+01  0.63744668232E+02  0.00000000000E+00 0.  1.
         21    1    1    2  503  502 -0.81853532987E+02 -0.77433757473E+02  0.23282911953E+03  0.25866075574E+03  0.00000000000E+00 0.  1.
          1    1    1    2  501    0  0.11586695430E+02  0.25509916280E+02  0.19421511756E+02  0.34091090603E+02  0.00000000000E+00 0. -1.
<scales pt_clust_5="13000.00000" pt_clust_6="13000.00000" pt_clust_7="13000.00000" pt_clust_8="13000.00000" pt_clust_9="112.67647" pt_clust_10="13000.00000"></scales>
<clustering>
<clus scale="   82.029">  5  6 -1 -1</clus>
<clus scale="   94.651">  7  8 -1 -1</clus>
<clus scale="   28.018">  7 10 -1 -1</clus>
<clus scale="  112.676">  1  9  2 -1</clus>
<clus scale="  119.962">  2  5  1 -1</clus>
<clus scale="  112.676">  1  5  2 -1</clus>
</clustering>
</event>
<event>
10    4  0.2565852E-005  0.1482243E+03  0.7546771E-02  0.1218738E+00
         21   -1    0    0  503  502  0.00000000000E+00  0.00000000000E+00  0.20408563621E+03  0.20408563621E+03  0.00000000000E+00 0. -1.
          2   -1    0    0  502    0 -0.00000000000E+00 -0.00000000000E+00 -0.27499101835E+03  0.27499101835E+03  0.00000000000E+00 0. -1.
         24    2    1    2    0    0  0.24980196978E+02 -0.39289174945E+02 -0.36589720939E+01  0.93084416621E+02  0.80521245842E+02 0.  0.
         23    2    1    2    0    0 -0.31169782578E+02  0.82649204360E+02 -0.17071090527E+03  0.21240476125E+03  0.90394264736E+02 0.  0.
        -13    1    3    3    0    0  0.12323715546E+01 -0.56412306679E+02 -0.19619371598E+02  0.59739323953E+02  0.00000000000E+00 0.  1.
         14    1    3    3    0    0  0.23747825423E+02  0.17123131733E+02  0.15960399504E+02  0.33345092668E+02  0.00000000000E+00 0. -1.
        -13    1    4    4    0    0  0.28133890621E+02  0.54323424223E+01 -0.32264537320E+02  0.43151205245E+02  0.00000000000E+00 0.  1.
         13    1    4    4    0    0 -0.59303673198E+02  0.77216861937E+02 -0.13844636795E+03  0.16925355600E+03  0.00000000000E+00 0. -1.
         21    1    1    2  503  501 -0.22184648092E+02 -0.44405463437E+02  0.12722376820E+03  0.13656460372E+03  0.00000000000E+00 0. -1.
          1    1    1    2  501    0  0.28374233691E+02  0.10454340229E+01 -0.23759272984E+02  0.37022872965E+02  0.00000000000E+00 0. -1.
<scales pt_clust_5="13000.00000" pt_clust_6="13000.00000" pt_clust_7="13000.00000" pt_clust_8="13000.00000" pt_clust_9="49.63873" pt_clust_10="13000.00000"></scales>
<clustering>
<clus scale="   49.639">  1  9  2 -1</clus>
<clus scale="   80.521">  5  6 -1 -1</clus>
<clus scale="   90.394">  7  8 -1 -1</clus>
<clus scale="   26.510">  7 10 -1 -1</clus>
<clus scale="  105.220">  2  5  1 -1</clus>
<clus scale="   49.639">  1  5  2 -1</clus>
</clustering>
</event>
<event>
10    4  0.2565852E-005  0.1487874E+03  0.7546771E-02  0.1221813E+00
          2   -1    0    0  503    0 -0.00000000000E+00  0.00000000000E+00  0.29435316768E+03  0.29435316768E+03  0.00000000000E+00 0. -1.
         21   -1    0    0  501  502  0.00000000000E+00 -0.00000000000E+00 -0.61263186935E+03  0.61263186935E+03  0.00000000000E+00 0. -1.
         24    2    1    2    0    0  0.33093174863E+02 -0.71522400272E+02  0.37146925274E+02  0.11811486465E+03  0.79753465327E+02 0.  0.
         23    2    1    2    0    0  0.34770209177E+02 -0.88889223894E+01  0.10590816412E+03  0.14547275339E+03  0.93047312508E+02 0.  0.
        -13    1    3    3    0    0 -0.13757559344E-01 -0.31339197954E+02 -0.22769620621E+02  0.38737593380E+02  0.00000000000E+00 0.  1.
         14    1    3    3    0    0  0.33106932423E+02 -0.40183202318E+02  0.59916545894E+02  0.79377271274E+02  0.00000000000E+00 0. -1.
        -13    1    4    4    0    0 -0.41662894479E+01 -0.44740322168E+02  0.62750774070E+02  0.77179751502E+02  0.00000000000E+00 0. -1.
         13    1    4    4    0    0  0.38936498625E+02  0.35851399779E+02  0.43157390046E+02  0.68293001888E+02  0.00000000000E+00 0.  1.
         21    1    1    2  503  502 -0.88749205837E+02  0.31862604008E+02 -0.54025066410E+03  0.54841811343E+03  0.00000000000E+00 0. -1.
          1    1    1    2  501    0  0.20885821797E+02  0.48548718653E+02  0.78916873035E+02  0.94979305560E+02  0.00000000000E+00 0. -1.
<scales pt_clust_5="13000.00000" pt_clust_6="13000.00000" pt_clust_7="13000.00000" pt_clust_8="13000.00000" pt_clust_9="94.29553" pt_clust_10="13000.00000"></scales>
<clustering>
<clus scale="   79.753">  5  6 -1 -1</clus>
<clus scale="   93.047">  7  8 -1 -1</clus>
<clus scale="   52.851">  7 10 -1 -1</clus>
<clus scale="   94.296">  2  9  1 -1</clus>
<clus scale="   97.529">  1  5  2 -1</clus>
<clus scale="   94.296">  2  5  1 -1</clus>
</clustering>
</event>
<event>
10    4  0.2565852E-005  0.1331112E+03  0.7546771E-02  0.1244772E+00
         21   -1    0    0  501  502  0.00000000000E+00  0.00000000000E+00  0.47066439078E+03  0.47066439078E+03  0.00000000000E+00 0.  1.
          2   -1    0    0  503    0 -0.00000000000E+00 -0.00000000000E+00 -0.38886074559E+02  0.38886074559E+02  0.00000000000E+00 0. -1.
         24    2    1    2    0    0  0.69461562583E+01  0.24511134282E+02  0.80143383327E+02  0.11607959628E+03  0.80015410966E+02 0.  0.
         23    2    1    2    0    0 -0.37803703008E+02 -0.44657509279E+02  0.18478481868E+03  0.21488535902E+03  0.92773246207E+02 0.  0.
        -11    1    3    3    0    0  0.11226981472E+01  0.47123600707E+02  0.19346352108E+02  0.50952679367E+02  0.00000000000E+00 0.  1.
         12    1    3    3    0    0  0.58234581112E+01 -0.22612466426E+02  0.60797031219E+02  0.65126916918E+02  0.00000000000E+00 0. -1.
        -11    1    4    4    0    0 -0.34256134379E+02 -0.16768415320E+02  0.18276156904E+03  0.18669883131E+03  0.00000000000E+00 0.  1.
         11    1    4    4    0    0 -0.35475686291E+01 -0.27889093960E+02  0.20232496338E+01  0.28186527707E+02  0.00000000000E+00 0. -1.
         21    1    1    2  503  502  0.37275579737E+02 -0.41385223616E+01  0.83573561706E+02  0.91603146388E+02  0.00000000000E+00 0.  1.
          1    1    1    2  501    0 -0.64180329869E+01  0.24284897359E+02  0.83276552513E+02  0.86982363647E+02  0.00000000000E+00 0. -1.
<scales pt_clust_5="13000.00000" pt_clust_6="13000.00000" pt_clust_7="13000.00000" pt_clust_8="13000.00000" pt_clust_9="37.50462" pt_clust_10="13000.00000"></scales>
<clustering>
<clus scale="   37.505">  1  9  2 -1</clus>
<clus scale="   80.015">  5  6 -1 -1</clus>
<clus scale="   84.997">  2  5  1 -1</clus>
<clus scale="   92.773">  7  8 -1 -1</clus>
<clus scale="   27.319">  7 10 -1 -1</clus>
<clus scale="   37.505">  1  5  2 -1</clus>
</clustering>
</event>
<event>
10    4  0.2565852E-005  0.8273414E+03  0.7546771E-02  0.1003619E+00
         21   -1    0    0  501  502  0.00000000000E+00  0.00000000000E+00  0.40524469281E+03  0.40524469281E+03  0.00000000000E+00 0. -1.
          2   -1    0    0  503    0 -0.00000000000E+00 -0.00000000000E+00 -0.80827867298E+03  0.80827867298E+03  0.00000000000E+00 0. -1.
         24    2    1    2    0    0  0.56080085184E+01 -0.13061400900E+03 -0.19980995915E+03  0.25386523823E+03  0.86209455981E+02 0.  0.
         23    2    1    2    0    0  0.20163358177E+03 -0.19419347952E+02  0.23301112903E+03  0.32192061259E+03  0.91134418226E+02 0.  0.
        -13    1    3    3    0    0  0.79275477377E+00 -0.53007908455E+02 -0.17766924373E+02  0.55911809312E+02  0.00000000000E+00 0.  1.
         14    1    3    3    0    0  0.48152537446E+01 -0.77606100545E+02 -0.18204303477E+03  0.19795342892E+03  0.00000000000E+00 0. -1.
        -13    1    4    4    0    0  0.32489333480E+02  0.17702748707E+02  0.90081786512E+02  0.97384148418E+02  0.00000000000E+00 0.  1.
         13    1    4    4    0    0  0.16914424829E+03 -0.37122096659E+02  0.14292934252E+03  0.22453646417E+03  0.00000000000E+00 0. -1.
         21    1    1    2  503  502 -0.83874921042E+01  0.78803120520E+02  0.59354578940E+02  0.99011352221E+02  0.00000000000E+00 0.  1.
          1    1    1    2  501    0 -0.19885409818E+03  0.71230236432E+02 -0.49558972899E+03  0.53872616275E+03  0.00000000000E+00 0. -1.
<scales pt_clust_5="13000.00000" pt_clust_6="13000.00000" pt_clust_7="13000.00000" pt_clust_8="13000.00000" pt_clust_9="79.24823" pt_clust_10="13000.00000"></scales>
<clustering>
<clus scale="   79.248">  1  9  2 -1</clus>
<clus scale="   86.209">  5  6 -1 -1</clus>
<clus scale="   91.134">  7  8 -1 -1</clus>
<clus scale="  151.171">  2  5  1 -1</clus>
<clus scale="  198.006">  7 10 -1 -1</clus>
<clus scale="   79.248">  1  5  2 -1</clus>
</clustering>
</event>
<event>
10    4  0.2565852E-005  0.5629192E+03  0.7546771E-02  0.9997358E-01
         21   -1    0    0  501  502  0.00000000000E+00  0.00000000000E+00  0.36379987205E+03  0.36379987205E+03  0.00000000000E+00 0.  1.
          2   -1    0    0  503    0 -0.00000000000E+00 -0.00000000000E+00 -0.13067149985E+04  0.13067149985E+04  0.00000000000E+00 0. -1.
         24    2    1    2    0    0  0.33365818657E+03 -0.48429985026E+03 -0.35663959971E+03  0.69244033901E+03  0.80048039211E+02 0.  0.
         23    2    1    2    0    0 -0.53671025892E+02  0.18834516864E+03 -0.24863397509E+03  0.32938274033E+03  0.91212140057E+02 0.  0.
        -11    1    3    3    0    0  0.32715626962E+03 -0.47672854934E+03 -0.33406473914E+03  0.66775787860E+03  0.00000000000E+00 0.  1.
         12    1    3    3    0    0  0.65019169571E+01 -0.75713009186E+01 -0.22574860578E+02  0.24682460409E+02  0.00000000000E+00 0. -1.
        -13    1    4    4    0    0 -0.90664817236E+01  0.22245867361E+02 -0.97541055602E+02  0.10045564809E+03  0.00000000000E+00 0. -1.
         13    1    4    4    0    0 -0.44604544168E+02  0.16609930127E+03 -0.15109291949E+03  0.22892709224E+03  0.00000000000E+00 0.  1.
         21    1    1    2  503  502 -0.92767890653E+02  0.36898037156E+02  0.76340369481E+02  0.12567895088E+03  0.00000000000E+00 0.  1.
          1    1    1    2  501    0 -0.18721927003E+03  0.25905664446E+03 -0.41398192112E+03  0.52301284031E+03  0.00000000000E+00 0. -1.
<scales pt_clust_5="13000.00000" pt_clust_6="13000.00000" pt_clust_7="13000.00000" pt_clust_8="13000.00000" pt_clust_9="99.83660" pt_clust_10="13000.00000"></scales>
<clustering>
<clus scale="   80.048">  5  6 -1 -1</clus>
<clus scale="   91.212">  7  8 -1 -1</clus>
<clus scale="   99.837">  1  9  2 -1</clus>
<clus scale="  337.287">  7 10 -1 -1</clus>
<clus scale="  542.185">  2  5  1 -1</clus>
<clus scale="   99.837">  1  5  2 -1</clus>
</clustering>
</event>
<event>
10    4  0.2565852E-005  0.1384573E+03  0.7546771E-02  0.1239644E+00
          2   -1    0    0  503    0 -0.00000000000E+00  0.00000000000E+00  0.66964447971E+03  0.66964447971E+03  0.00000000000E+00 0. -1.
         21   -1    0    0  501  502  0.00000000000E+00 -0.00000000000E+00 -0.21247930878E+03  0.21247930878E+03  0.00000000000E+00 0.  1.
         24    2    1    2    0    0 -0.23077965634E+02  0.14245808853E+02  0.46679550618E+03  0.47443390647E+03  0.80336488872E+02 0.  0.
         23    2    1    2    0    0  0.22512915127E+01 -0.39972891735E+02  0.13541287605E+03  0.16838921359E+03  0.91735379591E+02 0.  0.
        -13    1    3    3    0    0 -0.20589032303E+02 -0.30470582475E+02  0.14761912356E+03  0.15213076707E+03  0.00000000000E+00 0.  1.
         14    1    3    3    0    0 -0.24889333302E+01  0.44716391329E+02  0.31917638262E+03  0.32230313940E+03  0.00000000000E+00 0. -1.
        -11    1    4    4    0    0 -0.41025506894E+02 -0.24792408757E+02  0.98400123910E+02  0.10945474011E+03  0.00000000000E+00 0.  1.
         11    1    4    4    0    0  0.43276798406E+02 -0.15180482978E+02  0.37012752137E+02  0.58934473481E+02  0.00000000000E+00 0. -1.
         21    1    1    2  503  502  0.21664335516E+02 -0.10275469975E+02 -0.18440106905E+03  0.18595344305E+03  0.00000000000E+00 0.  1.
          1    1    1    2  501    0 -0.83766139528E+00  0.36002552857E+02  0.39357857751E+02  0.53347225378E+02  0.00000000000E+00 0. -1.
<scales pt_clust_5="13000.00000" pt_clust_6="13000.00000" pt_clust_7="13000.00000" pt_clust_8="13000.00000" pt_clust_9="23.97767" pt_clust_10="13000.00000"></scales>
<clustering>
<clus scale="   23.978">  2  9  1 -1</clus>
<clus scale="   80.336">  5  6 -1 -1</clus>
<clus scale="   83.785">  1  5  2 -1</clus>
<clus scale="   91.735">  7  8 -1 -1</clus>
<clus scale="   35.970">  7 10 -1 -1</clus>
<clus scale="   23.978">  2  5  1 -1</clus>
</clustering>
</event>
<event>
10    4  0.2565852E-005  0.7257079E+03  0.7546771E-02  0.1026270E+00
         21   -1    0    0  501  502  0.00000000000E+00  0.00000000000E+00  0.67971903733E+03  0.67971903733E+03  0.00000000000E+00 0.  1.
          2   -1    0    0  503    0 -0.00000000000E+00 -0.00000000000E+00 -0.10028250314E+04  0.10028250314E+04  0.00000000000E+00 0. -1.
         24    2    1    2    0    0  0.51985586774E+02  0.21115002550E+02  0.18648243612E+03  0.20422214474E+03  0.61503177637E+02 0.  0.
         23    2    1    2    0    0 -0.17795059582E+03 -0.17765025912E+03 -0.88158895755E+03  0.92138486532E+03  0.92330660343E+02 0.  0.
        -13    1    3    3    0    0  0.23607002637E+02  0.40932772611E+02  0.12550574127E+03  0.13410620246E+03  0.00000000000E+00 0.  1.
         14    1    3    3    0    0  0.28378584137E+02 -0.19817770061E+02  0.60976694845E+02  0.70115942281E+02  0.00000000000E+00 0. -1.
        -13    1    4    4    0    0 -0.12608881680E+03 -0.14631060820E+03 -0.77569141637E+03  0.79937623008E+03  0.00000000000E+00 0. -1.
         13    1    4    4    0    0 -0.51861779021E+02 -0.31339650917E+02 -0.10589754118E+03  0.12200863523E+03  0.00000000000E+00 0.  1.
         21    1    1    2  503  502  0.70400280758E+02 -0.36611873502E+02  0.34516964671E+03  0.35417328220E+03  0.00000000000E+00 0.  1.
          1    1    1    2  501    0  0.55564728290E+02  0.19314713007E+03  0.26830880673E+02  0.20276377645E+03  0.00000000000E+00 0. -1.
<scales pt_clust_5="13000.00000" pt_clust_6="13000.00000" pt_clust_7="13000.00000" pt_clust_8="13000.00000" pt_clust_9="79.35130" pt_clust_10="13000.00000"></scales>
<clustering>
<clus scale="   61.503">  5  6 -1 -1</clus>
<clus scale="   79.351">  1  9  2 -1</clus>
<clus scale="   92.331">  7  8 -1 -1</clus>
<clus scale="  112.046">  2  5  1 -1</clus>
<clus scale="  200.891">  7 10 -1 -1</clus>
<clus scale="   79.351">  1  5  2 -1</clus>
</clustering>
</event>
<event>
10    4  0.2565852E-005  0.3022145E+03  0.7546771E-02  0.1112337E+00
          2   -1    0    0  503    0 -0.00000000000E+00  0.00000000000E+00  0.10693824266E+04  0.10693824266E+04  0.00000000000E+00 0. -1.
         21   -1    0    0  501  502  0.00000000000E+00 -0.00000000000E+00 -0.57196511203E+02  0.57196511203E+02  0.00000000000E+00 0. -1.
         24    2    1    2    0    0 -0.11186477440E+03  0.14601532061E+01  0.21927192449E+03  0.25859803471E+03  0.79226932849E+02 0.  0.
         23    2    1    2    0    0 -0.12039556512E+02 -0.74739844629E+02  0.16330627751E+03  0.20160146009E+03  0.90792142497E+02 0.  0.
        -13    1    3    3    0    0 -0.50531753159E+02 -0.35578165454E+02  0.13147990560E+03  0.14527983174E+03  0.00000000000E+00 0.  1.
         14    1    3    3    0    0 -0.61333021246E+02  0.37038318660E+02  0.87792018893E+02  0.11331820298E+03  0.00000000000E+00 0. -1.
        -11    1    4    4    0    0 -0.17048087102E+02 -0.46419254877E+02  0.16552697233E+03  0.17275579025E+03  0.00000000000E+00 0.  1.
         11    1    4    4    0    0  0.50085305905E+01 -0.28320589752E+02 -0.22206948234E+01  0.28845669832E+02  0.00000000000E+00 0. -1.
         21    1    1    2  503  502 -0.23610691208E+02  0.11115955528E+02  0.12665369201E+02  0.29007598722E+02  0.00000000000E+00 0. -1.
          1    1    1    2  501    0  0.14751502213E+03  0.62163735895E+02  0.61694234416E+03  0.63737184424E+03  0.00000000000E+00 0. -1.
<scales pt_clust_5="13000.00000" pt_clust_6="13000.00000" pt_clust_7="13000.00000" pt_clust_8="13000.00000" pt_clust_9="26.09654" pt_clust_10="13000.00000"></scales>
<clustering>
<clus scale="   26.097">  2  9  1 -1</clus>
<clus scale="   79.227">  5  6 -1 -1</clus>
<clus scale="   90.792">  7  8 -1 -1</clus>
<clus scale="  145.031">  1  5  2 -1</clus>
<clus scale="   85.367">  7 10 -1 -1</clus>
<clus scale="   26.097">  2  5  1 -1</clus>
</clustering>
</event>
<event>
10    4  0.2565852E-005  0.7799775E+03  0.7546771E-02  0.1006399E+00
          2   -1    0    0  503    0 -0.00000000000E+00  0.00000000000E+00  0.14749234497E+04  0.14749234497E+04  0.00000000000E+00 0. -1.
         21   -1    0    0  501  502  0.00000000000E+00 -0.00000000000E+00 -0.29540038272E+03  0.29540038272E+03  0.00000000000E+00 0. -1.
         24    2    1    2    0    0 -0.12659126544E+03 -0.69868152525E+02  0.13357558385E+03  0.21262018791E+03  0.80361685412E+02 0.  0.
         23    2    1    2    0    0 -0.33244893701E+03 -0.17240998359E+03  0.23082516770E+03  0.44925210836E+03  0.91102692933E+02 0.  0.
        -11    1    3    3    0    0 -0.53655409472E+02  0.87516135120E+01  0.24415945551E+02  0.59595571160E+02  0.00000000000E+00 0.  1.
         12    1    3    3    0    0 -0.72935855969E+02 -0.78619766037E+02  0.10915963830E+03  0.15302461675E+03  0.00000000000E+00 0. -1.
        -11    1    4    4    0    0 -0.21898411434E+03 -0.84935672344E+02  0.18450657581E+03  0.29868174917E+03  0.00000000000E+00 0.  1.
         11    1    4    4    0    0 -0.11346482267E+03 -0.87474311249E+02  0.46318591892E+02  0.15057035919E+03  0.00000000000E+00 0. -1.
         21    1    1    2  503  502  0.28189799241E+03  0.13165728723E+03  0.49728251875E+02  0.31507621053E+03  0.00000000000E+00 0. -1.
          1    1    1    2  501    0  0.17714221004E+03  0.11062084889E+03  0.76539406353E+03  0.79337532561E+03  0.00000000000E+00 0. -1.
<scales pt_clust_5="13000.00000" pt_clust_6="13000.00000" pt_clust_7="13000.00000" pt_clust_8="13000.00000" pt_clust_9="290.91715" pt_clust_10="13000.00000"></scales>
<clustering>
<clus scale="   80.362">  5  6 -1 -1</clus>
<clus scale="   91.103">  7  8 -1 -1</clus>
<clus scale="  165.424">  1  5  2 -1</clus>
<clus scale="  122.495">  7 10 -1 -1</clus>
<clus scale="  290.917">  2  9  1 -1</clus>
<clus scale="  290.917">  2  5  1 -1</clus>
</clustering>
</event>
<event>
10    4  0.2565852E-005  0.2107124E+03  0.7546771E-02  0.1156699E+00
         21   -1    0    0  501  502  0.00000000000E+00  0.00000000000E+00  0.79072488731E+02  0.79072488731E+02  0.00000000000E+00 0. -1.
          2   -1    0    0  503    0 -0.00000000000E+00 -0.00000000000E+00 -0.67098848506E+03  0.67098848506E+03  0.00000000000E+00 0. -1.
         24    2    1    2    0    0 -0.60182115188E+02 -0.86563087663E+02 -0.64038083767E+02  0.14694844933E+03  0.79861852300E+02 0.  0.
         23    2    1    2    0    0  0.37452459205E+02 -0.41173964480E+01 -0.20171604561E+03  0.22304680563E+03  0.87412097514E+02 0.  0.
        -11    1    3    3    0    0  0.14911738123E+02 -0.26218084410E+02  0.18772668383E+01  0.30220390712E+02  0.00000000000E+00 0.  1.
         12    1    3    3    0    0 -0.75093853311E+02 -0.60345003253E+02 -0.65915350605E+02  0.11672805862E+03  0.00000000000E+00 0. -1.
        -13    1    4    4    0    0  0.12170601873E+02  0.38649827597E+02 -0.56208393686E+02  0.69291530824E+02  0.00000000000E+00 0. -1.
         13    1    4    4    0    0  0.25281857333E+02 -0.42767224045E+02 -0.14550765192E+03  0.15375527480E+03  0.00000000000E+00 0.  1.
         21    1    1    2  503  502 -0.67221604556E+01 -0.24000020517E+02  0.74927541649E+01  0.26025560339E+02  0.00000000000E+00 0. -1.
          1    1    1    2  501    0  0.29451816438E+02  0.11468050463E+03 -0.33365462112E+03  0.35404015850E+03  0.00000000000E+00 0. -1.
<scales pt_clust_5="13000.00000" pt_clust_6="13000.00000" pt_clust_7="13000.00000" pt_clust_8="13000.00000" pt_clust_9="24.92365" pt_clust_10="13000.00000"></scales>
<clustering>
<clus scale="   24.924">  1  9  2 -1</clus>
<clus scale="   79.862">  5  6 -1 -1</clus>
<clus scale="   87.412">  7  8 -1 -1</clus>
<clus scale="  114.326">  7 10 -1 -1</clus>
<clus scale="  145.157">  2  5  1 -1</clus>
<clus scale="   24.924">  1  5  2 -1</clus>
</clustering>
</event>
<event>
10    4  0.2565852E-005  0.8577994E+03  0.7546771E-02  0.1014176E+00
         21   -1    0    0  503  502  0.00000000000E+00  0.00000000000E+00  0.46605396319E+03  0.46605396319E+03  0.00000000000E+00 0. -1.
          2   -1    0    0  502    0 -0.00000000000E+00 -0.00000000000E+00 -0.11045839047E+04  0.11045839047E+04  0.00000000000E+00 0. -1.
         24    2    1    2    0    0 -0.22908028591E+02 -0.19917742360E+01 -0.13815891508E+03  0.16928424178E+03  0.95081668893E+02 0.  0.
         23    2    1    2    0    0 -0.42395666160E+03 -0.18835677762E+03 -0.27084702941E+03  0.54497695619E+03  0.91783674195E+02 0.  0.
        -13    1    3    3    0    0 -0.13503615652E+02 -0.39334625612E+02 -0.11942744236E+03  0.12646135535E+03  0.00000000000E+00 0.  1.
         14    1    3    3    0    0 -0.94044129396E+01  0.37342851376E+02 -0.18731472714E+02  0.42822886424E+02  0.00000000000E+00 0. -1.
        -13    1    4    4    0    0 -0.24900410036E+03 -0.15904090059E+03 -0.16519415984E+03  0.33850577617E+03  0.00000000000E+00 0. -1.
         13    1    4    4    0    0 -0.17495256124E+03 -0.29315877030E+02 -0.10565286957E+03  0.20647118002E+03  0.00000000000E+00 0.  1.
         21    1    1    2  503  501  0.11887182570E+03  0.64566544992E+02  0.23669835832E+03  0.27262696585E+03  0.00000000000E+00 0. -1.
          1    1    1    2  501    0  0.32799286449E+03  0.12578200686E+03 -0.46622235539E+03  0.58374970412E+03  0.00000000000E+00 0. -1.
<scales pt_clust_5="13000.00000" pt_clust_6="13000.00000" pt_clust_7="13000.00000" pt_clust_8="13000.00000" pt_clust_9="134.87693" pt_clust_10="13000.00000"></scales>
<clustering>
<clus scale="   91.784">  7  8 -1 -1</clus>
<clus scale="   95.082">  5  6 -1 -1</clus>
<clus scale="   97.823">  2  5  1 -1</clus>
<clus scale="  134.877">  1  9  2 -1</clus>
<clus scale="  380.322">  7 10 -1 -1</clus>
<clus scale="  134.877">  1  5  2 -1</clus>
</clustering>
</event>
<event>
10    4  0.2565852E-005  0.3712911E+03  0.7546771E-02  0.1063025E+00
         21   -1    0    0  501  502  0.00000000000E+00  0.00000000000E+00  0.93161722362E+02  0.93161722362E+02  0.00000000000E+00 0. -1.
          2   -1    0    0  503    0 -0.00000000000E+00 -0.00000000000E+00 -0.23102154009E+04  0.23102154009E+04  0.00000000000E+00 0. -1.
         24    2    1    2    0    0  0.10929192780E+03 -0.24560996363E+03 -0.85736083677E+03  0.90199322167E+03  0.79089745187E+02 0.  0.
         23    2    1    2    0    0 -0.76507148582E+02  0.30688201170E+03 -0.12210389199E+04  0.12647293167E+04  0.92597449274E+02 0.  0.
        -11    1    3    3    0    0  0.96398545274E+01 -0.11101398607E+03 -0.38617368133E+03  0.40192927742E+03  0.00000000000E+00 0.  1.
         12    1    3    3    0    0  0.99652073271E+02 -0.13459597756E+03 -0.47118715544E+03  0.50006394425E+03  0.00000000000E+00 0. -1.
        -13    1    4    4    0    0 -0.51844181589E+02  0.51898814303E+02 -0.27779447089E+03  0.28731702725E+03  0.00000000000E+00 0.  1.
         13    1    4    4    0    0 -0.24662966993E+02  0.25498319740E+03 -0.94324444904E+03  0.97741228944E+03  0.00000000000E+00 0. -1.
         21    1    1    2  503  502  0.23182307366E+00 -0.23217347595E+02  0.42606735070E+02  0.48522498335E+02  0.00000000000E+00 0. -1.
          1    1    1    2  501    0 -0.33016602289E+02 -0.38054700481E+02 -0.18126065691E+03  0.18813208657E+03  0.00000000000E+00 0. -1.
<scales pt_clust_5="13000.00000" pt_clust_6="13000.00000" pt_clust_7="13000.00000" pt_clust_8="13000.00000" pt_clust_9="23.21850" pt_clust_10="13000.00000"></scales>
<clustering>
<clus scale="   23.219">  1  9  2 -1</clus>
<clus scale="   79.090">  5  6 -1 -1</clus>
<clus scale="   92.597">  7  8 -1 -1</clus>
<clus scale="   51.648">  7 10 -1 -1</clus>
<clus scale="  289.851">  2  5  1 -1</clus>
<clus scale="   23.219">  1  5  2 -1</clus>
</clustering>
</event>
<event>
10    4  0.2565852E-005  0.6515399E+03  0.7546771E-02  0.1048557E+00
         21   -1    0    0  501  502  0.00000000000E+00  0.00000000000E+00  0.17484698053E+03  0.17484698053E+03  0.00000000000E+00 0. -1.
         -1   -1    0    0    0  501 -0.00000000000E+00 -0.00000000000E+00 -0.11381797229E+04  0.11381797229E+04  0.00000000000E+00 0.  1.
         24    2    1    2    0    0 -0.10659886739E+02  0.16000087164E+02 -0.59134764196E+02  0.98389908420E+02  0.76249706674E+02 0.  0.
         23    2    1    2    0    0 -0.16461490059E+03  0.23629256648E+03 -0.41680939242E+03  0.51488320914E+03  0.91882571624E+02 0.  0.
        -11    1    3    3    0    0  0.24503695610E+02  0.31190142097E+02 -0.23678288866E+02  0.46194344093E+02  0.00000000000E+00 0.  1.
         12    1    3    3    0    0 -0.35163582350E+02 -0.15190054934E+02 -0.35456475330E+02  0.52195564327E+02  0.00000000000E+00 0. -1.
        -13    1    4    4    0    0 -0.34250896776E+02  0.45001132590E+02 -0.15716034869E+03  0.16702574970E+03  0.00000000000E+00 0.  1.
         13    1    4    4    0    0 -0.13036400382E+03  0.19129143389E+03 -0.25964904373E+03  0.34785745943E+03  0.00000000000E+00 0. -1.
         21    1    1    2  503  502 -0.21590830170E+02  0.38713900259E+02  0.44169082283E+02  0.62576655794E+02  0.00000000000E+00 0. -1.
         -2    1    1    2    0  503  0.19686561750E+03 -0.29100655390E+03 -0.53155766803E+03  0.63717693006E+03  0.00000000000E+00 0.  1.
<scales pt_clust_5="13000.00000" pt_clust_6="13000.00000" pt_clust_7="13000.00000" pt_clust_8="13000.00000" pt_clust_9="44.32753" pt_clust_10="13000.00000"></scales>
<clustering>
<clus scale="   44.328">  1  9  2 -1</clus>
<clus scale="   76.250">  5  6 -1 -1</clus>
<clus scale="   80.682">  2  5  1 -1</clus>
<clus scale="   91.883">  7  8 -1 -1</clus>
<clus scale="  318.942">  7 10 -1 -1</clus>
<clus scale="   44.328">  1  5  2 -1</clus>
</clustering>
</event>
<event>
10    4  0.2565852E-005  0.5715640E+03  0.7546771E-02  0.1019138E+00
         21   -1    0    0  501  502  0.00000000000E+00  0.00000000000E+00  0.48914092010E+03  0.48914092010E+03  0.00000000000E+00 0.  1.
         -3   -1    0    0    0  501 -0.00000000000E+00 -0.00000000000E+00 -0.12857763967E+04  0.12857763967E+04  0.00000000000E+00 0.  1.
         24    2    1    2    0    0  0.21267782257E+03 -0.18188976024E+03 -0.94313561718E+03  0.98706322145E+03  0.80456632140E+02 0.  0.
         23    2    1    2    0    0  0.14831386830E+03 -0.68403201088E+02 -0.19526661579E+01  0.18663351206E+03  0.90289830368E+02 0.  0.
        -13    1    3    3    0    0  0.20253800761E+03 -0.13566028847E+03 -0.79835970752E+03  0.83474761514E+03  0.00000000000E+00 0.  1.
         14    1    3    3    0    0  0.10139814963E+02 -0.46229471770E+02 -0.14477590966E+03  0.15231560631E+03  0.00000000000E+00 0. -1.
        -11    1    4    4    0    0  0.22149786712E+02  0.58330705790E+01 -0.29839042450E+02  0.37616568399E+02  0.00000000000E+00 0. -1.
         11    1    4    4    0    0  0.12616408159E+03 -0.74236271667E+02  0.27886376292E+02  0.14901694366E+03  0.00000000000E+00 0.  1.
         21    1    1    2  503  502 -0.96441312915E+02  0.17841255075E+02  0.22088751296E+03  0.24168270646E+03  0.00000000000E+00 0.  1.
         -4    1    1    2    0  503 -0.26455037796E+03  0.23245170625E+03 -0.72434706242E+02  0.35953787684E+03  0.00000000000E+00 0.  1.
<scales pt_clust_5="13000.00000" pt_clust_6="13000.00000" pt_clust_7="13000.00000" pt_clust_8="13000.00000" pt_clust_9="98.07771" pt_clust_10="13000.00000"></scales>
<clustering>
<clus scale="   80.457">  5  6 -1 -1</clus>
<clus scale="   90.290">  7  8 -1 -1</clus>
<clus scale="   98.078">  1  9  2 -1</clus>
<clus scale="  284.274">  2  5  1 -1</clus>
<clus scale="  188.423">  7 10 -1 -1</clus>
<clus scale="   98.078">  1  5  2 -1</clus>
</clustering>
</event>
<event>
10    4  0.2565852E-005  0.2476063E+03  0.7546771E-02  0.1142029E+00
         21   -1    0    0  503  502  0.00000000000E+00  0.00000000000E+00  0.93441505553E+02  0.93441505553E+02  0.00000000000E+00 0. -1.
          2   -1    0    0  502    0 -0.00000000000E+00 -0.00000000000E+00 -0.54401968180E+03  0.54401968180E+03  0.00000000000E+00 0. -1.
         24    2    1    2    0    0 -0.62303323546E+02 -0.36947009705E+02 -0.28273555689E+02  0.11198083694E+03  0.80582431337E+02 0.  0.
         23    2    1    2    0    0  0.12342974827E+02 -0.24917469633E+02 -0.54640572218E+02  0.11095252825E+03  0.92475088925E+02 0.  0.
        -11    1    3    3    0    0 -0.34132278899E+02 -0.31440090171E+02 -0.55550457766E+02  0.72383320529E+02  0.00000000000E+00 0.  1.
         12    1    3    3    0    0 -0.28171044647E+02 -0.55069195346E+01  0.27276902077E+02  0.39597516415E+02  0.00000000000E+00 0. -1.
        -13    1    4    4    0    0  0.23397863459E+02  0.10826287691E+02  0.16474893394E+02  0.30595598245E+02  0.00000000000E+00 0.  1.
         13    1    4    4    0    0 -0.11054888632E+02 -0.35743757325E+02 -0.71115465611E+02  0.80356930003E+02  0.00000000000E+00 0. -1.
         21    1    1    2  503  501 -0.48524835742E+02 -0.13948449481E+02 -0.41069136199E+02  0.65083737407E+02  0.00000000000E+00 0. -1.
          1    1    1    2  501    0  0.98485184461E+02  0.75812928820E+02 -0.32659491214E+03  0.34944408476E+03  0.00000000000E+00 0. -1.
<scales pt_clust_5="13000.00000" pt_clust_6="13000.00000" pt_clust_7="13000.00000" pt_clust_8="13000.00000" pt_clust_9="50.48979" pt_clust_10="13000.00000"></scales>
<clustering>
<clus scale="   50.490">  1  9  2 -1</clus>
<clus scale="   80.582">  5  6 -1 -1</clus>
<clus scale="   92.475">  7  8 -1 -1</clus>
<clus scale="  117.726">  7 10 -1 -1</clus>
<clus scale="  126.693">  2  5  1 -1</clus>
<clus scale="   50.490">  1  5  2 -1</clus>
</clustering>
</event>
<event>
10    4  0.2565852E-005  0.4382660E+03  0.7546771E-02  0.1082362E+00
         -3   -1    0    0    0  501 -0.00000000000E+00  0.00000000000E+00  0.46794499213E+03  0.46794499213E+03  0.00000000000E+00 0.  1.
         21   -1    0    0  503  502  0.00000000000E+00 -0.00000000000E+00 -0.17945347317E+03  0.17945347317E+03  0.00000000000E+00 0.  1.
         24    2    1    2    0    0  0.19150528922E+02 -0.59506692859E+02  0.54084680559E+02  0.11515560432E+03  0.80174006279E+02 0.  0.
         23    2    1    2    0    0  0.47756973718E+02  0.22115487190E+03  0.61552577299E+02  0.25334790215E+03  0.95949121139E+02 0.  0.
        -11    1    3    3    0    0  0.42570882656E+02 -0.23345302104E+02  0.53254102017E+02  0.72064433406E+02  0.00000000000E+00 0.  1.
         12    1    3    3    0    0 -0.23420353734E+02 -0.36161390754E+02  0.83057854152E+00  0.43091170917E+02  0.00000000000E+00 0. -1.
        -13    1    4    4    0    0  0.71201701525E+02  0.19498438648E+03  0.66262481494E+02  0.21789747526E+03  0.00000000000E+00 0.  1.
         13    1    4    4    0    0 -0.23444727807E+02  0.26170485420E+02 -0.47099041949E+01  0.35450426889E+02  0.00000000000E+00 0. -1.
         21    1    1    2  503  501  0.17791815982E+02 -0.13822496644E+02 -0.13606568722E+02  0.26320122375E+02  0.00000000000E+00 0. -1.
         -4    1    1    2    0  502 -0.84699318622E+02 -0.14782568239E+03  0.18646082983E+03  0.25257483646E+03  0.00000000000E+00 0.  1.
<scales pt_clust_5="13000.00000" pt_clust_6="13000.00000" pt_clust_7="13000.00000" pt_clust_8="13000.00000" pt_clust_9="22.53020" pt_clust_10="13000.00000"></scales>
<clustering>
<clus scale="   22.530">  2  9  1 -1</clus>
<clus scale="   80.174">  5  6 -1 -1</clus>
<clus scale="   95.949">  7  8 -1 -1</clus>
<clus scale="  103.922">  1  5  2 -1</clus>
<clus scale="  199.263">  7 10 -1 -1</clus>
<clus scale="   22.530">  2  5  1 -1</clus>
</clustering>
</event>
<event>
10    4  0.2565852E-005  0.3029392E+03  0.7546771E-02  0.1117644E+00
         21   -1    0    0  501  502  0.00000000000E+00  0.00000000000E+00  0.19342956669E+03  0.19342956669E+03  0.00000000000E+00 0. -1.
          2   -1    0    0  503    0 -0.00000000000E+00 -0.00000000000E+00 -0.27244173049E+03  0.27244173049E+03  0.00000000000E+00 0. -1.
         24    2    1    2    0    0 -0.79847671591E+02 -0.73365464685E+01 -0.13774183225E+02  0.12113377557E+03  0.89745127375E+02 0.  0.
         23    2    1    2    0    0 -0.53083880793E+02 -0.76754027042E+02 -0.25715865759E+02  0.13292459717E+03  0.91096452811E+02 0.  0.
        -13    1    3    3    0    0 -0.59890047814E+02 -0.86946426963E+00 -0.50826018757E+02  0.78554808751E+02  0.00000000000E+00 0.  1.
         14    1    3    3    0    0 -0.19957623777E+02 -0.64670821989E+01  0.37051835532E+02  0.42578966818E+02  0.00000000000E+00 0. -1.
        -11    1    4    4    0    0 -0.56588123188E+02 -0.14343653099E+02  0.12443092129E+02  0.59689082854E+02  0.00000000000E+00 0.  1.
         11    1    4    4    0    0  0.35042423953E+01 -0.62410373943E+02 -0.38158957889E+02  0.73235514319E+02  0.00000000000E+00 0. -1.
         21    1    1    2  503  502 -0.27655072620E+02  0.59095507974E+01  0.23075209550E+01  0.28373411589E+02  0.00000000000E+00 0.  1.
          1    1    1    2  501    0  0.16058662500E+03  0.78181022713E+02 -0.41829635770E+02  0.18343951284E+03  0.00000000000E+00 0. -1.
<scales pt_clust_5="13000.00000" pt_clust_6="13000.00000" pt_clust_7="13000.00000" pt_clust_8="13000.00000" pt_clust_9="28.27942" pt_clust_10="13000.00000"></scales>
<clustering>
<clus scale="   28.279">  1  9  2 -1</clus>
<clus scale="   89.745">  5  6 -1 -1</clus>
<clus scale="   91.096">  7  8 -1 -1</clus>
<clus scale="  125.942">  2  5  1 -1</clus>
<clus scale="  127.841">  7 10 -1 -1</clus>
<clus scale="   28.279">  1  5  2 -1</clus>
</clustering>
</event>
<event>
10    4  0.2565852E-005  0.2208570E+03  0.7546771E-02  0.1159686E+00
         21   -1    0    0  501  502  0.00000000000E+00  0.00000000000E+00  0.68225108412E+03  0.68225108412E+03  0.00000000000E+00 0. -1.
          2   -1    0    0  503    0 -0.00000000000E+00 -0.00000000000E+00 -0.47461586096E+03  0.47461586096E+03  0.00000000000E+00 0. -1.
         24    2    1    2    0    0  0.39961617890E+02 -0.86704662953E+02 -0.31841090060E+03  0.34174364366E+03  0.79300610841E+02 0.  0.
         23    2    1    2    0    0  0.50729735974E+02  0.13053578842E+02 -0.11427777345E+03  0.15593461927E+03  0.92262093785E+02 0.  0.
        -13    1    3    3    0    0 -0.15778799752E+01 -0.77437937487E+02 -0.16071357937E+03  0.17840397547E+03  0.00000000000E+00 0.  1.
         14    1    3    3    0    0  0.41539497865E+02 -0.92667254667E+01 -0.15769732122E+03  0.16333966819E+03  0.00000000000E+00 0. -1.
        -11    1    4    4    0    0  0.70104399067E+02 -0.75411923185E+01 -0.10440707070E+03  0.12598544663E+03  0.00000000000E+00 0.  1.
         11    1    4    4    0    0 -0.19374663093E+02  0.20594771161E+02 -0.98707027515E+01  0.29949172642E+02  0.00000000000E+00 0. -1.
         21    1    1    2  503  502 -0.65151426065E+02  0.43950756463E+02  0.59100074538E+03  0.59620320223E+03  0.00000000000E+00 0. -1.
          1    1    1    2  501    0 -0.25539927799E+02  0.29700327648E+02  0.49323151825E+02  0.62985479916E+02  0.00000000000E+00 0. -1.
<scales pt_clust_5="13000.00000" pt_clust_6="13000.00000" pt_clust_7="13000.00000" pt_clust_8="13000.00000" pt_clust_9="78.58993" pt_clust_10="13000.00000"></scales>
<clustering>
<clus scale="   78.590">  1  9  2 -1</clus>
<clus scale="   79.301">  5  6 -1 -1</clus>
<clus scale="   92.262">  7  8 -1 -1</clus>
<clus scale="   88.173">  7 10 -1 -1</clus>
<clus scale="  117.567">  2  5  1 -1</clus>
<clus scale="   78.590">  1  5  2 -1</clus>
</clustering>
</event>
<event>
10    4  0.2565852E-005  0.1991062E+03  0.7546771E-02  0.1187138E+00
          2   -1    0    0  503    0 -0.00000000000E+00  0.00000000000E+00  0.18389524892E+03  0.18389524892E+03  0.00000000000E+00 0. -1.
         21   -1    0    0  501  502  0.00000000000E+00 -0.00000000000E+00 -0.27617387036E+03  0.27617387036E+03  0.00000000000E+00 0. -1.
         24    2    1    2    0    0  0.12296717528E+02  0.11972548947E+02 -0.37905965494E+02  0.93215171564E+02  0.83412557804E+02 0.  0.
         23    2    1    2    0    0  0.36647500558E+02 -0.31923590366E+02  0.71939474888E+02  0.12609242259E+03  0.91443184922E+02 0.  0.
        -13    1    3    3    0    0  0.44478306344E+02  0.12339977112E+02 -0.37890222932E+01  0.46313620678E+02  0.00000000000E+00 0.  1.
         14    1    3    3    0    0 -0.32181588816E+02 -0.36742816536E+00 -0.34116943201E+02  0.46901550886E+02  0.00000000000E+00 0. -1.
        -13    1    4    4    0    0 -0.26997152526E+02 -0.13490201245E+02  0.27697559779E+01  0.30306819733E+02  0.00000000000E+00 0.  1.
         13    1    4    4    0    0  0.63644653084E+02 -0.18433389121E+02  0.69169718910E+02  0.95785602858E+02  0.00000000000E+00 0. -1.
         21    1    1    2  503  502 -0.18037801343E+02 -0.67847677364E+02 -0.12985146280E+03  0.14761460630E+03  0.00000000000E+00 0. -1.
          1    1    1    2  501    0 -0.30906416743E+02  0.87798718783E+02  0.35393319729E+01  0.93146918826E+02  0.00000000000E+00 0. -1.
<scales pt_clust_5="13000.00000" pt_clust_6="13000.00000" pt_clust_7="13000.00000" pt_clust_8="13000.00000" pt_clust_9="70.20448" pt_clust_10="13000.00000"></scales>
<clustering>
<clus scale="   70.204">  2  9  1 -1</clus>
<clus scale="   83.413">  5  6 -1 -1</clus>
<clus scale="   85.948">  1  5  2 -1</clus>
<clus scale="   91.443">  7  8 -1 -1</clus>
<clus scale="   70.398">  7 10 -1 -1</clus>
<clus scale="   70.204">  2  5  1 -1</clus>
</clustering>
</event>
<event>
10    4  0.2565852E-005  0.2670186E+03  0.7546771E-02  0.1149522E+00
         21   -1    0    0  501  502  0.00000000000E+00  0.00000000000E+00  0.32009555946E+03  0.32009555946E+03  0.00000000000E+00 0. -1.
          2   -1    0    0  503    0 -0.00000000000E+00 -0.00000000000E+00 -0.11458986755E+03  0.11458986755E+03  0.00000000000E+00 0. -1.
         24    2    1    2    0    0  0.39346578628E+00  0.26239454368E+02  0.37503114117E+02  0.92954045288E+02  0.80903072785E+02 0.  0.
         23    2    1    2    0    0 -0.91511994197E+02 -0.94436502649E+02  0.93032196660E+02  0.18512870070E+03  0.91241153514E+02 0.  0.
        -11    1    3    3    0    0  0.92037352134E+01 -0.27617202667E+02  0.53017101467E+01  0.29589301369E+02  0.00000000000E+00 0.  1.
         12    1    3    3    0    0 -0.88102694271E+01  0.53856657034E+02  0.32201403970E+02  0.63364743919E+02  0.00000000000E+00 0. -1.
        -13    1    4    4    0    0 -0.26553411722E+02 -0.25477348028E+02 -0.16484195872E+02  0.40322545184E+02  0.00000000000E+00 0.  1.
         13    1    4    4    0    0 -0.64958582475E+02 -0.68959154621E+02  0.10951639253E+03  0.14480615552E+03  0.00000000000E+00 0. -1.
         21    1    1    2  503  502  0.20732352689E+02 -0.10718037353E+02  0.37975413358E+02  0.44573969897E+02  0.00000000000E+00 0. -1.
          1    1    1    2  501    0  0.70386175722E+02  0.78915085634E+02  0.36994967778E+02  0.11202871112E+03  0.00000000000E+00 0. -1.
<scales pt_clust_5="13000.00000" pt_clust_6="13000.00000" pt_clust_7="13000.00000" pt_clust_8="13000.00000" pt_clust_9="23.33895" pt_clust_10="13000.00000"></scales>
<clustering>
<clus scale="   23.339">  1  9  2 -1</clus>
<clus scale="   80.903">  5  6 -1 -1</clus>
<clus scale="   84.475">  2  5  1 -1</clus>
<clus scale="   91.241">  7  8 -1 -1</clus>
<clus scale="  117.105">  7 10 -1 -1</clus>
<clus scale="   23.339">  1  5  2 -1</clus>
</clustering>
</event>
<event>
10    4  0.2565852E-005  0.5536593E+03  0.7546771E-02  0.1040369E+00
          2   -1    0    0  503    0 -0.00000000000E+00  0.00000000000E+00  0.22906204950E+03  0.22906204950E+03  0.00000000000E+00 0. -1.
         21   -1    0    0  501  502  0.00000000000E+00 -0.00000000000E+00 -0.79711527530E+03  0.79711527530E+03  0.00000000000E+00 0. -1.
         24    2    1    2    0    0  0.73508383996E+02 -0.15043338507E+03 -0.12529423965E+03  0.22433360018E+03  0.81198718092E+02 0.  0.
         23    2    1    2    0    0 -0.51963693473E+02  0.28435940258E+03 -0.31441711377E+03  0.43616375077E+03  0.88431899124E+02 0.  0.
        -11    1    3    3    0    0  0.14265357900E+02 -0.49304888605E+02  0.19149617734E+01  0.51362822692E+02  0.00000000000E+00 0.  1.
         12    1    3    3    0    0  0.59243026097E+02 -0.10112849646E+03 -0.12720920143E+03  0.17297077749E+03  0.00000000000E+00 0. -1.
        -11    1    4    4    0    0 -0.35909604784E+02  0.24656037412E+03 -0.30535164527E+03  0.39410803731E+03  0.00000000000E+00 0. -1.
         11    1    4    4    0    0 -0.16054088689E+02  0.37799028455E+02 -0.90654685020E+01  0.42055713464E+02  0.00000000000E+00 0.  1.
         21    1    1    2  503  502 -0.10943686874E+03  0.45008594613E+02 -0.11637139899E+03  0.16596537088E+03  0.00000000000E+00 0.  1.
          1    1    1    2  501    0  0.87892178212E+02 -0.17893461212E+03 -0.11970473384E+02  0.19971460297E+03  0.00000000000E+00 0. -1.
<scales pt_clust_5="13000.00000" pt_clust_6="13000.00000" pt_clust_7="13000.00000" pt_clust_8="13000.00000" pt_clust_9="118.33090" pt_clust_10="13000.00000"></scales>
<clustering>
<clus scale="   81.199">  5  6 -1 -1</clus>
<clus scale="   88.432">  7  8 -1 -1</clus>
<clus scale="  118.331">  2  9  1 -1</clus>
<clus scale="  166.507">  1  5  2 -1</clus>
<clus scale="  258.178">  7 10 -1 -1</clus>
<clus scale="  118.331">  2  5  1 -1</clus>
</clustering>
</event>
<event>
10    4  0.2565852E-005  0.9077822E+03  0.7546771E-02  0.9913095E-01
          2   -1    0    0  503    0 -0.00000000000E+00  0.00000000000E+00  0.10678480750E+04  0.10678480750E+04  0.00000000000E+00 0. -1.
         21   -1    0    0  501  502  0.00000000000E+00 -0.00000000000E+00 -0.35087844524E+03  0.35087844524E+03  0.00000000000E+00 0. -1.
         24    2    1    2    0    0 -0.12599666554E+03  0.73411316542E+02  0.22974811217E+03  0.28384957367E+03  0.80758927083E+02 0.  0.
         23    2    1    2    0    0 -0.14006299607E+03 -0.42601231005E+03  0.41572146440E+03  0.61822954327E+03  0.90990664504E+02 0.  0.
        -13    1    3    3    0    0 -0.22101207093E+02 -0.15828834783E+02  0.58981038639E+02  0.64944424584E+02  0.00000000000E+00 0.  1.
         14    1    3    3    0    0 -0.10389545845E+03  0.89240151324E+02  0.17076707353E+03  0.21890514909E+03  0.00000000000E+00 0. -1.
        -11    1    4    4    0    0 -0.31584331546E+02 -0.10736390760E+03  0.16114478057E+03  0.19619433978E+03  0.00000000000E+00 0.  1.
         11    1    4    4    0    0 -0.10847866452E+03 -0.31864840244E+03  0.25457668383E+03  0.42203520349E+03  0.00000000000E+00 0. -1.
         21    1    1    2  503  502 -0.13992148965E+02  0.31324931660E+02 -0.61290072849E+02  0.70238910911E+02  0.00000000000E+00 0. -1.
          1    1    1    2  501    0  0.28005181058E+03  0.32127606184E+03  0.13279012608E+03  0.44640849242E+03  0.00000000000E+00 0. -1.
<scales pt_clust_5="13000.00000" pt_clust_6="13000.00000" pt_clust_7="13000.00000" pt_clust_8="13000.00000" pt_clust_9="34.30789" pt_clust_10="13000.00000"></scales>
<clustering>
<clus scale="   34.308">  2  9  1 -1</clus>
<clus scale="   80.759">  5  6 -1 -1</clus>
<clus scale="   90.991">  7  8 -1 -1</clus>
<clus scale="  169.020">  1  5  2 -1</clus>
<clus scale="  430.400">  7 10 -1 -1</clus>
<clus scale="   34.308">  2  5  1 -1</clus>
</clustering>
</event>
<event>
10    4  0.2565852E-005  0.4317142E+03  0.7546771E-02  0.1058381E+00
         -1   -1    0    0    0  501 -0.00000000000E+00  0.00000000000E+00  0.71910507786E+03  0.71910507786E+03  0.00000000000E+00 0.  1.
         21   -1    0    0  503  502  0.00000000000E+00 -0.00000000000E+00 -0.20120966728E+03  0.20120966728E+03  0.00000000000E+00 0.  1.
         24    2    1    2    0    0 -0.12206293270E+03 -0.14759116657E+03  0.34852228930E+03  0.40556580705E+03  0.79582194741E+02 0.  0.
         23    2    1    2    0    0 -0.42050941304E+02 -0.22135274338E+02  0.19278269028E+03  0.21931078102E+03  0.93133243061E+02 0.  0.
        -13    1    3    3    0    0 -0.90298801777E+02 -0.14985450686E+03  0.28300108078E+03  0.33271588262E+03  0.00000000000E+00 0.  1.
         14    1    3    3    0    0 -0.31764130922E+02  0.22633402919E+01  0.65521208523E+02  0.72849924426E+02  0.00000000000E+00 0. -1.
        -11    1    4    4    0    0  0.19198101039E+02 -0.89179336090E+01  0.55674952259E+01  0.21888207475E+02  0.00000000000E+00 0.  1.
         11    1    4    4    0    0 -0.61249042343E+02 -0.13217340729E+02  0.18721519506E+03  0.19742257354E+03  0.00000000000E+00 0. -1.
         21    1    1    2  503  501  0.19057257161E+02 -0.37198739414E+02 -0.41168630541E+01  0.41998497900E+02  0.00000000000E+00 0.  1.
         -2    1    1    2    0  502  0.14505661684E+03  0.20692518032E+03 -0.19292705953E+02  0.25343965917E+03  0.00000000000E+00 0.  1.
<scales pt_clust_5="13000.00000" pt_clust_6="13000.00000" pt_clust_7="13000.00000" pt_clust_8="13000.00000" pt_clust_9="41.79624" pt_clust_10="13000.00000"></scales>
<clustering>
<clus scale="   41.796">  2  9  1 -1</clus>
<clus scale="   79.582">  5  6 -1 -1</clus>
<clus scale="   93.133">  7  8 -1 -1</clus>
<clus scale="  209.937">  1  5  2 -1</clus>
<clus scale="  171.628">  7 10 -1 -1</clus>
<clus scale="   41.796">  2  5  1 -1</clus>
</clustering>
</event>
<event>
10    4  0.2565852E-005  0.2098580E+03  0.7546771E-02  0.1167696E+00
         21   -1    0    0  503  502  0.00000000000E+00  0.00000000000E+00  0.34984022444E+02  0.34984022444E+02  0.00000000000E+00 0.  1.
          2   -1    0    0  502    0 -0.00000000000E+00 -0.00000000000E+00 -0.11212810876E+04  0.11212810876E+04  0.00000000000E+00 0. -1.
         24    2    1    2    0    0 -0.95199610904E+02  0.54643898034E+02 -0.31672532355E+03  0.34427007485E+03  0.78473131418E+02 0.  0.
         23    2    1    2    0    0  0.25813071185E+02 -0.71528704958E+02 -0.23669958134E+03  0.26435095721E+03  0.89844679820E+02 0.  0.
        -11    1    3    3    0    0 -0.10494223211E+03  0.54895972356E+02 -0.31140645772E+03  0.33316725795E+03  0.00000000000E+00 0.  1.
         12    1    3    3    0    0  0.97426212089E+01 -0.25207432283E+00 -0.53188658319E+01  0.11102816905E+02  0.00000000000E+00 0. -1.
        -13    1    4    4    0    0  0.56320350367E+02 -0.30119039594E+02 -0.10416820480E+03  0.12218900647E+03  0.00000000000E+00 0.  1.
         13    1    4    4    0    0 -0.30507279181E+02 -0.41409665364E+02 -0.13253137654E+03  0.14216195074E+03  0.00000000000E+00 0. -1.
         21    1    1    2  503  501  0.49157920101E+02 -0.31016109994E+02 -0.14364790055E+03  0.15496199379E+03  0.00000000000E+00 0. -1.
          1    1    1    2  501    0  0.20228619618E+02  0.47900916918E+02 -0.38922425975E+03  0.39268208422E+03  0.00000000000E+00 0. -1.
<scales pt_clust_5="13000.00000" pt_clust_6="13000.00000" pt_clust_7="13000.00000" pt_clust_8="13000.00000" pt_clust_9="58.12487" pt_clust_10="13000.00000"></scales>
<clustering>
<clus scale="   58.125">  1  9  2 -1</clus>
<clus scale="   78.473">  5  6 -1 -1</clus>
<clus scale="   89.845">  7  8 -1 -1</clus>
<clus scale="   51.551">  7 10 -1 -1</clus>
<clus scale="  113.863">  2  5  1 -1</clus>
<clus scale="   58.125">  1  5  2 -1</clus>
</clustering>
</event>
<event>
10    4  0.2565852E-005  0.3194881E+03  0.7546771E-02  0.1080362E+00
          2   -1    0    0  503    0 -0.00000000000E+00  0.00000000000E+00  0.17085105465E+04  0.17085105465E+04  0.00000000000E+00 0. -1.
         21   -1    0    0  501  502  0.00000000000E+00 -0.00000000000E+00 -0.13135172783E+03  0.13135172783E+03  0.00000000000E+00 0. -1.
         24    2    1    2    0    0 -0.18061812987E+03  0.18211388733E+03  0.11401486470E+04  0.11713912722E+04  0.80188519118E+02 0.  0.
         23    2    1    2    0    0  0.61065303886E+02 -0.82345994422E+02  0.91450620614E+02  0.16494568371E+03  0.91290900021E+02 0.  0.
        -11    1    3    3    0    0  0.45414276936E+01  0.23477037373E+02  0.13431853980E+03  0.13643044376E+03  0.00000000000E+00 0.  1.
         12    1    3    3    0    0 -0.18515955756E+03  0.15863684995E+03  0.10058301072E+04  0.10349608285E+04  0.00000000000E+00 0. -1.
        -11    1    4    4    0    0  0.18770921414E+02 -0.83957705370E+01  0.75531331768E+02  0.78280384084E+02  0.00000000000E+00 0.  1.
         11    1    4    4    0    0  0.42294382473E+02 -0.73950223885E+02  0.15919288846E+02  0.86665299623E+02  0.00000000000E+00 0. -1.
         21    1    1    2  503  502 -0.64586743335E+02  0.83957322228E+02  0.10736785562E+03  0.15082485137E+03  0.00000000000E+00 0. -1.
          1    1    1    2  501    0  0.18413956932E+03 -0.18372521513E+03  0.23819169541E+03  0.35270046701E+03  0.00000000000E+00 0. -1.
<scales pt_clust_5="13000.00000" pt_clust_6="13000.00000" pt_clust_7="13000.00000" pt_clust_8="13000.00000" pt_clust_9="105.92582" pt_clust_10="13000.00000"></scales>
<clustering>
<clus scale="   80.189">  5  6 -1 -1</clus>
<clus scale="   91.291">  7  8 -1 -1</clus>
<clus scale="  105.926">  2  9  1 -1</clus>
<clus scale="  205.396">  7 10 -1 -1</clus>
<clus scale="  283.070">  1  5  2 -1</clus>
<clus scale="  105.926">  2  5  1 -1</clus>
</clustering>
</event>
<event>
10    4  0.2565852E-005  0.5740839E+03  0.7546771E-02  0.1060614E+00
          2   -1    0    0  503    0 -0.00000000000E+00  0.00000000000E+00  0.39135892834E+03  0.39135892834E+03  0.00000000000E+00 0. -1.
         21   -1    0    0  501  502  0.00000000000E+00 -0.00000000000E+00 -0.11540417264E+04  0.11540417264E+04  0.00000000000E+00 0. -1.
         24    2    1    2    0    0 -0.16409941831E+02  0.19632445262E+02  0.16669647249E+03  0.18660512947E+03  0.79868900736E+02 0.  0.
         23    2    1    2    0    0  0.13675794117E+03  0.18297767682E+03 -0.12836264173E+03  0.27787660837E+03  0.92492578076E+02 0.  0.
        -11    1    3    3    0    0  0.13112999315E+01 -0.27367013701E+02  0.96328216637E+02  0.10014888051E+03  0.00000000000E+00 0.  1.
         12    1    3    3    0    0 -0.17721241762E+02  0.46999458963E+02  0.70368255855E+02  0.86456248962E+02  0.00000000000E+00 0. -1.
        -13    1    4    4    0    0  0.14007188809E+03  0.16121179282E+03 -0.86184551193E+02  0.23029796534E+03  0.00000000000E+00 0.  1.
         13    1    4    4    0    0 -0.33139469275E+01  0.21765884003E+02 -0.42178090534E+02  0.47578643021E+02  0.00000000000E+00 0. -1.
         21    1    1    2  503  502 -0.31851873348E+03  0.70418847334E+02 -0.61376751906E+03  0.69507090652E+03  0.00000000000E+00 0. -1.
          1    1    1    2  501    0  0.19817073415E+03 -0.27302896942E+03 -0.18724910977E+03  0.38584801039E+03  0.00000000000E+00 0. -1.
<scales pt_clust_5="13000.00000" pt_clust_6="13000.00000" pt_clust_7="13000.00000" pt_clust_8="13000.00000" pt_clust_9="330.05944" pt_clust_10="13000.00000"></scales>
<clustering>
<clus scale="   79.869">  5  6 -1 -1</clus>
<clus scale="   83.868">  1  5  2 -1</clus>
<clus scale="   92.493">  7  8 -1 -1</clus>
<clus scale="  325.562">  7 10 -1 -1</clus>
<clus scale="  330.059">  2  9  1 -1</clus>
<clus scale="  330.059">  2  5  1 -1</clus>
</clustering>
</event>
<event>
10    4  0.2565852E-005  0.3383350E+03  0.7546771E-02  0.1092711E+00
          2   -1    0    0  502    0 -0.00000000000E+00  0.00000000000E+00  0.61898051353E+03  0.61898051353E+03  0.00000000000E+00 0. -1.
         21   -1    0    0  503  502  0.00000000000E+00 -0.00000000000E+00 -0.15284961589E+03  0.15284961589E+03  0.00000000000E+00 0. -1.
         24    2    1    2    0    0  0.10497789142E+03  0.72293441172E+02  0.50210955903E+02  0.15867689036E+03  0.80065698768E+02 0.  0.
         23    2    1    2    0    0  0.89712726845E+01  0.44345245015E+02  0.35837627247E+02  0.10760666085E+03  0.90817803555E+02 0.  0.
        -13    1    3    3    0    0  0.49082304424E+02  0.28088140555E+02  0.64726220789E+02  0.85950566636E+02  0.00000000000E+00 0.  1.
         14    1    3    3    0    0  0.55895586996E+02  0.44205300617E+02 -0.14515264886E+02  0.72726323728E+02  0.00000000000E+00 0. -1.
        -13    1    4    4    0    0  0.36045536389E+02  0.60133705141E+02  0.25546378127E+02  0.74618768570E+02  0.00000000000E+00 0.  1.
         13    1    4    4    0    0 -0.27074263705E+02 -0.15788460125E+02  0.10291249121E+02  0.32987892275E+02  0.00000000000E+00 0. -1.
         21    1    1    2  503  501  0.51165938609E+02  0.17529339567E+02 -0.15602602800E+02  0.56290960496E+02  0.00000000000E+00 0. -1.
          1    1    1    2  501    0 -0.16511510271E+03 -0.13416802575E+03  0.39568491729E+03  0.44925561772E+03  0.00000000000E+00 0. -1.
<scales pt_clust_5="13000.00000" pt_clust_6="13000.00000" pt_clust_7="13000.00000" pt_clust_8="13000.00000" pt_clust_9="54.08540" pt_clust_10="13000.00000"></scales>
<clustering>
<clus scale="   54.085">  2  9  1 -1</clus>
<clus scale="   80.066">  5  6 -1 -1</clus>
<clus scale="   90.818">  7  8 -1 -1</clus>
<clus scale="  171.599">  1  5  2 -1</clus>
<clus scale="   81.618">  7 10 -1 -1</clus>
<clus scale="   54.085">  2  5  1 -1</clus>
</clustering>
</event>
<event>
10    4  0.2565852E-005  0.1384437E+03  0.7546771E-02  0.1234990E+00
         -1   -1    0    0    0  501 -0.00000000000E+00  0.00000000000E+00  0.39499402671E+03  0.39499402671E+03  0.00000000000E+00 0.  1.
         21   -1    0    0  501  502  0.00000000000E+00 -0.00000000000E+00 -0.62913986165E+02  0.62913986165E+02  0.00000000000E+00 0.  1.
         24    2    1    2    0    0  0.28370472800E+02 -0.18323574069E+02  0.19149205121E+03  0.21393054245E+03  0.89198846527E+02 0.  0.
         23    2    1    2    0    0 -0.22846049798E+02 -0.48444718464E+02  0.73940234489E+02  0.13360454520E+03  0.97540676040E+02 0.  0.
        -11    1    3    3    0    0  0.48896149726E+02 -0.32385632726E+02  0.17372441918E+03  0.18335712826E+03  0.00000000000E+00 0.  1.
         12    1    3    3    0    0 -0.20525676926E+02  0.14062058656E+02  0.17767632026E+02  0.30573414182E+02  0.00000000000E+00 0. -1.
        -11    1    4    4    0    0 -0.21946003152E+02 -0.75082263950E+02  0.33328547049E+02  0.85028027513E+02  0.00000000000E+00 0.  1.
         11    1    4    4    0    0 -0.90004664547E+00  0.26637545487E+02  0.40611687440E+02  0.48576517683E+02  0.00000000000E+00 0. -1.
         21    1    1    2  503  502 -0.22759143830E+02  0.51197809217E+02  0.22285073359E+02  0.60297751128E+02  0.00000000000E+00 0.  1.
         -2    1    1    2    0  503  0.17234720828E+02  0.15570483316E+02  0.44362681483E+02  0.50075174100E+02  0.00000000000E+00 0.  1.
<scales pt_clust_5="13000.00000" pt_clust_6="13000.00000" pt_clust_7="13000.00000" pt_clust_8="13000.00000" pt_clust_9="56.02851" pt_clust_10="13000.00000"></scales>
<clustering>
<clus scale="   56.029">  2  9  1 -1</clus>
<clus scale="   89.199">  5  6 -1 -1</clus>
<clus scale="   92.156">  1  5  2 -1</clus>
<clus scale="   97.541">  7  8 -1 -1</clus>
<clus scale="   28.504">  7 10 -1 -1</clus>
<clus scale="   56.029">  2  5  1 -1</clus>
</clustering>
</event>
<event>
10    4  0.2565852E-005  0.4667960E+03  0.7546771E-02  0.1042933E+00
         21   -1    0    0  501  502  0.00000000000E+00  0.00000000000E+00  0.96443087526E+02  0.96443087526E+02  0.00000000000E+00 0. -1.
          2   -1    0    0  503    0 -0.00000000000E+00 -0.00000000000E+00 -0.14830306920E+04  0.14830306920E+04  0.00000000000E+00 0. -1.
         24    2    1    2    0    0  0.16630981321E+03  0.16972486381E+03 -0.50256881310E+03  0.56128584724E+03  0.77465521695E+02 0.  0.
         23    2    1    2    0    0  0.20512892280E+02 -0.58155803413E+02 -0.26919204897E+02  0.11537168180E+03  0.93718222072E+02 0.  0.
        -13    1    3    3    0    0  0.88851373979E+02  0.12344859692E+03 -0.37815933402E+03  0.40760103612E+03  0.00000000000E+00 0.  1.
         14    1    3    3    0    0  0.77458439234E+02  0.46276266882E+02 -0.12440947908E+03  0.15368481112E+03  0.00000000000E+00 0. -1.
        -11    1    4    4    0    0  0.35156157515E+02 -0.79027040254E+02 -0.17894174713E+02  0.88325704023E+02  0.00000000000E+00 0.  1.
         11    1    4    4    0    0 -0.14643265235E+02  0.20871236841E+02 -0.90250301847E+01  0.27045977776E+02  0.00000000000E+00 0. -1.
         21    1    1    2  503  502  0.20178016400E+02  0.16664229992E+02 -0.26437333503E+02  0.37199213834E+02  0.00000000000E+00 0. -1.
          1    1    1    2  501    0 -0.20700072189E+03 -0.12823329038E+03 -0.83066225301E+03  0.86561703669E+03  0.00000000000E+00 0. -1.
<scales pt_clust_5="13000.00000" pt_clust_6="13000.00000" pt_clust_7="13000.00000" pt_clust_8="13000.00000" pt_clust_9="26.16962" pt_clust_10="13000.00000"></scales>
<clustering>
<clus scale="   26.170">  1  9  2 -1</clus>
<clus scale="   77.466">  5  6 -1 -1</clus>
<clus scale="   93.718">  7  8 -1 -1</clus>
<clus scale="  238.526">  7 10 -1 -1</clus>
<clus scale="  257.925">  2  5  1 -1</clus>
<clus scale="   26.170">  1  5  2 -1</clus>
</clustering>
</event>
<event>
10    4  0.2565852E-005  0.1770867E+03  0.7546771E-02  0.1179533E+00
          2   -1    0    0  502    0 -0.00000000000E+00  0.00000000000E+00  0.64227871452E+03  0.64227871452E+03  0.00000000000E+00 0. -1.
         21   -1    0    0  503  502  0.00000000000E+00 -0.00000000000E+00 -0.20941501430E+03  0.20941501430E+03  0.00000000000E+00 0.  1.
         24    2    1    2    0    0  0.13894195876E+03  0.38480184335E+02  0.13476778217E+03  0.21377776261E+03  0.82176542802E+02 0.  0.
         23    2    1    2    0    0 -0.45313167135E+02 -0.91780262014E+01  0.23117631843E+03  0.25348539366E+03  0.93138795978E+02 0.  0.
        -11    1    3    3    0    0  0.51721965511E+02 -0.24478310431E+02  0.59086362712E+02  0.82252949226E+02  0.00000000000E+00 0.  1.
         12    1    3    3    0    0  0.87219993245E+02  0.62958494766E+02  0.75681419457E+02  0.13152481338E+03  0.00000000000E+00 0. -1.
        -13    1    4    4    0    0 -0.53603121666E+02  0.28864930928E+02  0.10428974028E+03  0.12075938397E+03  0.00000000000E+00 0.  1.
         13    1    4    4    0    0  0.82899545313E+01 -0.38042957130E+02  0.12688657815E+03  0.13272600969E+03  0.00000000000E+00 0. -1.
         21    1    1    2  503  501 -0.32516628709E+02 -0.13244361996E+02 -0.15229568849E+03  0.15629050195E+03  0.00000000000E+00 0.  1.
          1    1    1    2  501    0 -0.61112162912E+02 -0.16057796138E+02  0.21921528811E+03  0.22814007060E+03  0.00000000000E+00 0. -1.
<scales pt_clust_5="13000.00000" pt_clust_6="13000.00000" pt_clust_7="13000.00000" pt_clust_8="13000.00000" pt_clust_9="35.11046" pt_clust_10="13000.00000"></scales>
<clustering>
<clus scale="   35.110">  2  9  1 -1</clus>
<clus scale="   82.177">  5  6 -1 -1</clus>
<clus scale="   93.139">  7  8 -1 -1</clus>
<clus scale="   66.006">  7 10 -1 -1</clus>
<clus scale="  144.794">  1  5  2 -1</clus>
<clus scale="   35.110">  2  5  1 -1</clus>
</clustering>
</event>
<event>
10    4  0.2565852E-005  0.7065560E+03  0.7546771E-02  0.1007657E+00
          2   -1    0    0  503    0 -0.00000000000E+00  0.00000000000E+00  0.17918124911E+04  0.17918124911E+04  0.00000000000E+00 0. -1.
         21   -1    0    0  501  502  0.00000000000E+00 -0.00000000000E+00 -0.16086520978E+03  0.16086520978E+03  0.00000000000E+00 0. -1.
         24    2    1    2    0    0 -0.16316662127E+03  0.79837317280E+02  0.58311830963E+03  0.62011099592E+03  0.10730023629E+03 0.  0.
         23    2    1    2    0    0  0.97075351098E+02  0.12984899830E+03  0.20809691826E+00  0.18538132163E+03  0.89898859580E+02 0.  0.
        -13    1    3    3    0    0 -0.33456784958E+02  0.72759989407E+02  0.19389175261E+03  0.20977937041E+03  0.00000000000E+00 0.  1.
         14    1    3    3    0    0 -0.12970983631E+03  0.70773278726E+01  0.38922655702E+03  0.41033162551E+03  0.00000000000E+00 0. -1.
        -13    1    4    4    0    0  0.51757723201E+02  0.69820237909E+02  0.44968277593E+02  0.97856392343E+02  0.00000000000E+00 0.  1.
         13    1    4    4    0    0  0.45317627897E+02  0.60028760389E+02 -0.44760180675E+02  0.87524929284E+02  0.00000000000E+00 0. -1.
         21    1    1    2  503  502 -0.10491913639E+02  0.32472312987E+02 -0.26650773349E+02  0.43298903942E+02  0.00000000000E+00 0.  1.
          1    1    1    2  501    0  0.76583183812E+02 -0.24215862856E+03  0.10742716481E+04  0.11038864794E+04  0.00000000000E+00 0. -1.
<scales pt_clust_5="13000.00000" pt_clust_6="13000.00000" pt_clust_7="13000.00000" pt_clust_8="13000.00000" pt_clust_9="34.12523" pt_clust_10="13000.00000"></scales>
<clustering>
<clus scale="   34.125">  2  9  1 -1</clus>
<clus scale="   89.899">  7  8 -1 -1</clus>
<clus scale="  107.300">  5  6 -1 -1</clus>
<clus scale="  214.011">  1  5  2 -1</clus>
<clus scale="  177.800">  7 10 -1 -1</clus>
<clus scale="   34.125">  2  5  1 -1</clus>
</clustering>
</event>
<event>
10    4  0.2565852E-005  0.1717106E+03  0.7546771E-02  0.1204024E+00
          2   -1    0    0  502    0 -0.00000000000E+00  0.00000000000E+00  0.14676121273E+03  0.14676121273E+03  0.00000000000E+00 0. -1.
         21   -1    0    0  503  502  0.00000000000E+00 -0.00000000000E+00 -0.30233918010E+03  0.30233918010E+03  0.00000000000E+00 0. -1.
         24    2    1    2    0    0 -0.12039028517E+02  0.89076653375E+02 -0.14662191411E+03  0.18983239063E+03  0.80366426147E+02 0.  0.
         23    2    1    2    0    0 -0.40284523092E+02 -0.54142823867E+02  0.63294569354E+02  0.13267574557E+03  0.95091339117E+02 0.  0.
        -13    1    3    3    0    0  0.27654083518E+02  0.90937681773E+01 -0.21833896058E+02  0.36389063906E+02  0.00000000000E+00 0.  1.
         14    1    3    3    0    0 -0.39693112034E+02  0.79982885198E+02 -0.12478801805E+03  0.15344332672E+03  0.00000000000E+00 0. -1.
        -13    1    4    4    0    0 -0.10337598777E+02  0.22044897559E+02  0.41245918219E+02  0.47896442734E+02  0.00000000000E+00 0.  1.
         13    1    4    4    0    0 -0.29946924315E+02 -0.76187721426E+02  0.22048651135E+02  0.84779302834E+02  0.00000000000E+00 0. -1.
         21    1    1    2  503  501  0.23264908765E+02 -0.59862849368E+02 -0.55174715419E+02  0.84670336812E+02  0.00000000000E+00 0. -1.
          1    1    1    2  501    0  0.29058642844E+02  0.24929019860E+02 -0.17075907204E+02  0.41921919827E+02  0.00000000000E+00 0. -1.
<scales pt_clust_5="13000.00000" pt_clust_6="13000.00000" pt_clust_7="13000.00000" pt_clust_8="13000.00000" pt_clust_9="64.22474" pt_clust_10="13000.00000"></scales>
<clustering>
<clus scale="   64.225">  2  9  1 -1</clus>
<clus scale="   80.366">  5  6 -1 -1</clus>
<clus scale="   92.599">  1  5  2 -1</clus>
<clus scale="   95.091">  7  8 -1 -1</clus>
<clus scale="   39.699">  7 10 -1 -1</clus>
<clus scale="   64.225">  2  5  1 -1</clus>
</clustering>
</event>
<event>
10    4  0.2565852E-005  0.3478245E+03  0.7546771E-02  0.1075701E+00
          2   -1    0    0  503    0 -0.00000000000E+00  0.00000000000E+00  0.30441118088E+04  0.30441118088E+04  0.00000000000E+00 0. -1.
         21   -1    0    0  501  502  0.00000000000E+00 -0.00000000000E+00 -0.56895444156E+02  0.56895444156E+02  0.00000000000E+00 0. -1.
         24    2    1    2    0    0  0.19926561300E+03  0.12843306525E+03  0.20655450314E+04  0.20806638607E+04  0.80523211794E+02 0.  0.
         23    2    1    2    0    0  0.16144300906E+01 -0.13241934521E+03  0.31526397698E+03  0.35514218238E+03  0.95901538855E+02 0.  0.
        -13    1    3    3    0    0  0.22797765339E+02  0.97326858421E+01  0.79772444709E+02  0.83535059784E+02  0.00000000000E+00 0.  1.
         14    1    3    3    0    0  0.17646784766E+03  0.11870037940E+03  0.19857725867E+04  0.19971288009E+04  0.00000000000E+00 0. -1.
        -11    1    4    4    0    0  0.47150334158E+02 -0.46626560136E+02  0.12292464060E+03  0.13966981560E+03  0.00000000000E+00 0. -1.
         11    1    4    4    0    0 -0.45535904067E+02 -0.85792785077E+02  0.19233933637E+03  0.21547236678E+03  0.00000000000E+00 0.  1.
         21    1    1    2  503  502 -0.33863243062E+02  0.35146741574E+02  0.16820653438E+02  0.51623125206E+02  0.00000000000E+00 0. -1.
          1    1    1    2  501    0 -0.16701680003E+03 -0.31160461606E+02  0.58958670287E+03  0.61357808473E+03  0.00000000000E+00 0. -1.
<scales pt_clust_5="13000.00000" pt_clust_6="13000.00000" pt_clust_7="13000.00000" pt_clust_8="13000.00000" pt_clust_9="48.80587" pt_clust_10="13000.00000"></scales>
<clustering>
<clus scale="   48.806">  2  9  1 -1</clus>
<clus scale="   80.523">  5  6 -1 -1</clus>
<clus scale="   95.902">  7  8 -1 -1</clus>
<clus scale="  178.482">  7 10 -1 -1</clus>
<clus scale="  248.833">  1  5  2 -1</clus>
<clus scale="   48.806">  2  5  1 -1</clus>
</clustering>
</event>
<event>
10    4  0.2565852E-005  0.4749477E+03  0.7546771E-02  0.1029602E+00
         21   -1    0    0  501  502  0.00000000000E+00  0.00000000000E+00  0.11480006515E+03  0.11480006515E+03  0.00000000000E+00 0. -1.
          2   -1    0    0  503    0 -0.00000000000E+00 -0.00000000000E+00 -0.18306844685E+04  0.18306844685E+04  0.00000000000E+00 0. -1.
         24    2    1    2    0    0 -0.32047931897E+03 -0.14122611376E+03 -0.10343803600E+04  0.10950804309E+04  0.81281067976E+02 0.  0.
         23    2    1    2    0    0 -0.16839880351E+02  0.15937698219E+02 -0.22992505387E+03  0.24808231475E+03  0.90231439625E+02 0.  0.
        -13    1    3    3    0    0 -0.26189398193E+03 -0.80670797740E+02 -0.75079999761E+03  0.79924769114E+03  0.00000000000E+00 0.  1.
         14    1    3    3    0    0 -0.58585337040E+02 -0.60555316018E+02 -0.28358036235E+03  0.29583273978E+03  0.00000000000E+00 0. -1.
        -13    1    4    4    0    0 -0.45860774205E+02 -0.11201249575E+02 -0.79149237425E+02  0.92158995154E+02  0.00000000000E+00 0. -1.
         13    1    4    4    0    0  0.29020893854E+02  0.27138947793E+02 -0.15077581645E+03  0.15592331959E+03  0.00000000000E+00 0.  1.
         21    1    1    2  503  502 -0.18404577800E+02  0.20453362830E+02 -0.26350265820E+02  0.38097310191E+02  0.00000000000E+00 0. -1.
          1    1    1    2  501    0  0.35572377712E+03  0.10483505271E+03 -0.42522872367E+03  0.56422447777E+03  0.00000000000E+00 0. -1.
<scales pt_clust_5="13000.00000" pt_clust_6="13000.00000" pt_clust_7="13000.00000" pt_clust_8="13000.00000" pt_clust_9="27.51488" pt_clust_10="13000.00000"></scales>
<clustering>
<clus scale="   27.515">  1  9  2 -1</clus>
<clus scale="   81.281">  5  6 -1 -1</clus>
<clus scale="   90.231">  7  8 -1 -1</clus>
<clus scale="  361.931">  2  5  1 -1</clus>
<clus scale="  133.324">  7 10 -1 -1</clus>
<clus scale="   27.515">  1  5  2 -1</clus>
</clustering>
</event>
<event>
10    4  0.2565852E-005  0.2453632E+03  0.7546771E-02  0.1151049E+00
         21   -1    0    0  503  502  0.00000000000E+00  0.00000000000E+00  0.10067017478E+03  0.10067017478E+03  0.00000000000E+00 0. -1.
          2   -1    0    0  502    0 -0.00000000000E+00 -0.00000000000E+00 -0.45217025131E+03  0.45217025131E+03  0.00000000000E+00 0. -1.
         24    2    1    2    0    0 -0.34133941016E+02  0.67522052382E+02 -0.12992583686E+02  0.11267632140E+03  0.82479043916E+02 0.  0.
         23    2    1    2    0    0 -0.53089208250E+02  0.35812380869E+02 -0.22164514087E+03  0.24786895469E+03  0.90617104198E+02 0.  0.
        -11    1    3    3    0    0 -0.17679982485E+02  0.43091555634E+02 -0.48028279445E+02  0.66904256771E+02  0.00000000000E+00 0.  1.
         12    1    3    3    0    0 -0.16453958531E+02  0.24430496749E+02  0.35035695759E+02  0.45772064625E+02  0.00000000000E+00 0. -1.
        -13    1    4    4    0    0  0.19708246395E+02  0.17896897359E+02 -0.11147828779E+03  0.11461292493E+03  0.00000000000E+00 0.  1.
         13    1    4    4    0    0 -0.72797454645E+02  0.17915483509E+02 -0.11016685308E+03  0.13325602977E+03  0.00000000000E+00 0. -1.
         21    1    1    2  503  501 -0.65424058460E+01 -0.26325216519E+02 -0.56610257715E+01  0.27710418831E+02  0.00000000000E+00 0. -1.
          1    1    1    2  501    0  0.93765555112E+02 -0.77009216732E+02 -0.11120132620E+03  0.16458473117E+03  0.00000000000E+00 0. -1.
<scales pt_clust_5="13000.00000" pt_clust_6="13000.00000" pt_clust_7="13000.00000" pt_clust_8="13000.00000" pt_clust_9="27.12600" pt_clust_10="13000.00000"></scales>
<clustering>
<clus scale="   27.126">  1  9  2 -1</clus>
<clus scale="   82.479">  5  6 -1 -1</clus>
<clus scale="   90.617">  7  8 -1 -1</clus>
<clus scale="  105.007">  2  5  1 -1</clus>
<clus scale="  100.408">  7 10 -1 -1</clus>
<clus scale="   27.126">  1  5  2 -1</clus>
</clustering>
</event>
<event>
10    4  0.2565852E-005  0.4165009E+03  0.7546771E-02  0.1078065E+00
          2   -1    0    0  502    0 -0.00000000000E+00  0.00000000000E+00  0.36612305205E+03  0.36612305205E+03  0.00000000000E+00 0. -1.
         21   -1    0    0  503  502  0.00000000000E+00 -0.00000000000E+00 -0.26427913084E+03  0.26427913084E+03  0.00000000000E+00 0.  1.
         24    2    1    2    0    0  0.35884457824E+02  0.10213949523E+03 -0.28947519341E+02  0.14134852431E+03  0.86146826114E+02 0.  0.
         23    2    1    2    0    0 -0.27917125199E+02  0.12955974509E+03 -0.38532247638E+02  0.16631073538E+03  0.92787031249E+02 0.  0.
        -13    1    3    3    0    0  0.48799604651E+02  0.83595350928E+02 -0.51310814786E+02  0.10955539158E+03  0.00000000000E+00 0.  1.
         14    1    3    3    0    0 -0.12915146826E+02  0.18544144300E+02  0.22363295445E+02  0.31793132726E+02  0.00000000000E+00 0. -1.
        -13    1    4    4    0    0 -0.52639646483E+02  0.67190824340E+02 -0.48982637948E+02  0.98411574917E+02  0.00000000000E+00 0.  1.
         13    1    4    4    0    0  0.24722521284E+02  0.62368920748E+02  0.10450390310E+02  0.67899160462E+02  0.00000000000E+00 0. -1.
         21    1    1    2  503  501  0.41874593775E+02 -0.28238988491E+02 -0.42686165556E+01  0.50686715835E+02  0.00000000000E+00 0. -1.
          1    1    1    2  501    0 -0.49841926401E+02 -0.20346025183E+03  0.17359230475E+03  0.27205620737E+03  0.00000000000E+00 0. -1.
<scales pt_clust_5="13000.00000" pt_clust_6="13000.00000" pt_clust_7="13000.00000" pt_clust_8="13000.00000" pt_clust_9="50.50665" pt_clust_10="13000.00000"></scales>
<clustering>
<clus scale="   50.507">  2  9  1 -1</clus>
<clus scale="   86.147">  5  6 -1 -1</clus>
<clus scale="   92.787">  7  8 -1 -1</clus>
<clus scale="  135.933">  1  5  2 -1</clus>
<clus scale="  138.147">  7 10 -1 -1</clus>
<clus scale="   50.507">  2  5  1 -1</clus>
</clustering>
</event>
<event>
10    4  0.2565852E-005  0.3457599E+03  0.7546771E-02  0.1117904E+00
         21   -1    0    0  503  502  0.00000000000E+00  0.00000000000E+00  0.26413079936E+03  0.26413079936E+03  0.00000000000E+00 0. -1.
          2   -1    0    0  502    0 -0.00000000000E+00 -0.00000000000E+00 -0.70373901303E+03  0.70373901303E+03  0.00000000000E+00 0. -1.
         24    2    1    2    0    0  0.11694103961E+02  0.23761640468E+02 -0.27885518407E+03  0.29141155420E+03  0.80368604631E+02 0.  0.
         23    2    1    2    0    0  0.53414901936E+02  0.14548146479E+03 -0.22169776776E+03  0.28576707017E+03  0.92167835064E+02 0.  0.
        -11    1    3    3    0    0  0.38748798052E+02  0.36717933766E+02 -0.15350797578E+03  0.16252499697E+03  0.00000000000E+00 0.  1.
         12    1    3    3    0    0 -0.27054694091E+02 -0.12956293299E+02 -0.12534720829E+03  0.12888655723E+03  0.00000000000E+00 0. -1.
        -11    1    4    4    0    0 -0.15066140038E+02  0.15525056196E+02 -0.23304332995E+01  0.21758834181E+02  0.00000000000E+00 0.  1.
         11    1    4    4    0    0  0.68481041975E+02  0.12995640860E+03 -0.21936733446E+03  0.26400823599E+03  0.00000000000E+00 0. -1.
         21    1    1    2  503  501  0.12557819929E+02 -0.28305425033E+02  0.18495597380E+03  0.18753028601E+03  0.00000000000E+00 0. -1.
          1    1    1    2  501    0 -0.77666825826E+02 -0.14093768023E+03 -0.12401123564E+03  0.20316090201E+03  0.00000000000E+00 0. -1.
<scales pt_clust_5="13000.00000" pt_clust_6="13000.00000" pt_clust_7="13000.00000" pt_clust_8="13000.00000" pt_clust_9="30.96604" pt_clust_10="13000.00000"></scales>
<clustering>
<clus scale="   30.966">  1  9  2 -1</clus>
<clus scale="   80.369">  5  6 -1 -1</clus>
<clus scale="   84.154">  2  5  1 -1</clus>
<clus scale="   92.168">  7  8 -1 -1</clus>
<clus scale="  159.918">  7 10 -1 -1</clus>
<clus scale="   30.966">  1  5  2 -1</clus>
</clustering>
</event>
<event>
10    4  0.2565852E-005  0.3361090E+03  0.7546771E-02  0.1104419E+00
         21   -1    0    0  503  502  0.00000000000E+00  0.00000000000E+00  0.15492044736E+03  0.15492044736E+03  0.00000000000E+00 0. -1.
          2   -1    0    0  502    0 -0.00000000000E+00 -0.00000000000E+00 -0.15138630075E+04  0.15138630075E+04  0.00000000000E+00 0. -1.
         24    2    1    2    0    0  0.10460759221E+03  0.12893829174E+02 -0.28335590178E+03  0.31232210773E+03  0.78393448213E+02 0.  0.
         23    2    1    2    0    0  0.88706450967E+02  0.29184221005E+02 -0.29889498063E+03  0.32570161641E+03  0.89569974268E+02 0.  0.
        -11    1    3    3    0    0  0.19546288966E+02  0.37786360882E+02 -0.99802760154E+02  0.10849173893E+03  0.00000000000E+00 0.  1.
         12    1    3    3    0    0  0.85061303243E+02 -0.24892531708E+02 -0.18355314162E+03  0.20383036880E+03  0.00000000000E+00 0. -1.
        -11    1    4    4    0    0  0.28295019550E+02  0.12005097087E+02 -0.13662583235E+02  0.33636240398E+02  0.00000000000E+00 0.  1.
         11    1    4    4    0    0  0.60411431416E+02  0.17179123918E+02 -0.28523239739E+03  0.29206537601E+03  0.00000000000E+00 0. -1.
         21    1    1    2  503  501 -0.53969194307E+01 -0.33331583640E+02  0.11478613646E+03  0.11964939753E+03  0.00000000000E+00 0. -1.
          1    1    1    2  501    0 -0.18791712374E+03 -0.87464665388E+01 -0.89147781419E+03  0.91111033321E+03  0.00000000000E+00 0. -1.
<scales pt_clust_5="13000.00000" pt_clust_6="13000.00000" pt_clust_7="13000.00000" pt_clust_8="13000.00000" pt_clust_9="33.76568" pt_clust_10="13000.00000"></scales>
<clustering>
<clus scale="   33.766">  1  9  2 -1</clus>
<clus scale="   78.393">  5  6 -1 -1</clus>
<clus scale="   89.570">  7  8 -1 -1</clus>
<clus scale="  129.069">  2  5  1 -1</clus>
<clus scale="  113.332">  7 10 -1 -1</clus>
<clus scale="   33.766">  1  5  2 -1</clus>
</clustering>
</event>
<event>
10    4  0.2565852E-005  0.6117233E+03  0.7546771E-02  0.1030396E+00
          2   -1    0    0  502    0 -0.00000000000E+00  0.00000000000E+00  0.13127784702E+04  0.13127784702E+04  0.00000000000E+00 0. -1.
         21   -1    0    0  503  502  0.00000000000E+00 -0.00000000000E+00 -0.70472673523E+03  0.70472673523E+03  0.00000000000E+00 0. -1.
         24    2    1    2    0    0 -0.15035685824E+02  0.14390075764E+03  0.21064193159E+03  0.26784970445E+03  0.80249242565E+02 0.  0.
         23    2    1    2    0    0 -0.58791717282E+02  0.59217814414E+02  0.50251695742E+03  0.51911541234E+03  0.99971512263E+02 0.  0.
        -13    1    3    3    0    0 -0.30941263074E+02  0.12979472606E+03  0.13716500882E+03  0.19135901421E+03  0.00000000000E+00 0.  1.
         14    1    3    3    0    0  0.15905577250E+02  0.14106031585E+02  0.73476922764E+02  0.76490690241E+02  0.00000000000E+00 0. -1.
        -11    1    4    4    0    0 -0.74371273251E+02  0.76641127085E+02  0.40640376432E+03  0.42020110459E+03  0.00000000000E+00 0.  1.
         11    1    4    4    0    0  0.15579555969E+02 -0.17423312671E+02  0.96113193099E+02  0.98914307744E+02  0.00000000000E+00 0. -1.
         21    1    1    2  503  501 -0.29562907701E+03 -0.28732540320E+03 -0.52331657838E+03  0.66619267461E+03  0.00000000000E+00 0. -1.
          1    1    1    2  501    0  0.36945648012E+03  0.84206831143E+02  0.41820942433E+03  0.56434741402E+03  0.00000000000E+00 0. -1.
<scales pt_clust_5="13000.00000" pt_clust_6="13000.00000" pt_clust_7="13000.00000" pt_clust_8="13000.00000" pt_clust_9="406.36676" pt_clust_10="13000.00000"></scales>
<clustering>
<clus scale="   80.249">  5  6 -1 -1</clus>
<clus scale="   99.972">  7  8 -1 -1</clus>
<clus scale="  165.449">  1  5  2 -1</clus>
<clus scale="  392.402">  7 10 -1 -1</clus>
<clus scale="  406.367">  2  9  1 -1</clus>
<clus scale="  406.367">  2  5  1 -1</clus>
</clustering>
</event>
<event>
10    4  0.2565852E-005  0.1695086E+03  0.7546771E-02  0.1205577E+00
          2   -1    0    0  503    0 -0.00000000000E+00  0.00000000000E+00  0.20257837014E+04  0.20257837014E+04  0.00000000000E+00 0. -1.
         21   -1    0    0  501  502  0.00000000000E+00 -0.00000000000E+00 -0.35290088398E+02  0.35290088398E+02  0.00000000000E+00 0. -1.
         24    2    1    2    0    0  0.44886088295E+02  0.22945384305E+01  0.16504313435E+04  0.16530825006E+04  0.82085982231E+02 0.  0.
         23    2    1    2    0    0  0.21802067600E+01 -0.97652130911E+01  0.33353068319E+03  0.34634335950E+03  0.92794899416E+02 0.  0.
        -11    1    3    3    0    0  0.80182223303E+01  0.20388953417E+02  0.11308815563E+03  0.11519085144E+03  0.00000000000E+00 0.  1.
         12    1    3    3    0    0  0.36867865965E+02 -0.18094414986E+02  0.15373431878E+04  0.15378916492E+04  0.00000000000E+00 0. -1.
        -13    1    4    4    0    0  0.34827164434E+02  0.23826617468E+02  0.10699852238E+03  0.11501879357E+03  0.00000000000E+00 0. -1.
         13    1    4    4    0    0 -0.32646957674E+02 -0.33591830560E+02  0.22653216080E+03  0.23132456593E+03  0.00000000000E+00 0.  1.
         21    1    1    2  503  502 -0.17971614450E+02  0.21971381349E+02 -0.49349689013E+00  0.28389506221E+02  0.00000000000E+00 0. -1.
          1    1    1    2  501    0 -0.29094680606E+02 -0.14500706688E+02  0.70250831810E+01  0.33258423410E+02  0.00000000000E+00 0. -1.
<scales pt_clust_5="13000.00000" pt_clust_6="13000.00000" pt_clust_7="13000.00000" pt_clust_8="13000.00000" pt_clust_9="28.38522" pt_clust_10="13000.00000"></scales>
<clustering>
<clus scale="   28.385">  2  9  1 -1</clus>
<clus scale="   82.086">  5  6 -1 -1</clus>
<clus scale="   92.795">  7  8 -1 -1</clus>
<clus scale="   40.407">  7 10 -1 -1</clus>
<clus scale="   93.087">  1  5  2 -1</clus>
<clus scale="   28.385">  2  5  1 -1</clus>
</clustering>
</event>
<event>
10    4  0.2565852E-005  0.2510833E+03  0.7546771E-02  0.1132693E+00
         21   -1    0    0  503  502  0.00000000000E+00  0.00000000000E+00  0.92799533109E+02  0.92799533109E+02  0.00000000000E+00 0.  1.
          2   -1    0    0  502    0 -0.00000000000E+00 -0.00000000000E+00 -0.72454898063E+03  0.72454898063E+03  0.00000000000E+00 0. -1.
         24    2    1    2    0    0  0.98562186077E+02  0.59253179884E+02 -0.64581940473E+02  0.15299386542E+03  0.77529684443E+02 0.  0.
         23    2    1    2    0    0 -0.23113141092E+02  0.38493504612E+02 -0.33311585719E+03  0.34825256677E+03  0.91091760122E+02 0.  0.
        -11    1    3    3    0    0  0.78992640830E+02  0.63167831533E+02 -0.18561756585E+02  0.10283263613E+03  0.00000000000E+00 0.  1.
         12    1    3    3    0    0  0.19569545248E+02 -0.39146516493E+01 -0.46020183887E+02  0.50161229289E+02  0.00000000000E+00 0. -1.
        -11    1    4    4    0    0 -0.55076511844E+02  0.31356588334E+02 -0.26765557531E+03  0.27505665741E+03  0.00000000000E+00 0.  1.
         11    1    4    4    0    0  0.31963370752E+02  0.71369162774E+01 -0.65460281873E+02  0.73195909358E+02  0.00000000000E+00 0. -1.
         21    1    1    2  503  501  0.28904449713E+02  0.16901583533E+01  0.11674168341E+02  0.31218745249E+02  0.00000000000E+00 0.  1.
          1    1    1    2  501    0 -0.10435349470E+03 -0.99436842849E+02 -0.24572581820E+03  0.28488333630E+03  0.00000000000E+00 0. -1.
<scales pt_clust_5="13000.00000" pt_clust_6="13000.00000" pt_clust_7="13000.00000" pt_clust_8="13000.00000" pt_clust_9="28.95382" pt_clust_10="13000.00000"></scales>
<clustering>
<clus scale="   28.954">  1  9  2 -1</clus>
<clus scale="   77.530">  5  6 -1 -1</clus>
<clus scale="   91.092">  7  8 -1 -1</clus>
<clus scale="  138.177">  7 10 -1 -1</clus>
<clus scale="  152.355">  2  5  1 -1</clus>
<clus scale="   28.954">  1  5  2 -1</clus>
</clustering>
</event>
<event>
10    4  0.2565852E-005  0.2503260E+03  0.7546771E-02  0.1157586E+00
         -1   -1    0    0    0  501 -0.00000000000E+00  0.00000000000E+00  0.51712920399E+03  0.51712920399E+03  0.00000000000E+00 0.  1.
         21   -1    0    0  503  502  0.00000000000E+00 -0.00000000000E+00 -0.98623051419E+02  0.98623051419E+02  0.00000000000E+00 0.  1.
         24    2    1    2    0    0  0.12910305742E+02 -0.30823206767E+01  0.42957990228E+02  0.91442401950E+02  0.79625041632E+02 0.  0.
         23    2    1    2    0    0  0.25409988793E+02  0.53283994670E+02  0.39872368451E+03  0.41322507639E+03  0.91046886544E+02 0.  0.
        -11    1    3    3    0    0  0.23352916352E+02 -0.34241573399E+02  0.58219748456E+01  0.41853786472E+02  0.00000000000E+00 0.  1.
         12    1    3    3    0    0 -0.10442610610E+02  0.31159252722E+02  0.37136015383E+02  0.49588615478E+02  0.00000000000E+00 0. -1.
        -13    1    4    4    0    0  0.50980655608E+02  0.54670202624E+02  0.35291109049E+03  0.36074103743E+03  0.00000000000E+00 0.  1.
         13    1    4    4    0    0 -0.25570666814E+02 -0.13862079537E+01  0.45812594023E+02  0.52484038954E+02  0.00000000000E+00 0. -1.
         21    1    1    2  503  501 -0.22585237792E+02 -0.69116466527E+02  0.59522396180E+01  0.72956206506E+02  0.00000000000E+00 0.  1.
         -2    1    1    2    0  502 -0.15735056743E+02  0.18914792534E+02 -0.29127761780E+02  0.38128570568E+02  0.00000000000E+00 0.  1.
<scales pt_clust_5="13000.00000" pt_clust_6="13000.00000" pt_clust_7="13000.00000" pt_clust_8="13000.00000" pt_clust_9="72.71299" pt_clust_10="13000.00000"></scales>
<clustering>
<clus scale="   72.713">  2  9  1 -1</clus>
<clus scale="   79.625">  5  6 -1 -1</clus>
<clus scale="   84.797">  1  5  2 -1</clus>
<clus scale="   91.047">  7  8 -1 -1</clus>
<clus scale="   33.259">  7 10 -1 -1</clus>
<clus scale="   72.713">  2  5  1 -1</clus>
</clustering>
</event>
<event>
10    4  0.2565852E-005  0.3454404E+03  0.7546771E-02  0.1093933E+00
         21   -1    0    0  503  502  0.00000000000E+00  0.00000000000E+00  0.79346770970E+02  0.79346770970E+02  0.00000000000E+00 0. -1.
          2   -1    0    0  502    0 -0.00000000000E+00 -0.00000000000E+00 -0.10551551744E+04  0.10551551744E+04  0.00000000000E+00 0. -1.
         24    2    1    2    0    0 -0.84546920714E+02 -0.11996259010E+03 -0.14496923004E+03  0.22016030229E+03  0.76910832920E+02 0.  0.
         23    2    1    2    0    0 -0.19115470385E+02 -0.87316375887E+02 -0.40119927943E+03  0.42050516607E+03  0.88736588699E+02 0.  0.
        -13    1    3    3    0    0 -0.27668098838E+02 -0.38344506890E+02 -0.10074804295E+03  0.11129237647E+03  0.00000000000E+00 0.  1.
         14    1    3    3    0    0 -0.56878821876E+02 -0.81618083208E+02 -0.44221187087E+02  0.10886792582E+03  0.00000000000E+00 0. -1.
        -11    1    4    4    0    0  0.26588899494E+02 -0.47902246276E+02 -0.10735043895E+03  0.12052265977E+03  0.00000000000E+00 0. -1.
         11    1    4    4    0    0 -0.45704369878E+02 -0.39414129611E+02 -0.29384884048E+03  0.29998250630E+03  0.00000000000E+00 0.  1.
         21    1    1    2  503  501 -0.64007042025E+01  0.31538169461E+02 -0.32035411168E+02  0.45408068841E+02  0.00000000000E+00 0.  1.
          1    1    1    2  501    0  0.11006309530E+03  0.17574079652E+03 -0.39760448276E+03  0.44842840813E+03  0.00000000000E+00 0. -1.
<scales pt_clust_5="13000.00000" pt_clust_6="13000.00000" pt_clust_7="13000.00000" pt_clust_8="13000.00000" pt_clust_9="32.18113" pt_clust_10="13000.00000"></scales>
<clustering>
<clus scale="   32.181">  1  9  2 -1</clus>
<clus scale="   76.911">  5  6 -1 -1</clus>
<clus scale="   88.737">  7  8 -1 -1</clus>
<clus scale="  156.130">  2  5  1 -1</clus>
<clus scale="  144.735">  7 10 -1 -1</clus>
<clus scale="   32.181">  1  5  2 -1</clus>
</clustering>
</event>
<event>
10    4  0.2565852E-005  0.2603892E+03  0.7546771E-02  0.1136216E+00
         21   -1    0    0  501  502  0.00000000000E+00  0.00000000000E+00  0.14025385910E+03  0.14025385910E+03  0.00000000000E+00 0. -1.
          2   -1    0    0  503    0 -0.00000000000E+00 -0.00000000000E+00 -0.60375469561E+03  0.60375469561E+03  0.00000000000E+00 0. -1.
         24    2    1    2    0    0  0.66851564509E+02 -0.20246637776E+01  0.33136301142E+02  0.10995132184E+03  0.80734427479E+02 0.  0.
         23    2    1    2    0    0  0.27487717491E+02  0.63663233628E+02 -0.14834754294E+03  0.18743701172E+03  0.91197905346E+02 0.  0.
        -11    1    3    3    0    0  0.35001844709E+02  0.38549675240E+02  0.83907838887E+01  0.52740988314E+02  0.00000000000E+00 0.  1.
         12    1    3    3    0    0  0.31849719799E+02 -0.40574339017E+02  0.24745517253E+02  0.57210333526E+02  0.00000000000E+00 0. -1.
        -13    1    4    4    0    0  0.29245075077E+02 -0.11150990898E+02 -0.80706367640E+02  0.86562906559E+02  0.00000000000E+00 0.  1.
         13    1    4    4    0    0 -0.17573575859E+01  0.74814224526E+02 -0.67641175296E+02  0.10087410516E+03  0.00000000000E+00 0. -1.
         21    1    1    2  503  502  0.39175422257E+02 -0.25260945547E+02  0.21833727342E+02  0.51473689673E+02  0.00000000000E+00 0. -1.
          1    1    1    2  501    0 -0.13351470426E+03 -0.36377624303E+02 -0.37012332206E+03  0.39514653148E+03  0.00000000000E+00 0. -1.
<scales pt_clust_5="13000.00000" pt_clust_6="13000.00000" pt_clust_7="13000.00000" pt_clust_8="13000.00000" pt_clust_9="46.61361" pt_clust_10="13000.00000"></scales>
<clustering>
<clus scale="   46.614">  1  9  2 -1</clus>
<clus scale="   80.734">  5  6 -1 -1</clus>
<clus scale="   91.198">  7  8 -1 -1</clus>
<clus scale="  125.361">  2  5  1 -1</clus>
<clus scale="   83.584">  7 10 -1 -1</clus>
<clus scale="   46.614">  1  5  2 -1</clus>
</clustering>
</event>
<event>
10    4  0.2565852E-005  0.2050696E+03  0.7546771E-02  0.1160070E+00
          2   -1    0    0  502    0 -0.00000000000E+00  0.00000000000E+00  0.43898268195E+03  0.43898268195E+03  0.00000000000E+00 0. -1.
         21   -1    0    0  503  502  0.00000000000E+00 -0.00000000000E+00 -0.18406333790E+03  0.18406333790E+03  0.00000000000E+00 0.  1.
         24    2    1    2    0    0  0.84678335539E+02 -0.78002940631E+02  0.60307375465E+02  0.15049995073E+03  0.75883966539E+02 0.  0.
         23    2    1    2    0    0 -0.13137648778E+02  0.39686439971E+01  0.13227905986E+03  0.16048535910E+03  0.89830133353E+02 0.  0.
        -11    1    3    3    0    0  0.80765276338E+02 -0.55343739547E+02  0.74894681976E+02  0.12326870145E+03  0.00000000000E+00 0.  1.
         12    1    3    3    0    0  0.39130592014E+01 -0.22659201084E+02 -0.14587306511E+02  0.27231249280E+02  0.00000000000E+00 0. -1.
        -13    1    4    4    0    0 -0.40002245667E+02 -0.28139177687E+02  0.67505619743E+02  0.83360672239E+02  0.00000000000E+00 0.  1.
         13    1    4    4    0    0  0.26864596888E+02  0.32107821684E+02  0.64773440113E+02  0.77124686860E+02  0.00000000000E+00 0. -1.
         21    1    1    2  503  501  0.35637836686E+02  0.20574347030E+02 -0.10126457600E+03  0.10930632878E+03  0.00000000000E+00 0.  1.
          1    1    1    2  501    0 -0.10717852345E+03  0.53459949604E+02  0.16359748473E+03  0.20275438124E+03  0.00000000000E+00 0. -1.
<scales pt_clust_5="13000.00000" pt_clust_6="13000.00000" pt_clust_7="13000.00000" pt_clust_8="13000.00000" pt_clust_9="41.15045" pt_clust_10="13000.00000"></scales>
<clustering>
<clus scale="   41.150">  2  9  1 -1</clus>
<clus scale="   75.884">  5  6 -1 -1</clus>
<clus scale="   89.830">  7  8 -1 -1</clus>
<clus scale="  114.446">  7 10 -1 -1</clus>
<clus scale="  145.553">  1  5  2 -1</clus>
<clus scale="   41.150">  2  5  1 -1</clus>
</clustering>
</event>
<event>
10    4  0.2565852E-005  0.4850951E+03  0.7546771E-02  0.1056893E+00
         21   -1    0    0  503  502  0.00000000000E+00  0.00000000000E+00  0.51849420202E+03  0.51849420202E+03  0.00000000000E+00 0.  1.
          2   -1    0    0  502    0 -0.00000000000E+00 -0.00000000000E+00 -0.36504849318E+03  0.36504849318E+03  0.00000000000E+00 0. -1.
         24    2    1    2    0    0 -0.19651441048E+02 -0.11985896919E+03 -0.84138232667E+02  0.17287340902E+03  0.89741973006E+02 0.  0.
         23    2    1    2    0    0  0.18505601570E+03 -0.99004570620E+02  0.43489230201E+02  0.23298998496E+03  0.91353084238E+02 0.  0.
        -11    1    3    3    0    0 -0.51670283390E+02 -0.10006892681E+03 -0.70339864754E+02  0.13278292387E+03  0.00000000000E+00 0.  1.
         12    1    3    3    0    0  0.32018842342E+02 -0.19790042387E+02 -0.13798367913E+02  0.40090485151E+02  0.00000000000E+00 0. -1.
        -13    1    4    4    0    0  0.24750157000E+02 -0.49019623385E+02  0.34457783759E+02  0.64829257360E+02  0.00000000000E+00 0.  1.
         13    1    4    4    0    0  0.16030585870E+03 -0.49984947235E+02  0.90314464414E+01  0.16816072760E+03  0.00000000000E+00 0. -1.
         21    1    1    2  503  501 -0.54478880061E+02 -0.18004171056E+02  0.20798690672E+03  0.21575600087E+03  0.00000000000E+00 0.  1.
          1    1    1    2  501    0 -0.11092569459E+03  0.23686771087E+03 -0.13892195408E+02  0.26192330035E+03  0.00000000000E+00 0. -1.
<scales pt_clust_5="13000.00000" pt_clust_6="13000.00000" pt_clust_7="13000.00000" pt_clust_8="13000.00000" pt_clust_9="57.37681" pt_clust_10="13000.00000"></scales>
<clustering>
<clus scale="   57.377">  1  9  2 -1</clus>
<clus scale="   89.742">  5  6 -1 -1</clus>
<clus scale="   91.353">  7  8 -1 -1</clus>
<clus scale="  154.302">  2  5  1 -1</clus>
<clus scale="  214.368">  7 10 -1 -1</clus>
<clus scale="   57.377">  1  5  2 -1</clus>
</clustering>
</event>
<event>
10    4  0.2565852E-005  0.4121935E+03  0.7546771E-02  0.1061438E+00
          2   -1    0    0  503    0 -0.00000000000E+00  0.00000000000E+00  0.14912520087E+04  0.14912520087E+04  0.00000000000E+00 0. -1.
         21   -1    0    0  501  502  0.00000000000E+00 -0.00000000000E+00 -0.10679446242E+03  0.10679446242E+03  0.00000000000E+00 0. -1.
         24    2    1    2    0    0  0.17782392884E+02  0.19941270406E+03  0.20026997602E+03  0.29431097773E+03  0.80182593408E+02 0.  0.
         23    2    1    2    0    0 -0.49567660806E+02  0.64631728402E+02  0.23712771624E+03  0.26677673422E+03  0.91137581680E+02 0.  0.
        -11    1    3    3    0    0  0.28891149060E+02  0.94413096317E+02  0.50048407922E+02  0.11069496098E+03  0.00000000000E+00 0.  1.
         12    1    3    3    0    0 -0.11108756175E+02  0.10499960774E+03  0.15022156809E+03  0.18361601676E+03  0.00000000000E+00 0. -1.
        -13    1    4    4    0    0  0.24044517863E+02  0.35753146705E+02  0.87987934622E+02  0.97970929248E+02  0.00000000000E+00 0. -1.
         13    1    4    4    0    0 -0.73612178669E+02  0.28878581697E+02  0.14913978162E+03  0.16880580497E+03  0.00000000000E+00 0.  1.
         21    1    1    2  503  502 -0.16217813428E+02  0.11823850075E+02 -0.21098793235E+02  0.29120095792E+02  0.00000000000E+00 0.  1.
          1    1    1    2  501    0  0.48003081349E+02 -0.27586828253E+03  0.96815864724E+03  0.10078386634E+04  0.00000000000E+00 0. -1.
<scales pt_clust_5="13000.00000" pt_clust_6="13000.00000" pt_clust_7="13000.00000" pt_clust_8="13000.00000" pt_clust_9="20.07040" pt_clust_10="13000.00000"></scales>
<clustering>
<clus scale="   20.070">  2  9  1 -1</clus>
<clus scale="   80.183">  5  6 -1 -1</clus>
<clus scale="   91.138">  7  8 -1 -1</clus>
<clus scale="  221.420">  1  5  2 -1</clus>
<clus scale="  122.041">  7 10 -1 -1</clus>
<clus scale="   20.070">  2  5  1 -1</clus>
</clustering>
</event>
<event>
10    4  0.2565852E-005  0.1995727E+03  0.7546771E-02  0.1172811E+00
         21   -1    0    0  503  502  0.00000000000E+00  0.00000000000E+00  0.20632131331E+03  0.20632131331E+03  0.00000000000E+00 0. -1.
          2   -1    0    0  502    0 -0.00000000000E+00 -0.00000000000E+00 -0.29239419317E+03  0.29239419317E+03  0.00000000000E+00 0. -1.
         24    2    1    2    0    0  0.97097235641E+02 -0.48315706052E+01 -0.17303592720E+03  0.21440118940E+03  0.81087734413E+02 0.  0.
         23    2    1    2    0    0 -0.15813812337E+02  0.15066108313E+02  0.79079287920E+02  0.12321827634E+03  0.91935551156E+02 0.  0.
        -13    1    3    3    0    0  0.27296669538E+02  0.33602437408E+02 -0.86740231298E+02  0.96943796569E+02  0.00000000000E+00 0.  1.
         14    1    3    3    0    0  0.69800566102E+02 -0.38434008013E+02 -0.86295695898E+02  0.11745739283E+03  0.00000000000E+00 0. -1.
        -13    1    4    4    0    0  0.25437078754E+02  0.11166322574E+02 -0.61483205350E+01  0.28452303611E+02  0.00000000000E+00 0.  1.
         13    1    4    4    0    0 -0.41250891092E+02  0.38997857392E+01  0.85227608455E+02  0.94765972731E+02  0.00000000000E+00 0. -1.
         21    1    1    2  503  501 -0.73808387891E+02  0.33330353583E+02  0.53905855006E+02  0.97285311311E+02  0.00000000000E+00 0. -1.
          1    1    1    2  501    0 -0.74750354120E+01 -0.43564891291E+02 -0.46022095593E+02  0.63810729430E+02  0.00000000000E+00 0. -1.
<scales pt_clust_5="13000.00000" pt_clust_6="13000.00000" pt_clust_7="13000.00000" pt_clust_8="13000.00000" pt_clust_9="80.98513" pt_clust_10="13000.00000"></scales>
<clustering>
<clus scale="   80.985">  1  9  2 -1</clus>
<clus scale="   81.088">  5  6 -1 -1</clus>
<clus scale="   91.936">  7  8 -1 -1</clus>
<clus scale="   43.147">  7 10 -1 -1</clus>
<clus scale="  117.779">  2  5  1 -1</clus>
<clus scale="   80.985">  1  5  2 -1</clus>
</clustering>
</event>
<event>
10    4  0.2565852E-005  0.3987919E+03  0.7546771E-02  0.1101914E+00
         21   -1    0    0  503  502  0.00000000000E+00  0.00000000000E+00  0.21808206622E+03  0.21808206622E+03  0.00000000000E+00 0.  1.
         -1   -1    0    0    0  501 -0.00000000000E+00 -0.00000000000E+00 -0.43023369308E+03  0.43023369308E+03  0.00000000000E+00 0.  1.
         24    2    1    2    0    0 -0.25201328155E+02  0.13405774200E+00 -0.69190863968E+02  0.10764434352E+03  0.78516266615E+02 0.  0.
         23    2    1    2    0    0 -0.99306385948E+01  0.68003397068E+02 -0.32333820268E+03  0.34211325244E+03  0.88152167236E+02 0.  0.
        -13    1    3    3    0    0 -0.35384504841E+02  0.22144579339E+02 -0.72005008369E+02  0.83229602950E+02  0.00000000000E+00 0.  1.
         14    1    3    3    0    0  0.10183176687E+02 -0.22010521597E+02  0.28141444011E+01  0.24414740571E+02  0.00000000000E+00 0. -1.
        -11    1    4    4    0    0 -0.23680545245E+02  0.16100326829E+02 -0.22219635843E+02  0.36245012954E+02  0.00000000000E+00 0. -1.
         11    1    4    4    0    0  0.13749906650E+02  0.51903070240E+02 -0.30111856684E+03  0.30586823949E+03  0.00000000000E+00 0.  1.
         21    1    1    2  503  501  0.18315075327E+01 -0.21029157066E+02  0.80453536800E+02  0.83176628030E+02  0.00000000000E+00 0. -1.
         -2    1    1    2    0  502  0.33300459217E+02 -0.47108297744E+02  0.99923902994E+02  0.11538153531E+03  0.00000000000E+00 0.  1.
<scales pt_clust_5="13000.00000" pt_clust_6="13000.00000" pt_clust_7="13000.00000" pt_clust_8="13000.00000" pt_clust_9="21.10876" pt_clust_10="13000.00000"></scales>
<clustering>
<clus scale="   21.109">  1  9  2 -1</clus>
<clus scale="   78.516">  5  6 -1 -1</clus>
<clus scale="   82.432">  2  5  1 -1</clus>
<clus scale="   88.152">  7  8 -1 -1</clus>
<clus scale="   72.200">  7 10 -1 -1</clus>
<clus scale="   21.109">  1  5  2 -1</clus>
</clustering>
</event>
<event>
10    4  0.2565852E-005  0.1728527E+03  0.7546771E-02  0.1186461E+00
         21   -1    0    0  501  502  0.00000000000E+00  0.00000000000E+00  0.18801511769E+03  0.18801511769E+03  0.00000000000E+00 0.  1.
         -1   -1    0    0    0  501 -0.00000000000E+00 -0.00000000000E+00 -0.23055455042E+03  0.23055455042E+03  0.00000000000E+00 0.  1.
         24    2    1    2    0    0 -0.10858762225E+03  0.33742978407E+02 -0.74401741222E+02  0.15814127444E+03  0.80889945526E+02 0.  0.
         23    2    1    2    0    0  0.96587508836E+02 -0.12451670134E+02 -0.43054692683E+02  0.13988671211E+03  0.90721522859E+02 0.  0.
        -13    1    3    3    0    0 -0.87070950988E+02  0.54594727573E+02 -0.76481027881E+02  0.12810652759E+03  0.00000000000E+00 0.  1.
         14    1    3    3    0    0 -0.21516671262E+02 -0.20851749167E+02  0.20792866597E+01  0.30034746853E+02  0.00000000000E+00 0. -1.
        -11    1    4    4    0    0  0.53847857307E+02 -0.11556418822E+01 -0.69841389305E+02  0.88197204631E+02  0.00000000000E+00 0. -1.
         11    1    4    4    0    0  0.42739651529E+02 -0.11296028252E+02  0.26786696623E+02  0.51689507475E+02  0.00000000000E+00 0.  1.
         21    1    1    2  503  502  0.23627951707E+02  0.10059730342E+02  0.82372475506E+02  0.86282692340E+02  0.00000000000E+00 0.  1.
         -2    1    1    2    0  503 -0.11627838292E+02 -0.31351038615E+02 -0.74554743331E+01  0.34258989231E+02  0.00000000000E+00 0.  1.
<scales pt_clust_5="13000.00000" pt_clust_6="13000.00000" pt_clust_7="13000.00000" pt_clust_8="13000.00000" pt_clust_9="25.68031" pt_clust_10="13000.00000"></scales>
<clustering>
<clus scale="   25.680">  1  9  2 -1</clus>
<clus scale="   80.890">  5  6 -1 -1</clus>
<clus scale="   90.722">  7  8 -1 -1</clus>
<clus scale="   31.250">  7 10 -1 -1</clus>
<clus scale="  133.351">  2  5  1 -1</clus>
<clus scale="   25.680">  1  5  2 -1</clus>
</clustering>
</event>
<event>
10    4  0.2565852E-005  0.4236729E+03  0.7546771E-02  0.1049393E+00
         21   -1    0    0  503  502  0.00000000000E+00  0.00000000000E+00  0.15238428695E+03  0.15238428695E+03  0.00000000000E+00 0. -1.
          4   -1    0    0  502    0 -0.00000000000E+00 -0.00000000000E+00 -0.18237265343E+04  0.18237265343E+04  0.00000000000E+00 0. -1.
         24    2    1    2    0    0 -0.89985947474E+02  0.32149798619E+03 -0.15230877869E+03  0.37662537887E+03  0.84795554566E+02 0.  0.
         23    2    1    2    0    0 -0.85464415378E+01  0.50177395509E+02 -0.40450359359E+03  0.41760403591E+03  0.90438713486E+02 0.  0.
        -11    1    3    3    0    0 -0.73323880380E+02  0.15950832804E+03 -0.11404641741E+03  0.20934632424E+03  0.00000000000E+00 0.  1.
         12    1    3    3    0    0 -0.16662067094E+02  0.16198965815E+03 -0.38262361286E+02  0.16727905463E+03  0.00000000000E+00 0. -1.
        -13    1    4    4    0    0  0.39121433309E+02  0.85300187055E+01 -0.13841539098E+03  0.14409048624E+03  0.00000000000E+00 0.  1.
         13    1    4    4    0    0 -0.47667874847E+02  0.41647376804E+02 -0.26608820260E+03  0.27351354967E+03  0.00000000000E+00 0. -1.
         21    1    1    2  503  501  0.19367096977E+02 -0.73925777186E+02 -0.13606370380E+03  0.15605587611E+03  0.00000000000E+00 0.  1.
          3    1    1    2  501    0  0.79165292035E+02 -0.29774960451E+03 -0.97846617130E+03  0.10258255304E+04  0.00000000000E+00 0. -1.
<scales pt_clust_5="13000.00000" pt_clust_6="13000.00000" pt_clust_7="13000.00000" pt_clust_8="13000.00000" pt_clust_9="76.42062" pt_clust_10="13000.00000"></scales>
<clustering>
<clus scale="   76.421">  1  9  2 -1</clus>
<clus scale="   84.796">  5  6 -1 -1</clus>
<clus scale="   90.439">  7  8 -1 -1</clus>
<clus scale="  286.504">  2  5  1 -1</clus>
<clus scale="  122.464">  7 10 -1 -1</clus>
<clus scale="   76.421">  1  5  2 -1</clus>
</clustering>
</event>
<event>
10    4  0.2565852E-005  0.1535026E+03  0.7546771E-02  0.1224503E+00
         21   -1    0    0  503  502  0.00000000000E+00  0.00000000000E+00  0.20337295080E+03  0.20337295080E+03  0.00000000000E+00 0.  1.
          2   -1    0    0  502    0 -0.00000000000E+00 -0.00000000000E+00 -0.53273868956E+03  0.53273868956E+03  0.00000000000E+00 0. -1.
         24    2    1    2    0    0  0.24721803263E+02  0.28346228246E+02 -0.27351000958E+03  0.28772729348E+03  0.81022181305E+02 0.  0.
         23    2    1    2    0    0  0.48746330619E+02 -0.11456088192E+02 -0.12864226088E+03  0.16485521108E+03  0.90116383804E+02 0.  0.
        -11    1    3    3    0    0  0.17234111489E+02  0.57082899362E+02 -0.18365514810E+03  0.19309242715E+03  0.00000000000E+00 0.  1.
         12    1    3    3    0    0  0.74876917740E+01 -0.28736671117E+02 -0.89854861475E+02  0.94634866331E+02  0.00000000000E+00 0. -1.
        -13    1    4    4    0    0 -0.13467436489E+01  0.24908472074E+02 -0.34324585604E+01  0.25179902130E+02  0.00000000000E+00 0.  1.
         13    1    4    4    0    0  0.50093074268E+02 -0.36364560266E+02 -0.12520980232E+03  0.13967530895E+03  0.00000000000E+00 0. -1.
         21    1    1    2  503  501 -0.41625913611E+02 -0.56302629699E+02  0.16448235050E+03  0.17876561868E+03  0.00000000000E+00 0.  1.
          1    1    1    2  501    0 -0.31842220272E+02  0.39412489646E+02 -0.91695818809E+02  0.10476351712E+03  0.00000000000E+00 0. -1.
<scales pt_clust_5="13000.00000" pt_clust_6="13000.00000" pt_clust_7="13000.00000" pt_clust_8="13000.00000" pt_clust_9="70.01930" pt_clust_10="13000.00000"></scales>
<clustering>
<clus scale="   70.019">  1  9  2 -1</clus>
<clus scale="   81.022">  5  6 -1 -1</clus>
<clus scale="   83.962">  2  5  1 -1</clus>
<clus scale="   90.116">  7  8 -1 -1</clus>
<clus scale="   48.343">  7 10 -1 -1</clus>
<clus scale="   70.019">  1  5  2 -1</clus>
</clustering>
</event>
<event>
10    4  0.2565852E-005  0.1802917E+03  0.7546771E-02  0.1193086E+00
         21   -1    0    0  501  502  0.00000000000E+00  0.00000000000E+00  0.33825538952E+03  0.33825538952E+03  0.00000000000E+00 0.  1.
          2   -1    0    0  503    0 -0.00000000000E+00 -0.00000000000E+00 -0.25289164240E+03  0.25289164240E+03  0.00000000000E+00 0. -1.
         24    2    1    2    0    0  0.49509112807E+02 -0.96682967386E+02  0.58575548231E+02  0.14700029119E+03  0.79870159174E+02 0.  0.
         23    2    1    2    0    0 -0.39647531484E+01 -0.17996293173E+02 -0.15787286564E+03  0.18241919926E+03  0.89517242571E+02 0.  0.
        -11    1    3    3    0    0  0.23774880044E+02 -0.14166407517E+02 -0.16748577513E+02  0.32348831072E+02  0.00000000000E+00 0.  1.
         12    1    3    3    0    0  0.25734232764E+02 -0.82516559869E+02  0.75324125744E+02  0.11465146012E+03  0.00000000000E+00 0. -1.
        -13    1    4    4    0    0  0.21506830700E+02 -0.42223576070E+02 -0.49662847517E+02  0.68642352570E+02  0.00000000000E+00 0. -1.
         13    1    4    4    0    0 -0.25471583849E+02  0.24227282897E+02 -0.10821001812E+03  0.11377684669E+03  0.00000000000E+00 0.  1.
         21    1    1    2  503  502 -0.10967414876E+02  0.68202699175E+02  0.19132870662E+03  0.20341722233E+03  0.00000000000E+00 0.  1.
          1    1    1    2  501    0 -0.34576944783E+02  0.46476561384E+02 -0.66676420893E+01  0.58310319152E+02  0.00000000000E+00 0. -1.
<scales pt_clust_5="13000.00000" pt_clust_6="13000.00000" pt_clust_7="13000.00000" pt_clust_8="13000.00000" pt_clust_9="69.07889" pt_clust_10="13000.00000"></scales>
<clustering>
<clus scale="   69.079">  1  9  2 -1</clus>
<clus scale="   79.870">  5  6 -1 -1</clus>
<clus scale="   89.517">  7  8 -1 -1</clus>
<clus scale="   69.404">  7 10 -1 -1</clus>
<clus scale="  101.508">  2  5  1 -1</clus>
<clus scale="   69.079">  1  5  2 -1</clus>
</clustering>
</event>
<event>
10    4  0.2565852E-005  0.2720017E+03  0.7546771E-02  0.1133701E+00
          4   -1    0    0  503    0 -0.00000000000E+00  0.00000000000E+00  0.66101358941E+03  0.66101358941E+03  0.00000000000E+00 0. -1.
         21   -1    0    0  501  502  0.00000000000E+00 -0.00000000000E+00 -0.17761152804E+03  0.17761152804E+03  0.00000000000E+00 0. -1.
         24    2    1    2    0    0 -0.53685844385E+02  0.66910757250E+02 -0.57063007556E+02  0.13010489193E+03  0.79447320602E+02 0.  0.
         23    2    1    2    0    0  0.38839622047E+02 -0.70269289027E+02  0.66350384836E+02  0.13895241295E+03  0.91973421574E+02 0.  0.
        -13    1    3    3    0    0  0.20685252717E+02  0.12158960184E+02 -0.66935908470E+01  0.24910322181E+02  0.00000000000E+00 0.  1.
         14    1    3    3    0    0 -0.74371097101E+02  0.54751797066E+02 -0.50369416709E+02  0.10519456975E+03  0.00000000000E+00 0. -1.
        -13    1    4    4    0    0  0.29559749718E+02 -0.91178179514E+02  0.65439724747E+02  0.11605859209E+03  0.00000000000E+00 0. -1.
         13    1    4    4    0    0  0.92798723288E+01  0.20908890487E+02  0.91066008843E+00  0.22893820861E+02  0.00000000000E+00 0.  1.
         21    1    1    2  503  502 -0.96353267343E+02  0.69904784330E+02  0.55479987367E+02  0.13133415397E+03  0.00000000000E+00 0. -1.
          3    1    1    2  501    0  0.11119948968E+03 -0.66546252553E+02  0.41863469672E+03  0.43823365860E+03  0.00000000000E+00 0. -1.
<scales pt_clust_5="13000.00000" pt_clust_6="13000.00000" pt_clust_7="13000.00000" pt_clust_8="13000.00000" pt_clust_9="131.46068" pt_clust_10="13000.00000"></scales>
<clustering>
<clus scale="   79.447">  5  6 -1 -1</clus>
<clus scale="   91.973">  7  8 -1 -1</clus>
<clus scale="  116.924">  1  5  2 -1</clus>
<clus scale="   77.180">  7 10 -1 -1</clus>
<clus scale="  131.461">  2  9  1 -1</clus>
<clus scale="  131.461">  2  5  1 -1</clus>
</clustering>
</event>
<event>
10    4  0.2565852E-005  0.2807779E+03  0.7546771E-02  0.1124000E+00
         21   -1    0    0  503  502  0.00000000000E+00  0.00000000000E+00  0.32102226806E+03  0.32102226806E+03  0.00000000000E+00 0. -1.
          2   -1    0    0  502    0 -0.00000000000E+00 -0.00000000000E+00 -0.91135340701E+03  0.91135340701E+03  0.00000000000E+00 0. -1.
         24    2    1    2    0    0 -0.91621695983E+02  0.81000980454E+00 -0.12743950731E+03  0.17599254811E+03  0.79607522736E+02 0.  0.
         23    2    1    2    0    0  0.77241750311E+02  0.12582969484E+02 -0.58459251832E+03  0.59702582311E+03  0.92557019627E+02 0.  0.
        -11    1    3    3    0    0 -0.86031463502E+02 -0.19514151622E+02 -0.12734181225E+03  0.15491336925E+03  0.00000000000E+00 0.  1.
         12    1    3    3    0    0 -0.55902324802E+01  0.20324161427E+02 -0.97695055993E-01  0.21079178855E+02  0.00000000000E+00 0. -1.
        -13    1    4    4    0    0  0.53444067450E+02 -0.37031526519E+02 -0.27507745209E+03  0.28265740208E+03  0.00000000000E+00 0.  1.
         13    1    4    4    0    0  0.23797682860E+02  0.49614496003E+02 -0.30951506622E+03  0.31436842103E+03  0.00000000000E+00 0. -1.
         21    1    1    2  503  501 -0.13666587806E+02  0.10558184951E+03  0.25630316344E+03  0.27753488818E+03  0.00000000000E+00 0. -1.
          1    1    1    2  501    0  0.28046533478E+02 -0.11897482880E+03 -0.13460227677E+03  0.18182241567E+03  0.00000000000E+00 0. -1.
<scales pt_clust_5="13000.00000" pt_clust_6="13000.00000" pt_clust_7="13000.00000" pt_clust_8="13000.00000" pt_clust_9="106.46268" pt_clust_10="13000.00000"></scales>
<clustering>
<clus scale="   79.608">  5  6 -1 -1</clus>
<clus scale="   92.557">  7  8 -1 -1</clus>
<clus scale="  106.463">  1  9  2 -1</clus>
<clus scale="   76.171">  7 10 -1 -1</clus>
<clus scale="  134.963">  2  5  1 -1</clus>
<clus scale="  106.463">  1  5  2 -1</clus>
</clustering>
</event>
<event>
10    4  0.2565852E-005  0.2610004E+03  0.7546771E-02  0.1155212E+00
         21   -1    0    0  501  502  0.00000000000E+00  0.00000000000E+00  0.20559597549E+03  0.20559597549E+03  0.00000000000E+00 0. -1.
         -1   -1    0    0    0  501 -0.00000000000E+00 -0.00000000000E+00 -0.35182778210E+03  0.35182778210E+03  0.00000000000E+00 0.  1.
         24    2    1    2    0    0  0.66830158263E+01 -0.83405701312E+01 -0.75027188335E+02  0.10931054086E+03  0.78774916973E+02 0.  0.
         23    2    1    2    0    0 -0.31803793491E+02 -0.11423998778E+03 -0.69434279389E+02  0.16489967286E+03  0.91151121036E+02 0.  0.
        -11    1    3    3    0    0 -0.21916990841E+02  0.18198899106E+02 -0.46825665677E+01  0.28870068338E+02  0.00000000000E+00 0.  1.
         12    1    3    3    0    0  0.28600006667E+02 -0.26539469237E+02 -0.70344621767E+02  0.80440472527E+02  0.00000000000E+00 0. -1.
        -11    1    4    4    0    0  0.24461454432E+02 -0.45495597295E+02  0.79019466176E+00  0.51660783325E+02  0.00000000000E+00 0.  1.
         11    1    4    4    0    0 -0.56265247923E+02 -0.68744390482E+02 -0.70224474051E+02  0.11323888953E+03  0.00000000000E+00 0. -1.
         21    1    1    2  503  502 -0.21769942118E+01  0.24377511035E+02  0.12111221401E+03  0.12356039304E+03  0.00000000000E+00 0. -1.
         -2    1    1    2    0  503  0.27297771877E+02  0.98203046874E+02 -0.12288255289E+03  0.15965315083E+03  0.00000000000E+00 0.  1.
<scales pt_clust_5="13000.00000" pt_clust_6="13000.00000" pt_clust_7="13000.00000" pt_clust_8="13000.00000" pt_clust_9="24.47452" pt_clust_10="13000.00000"></scales>
<clustering>
<clus scale="   24.475">  1  9  2 -1</clus>
<clus scale="   78.775">  5  6 -1 -1</clus>
<clus scale="   79.091">  2  5  1 -1</clus>
<clus scale="   91.151">  7  8 -1 -1</clus>
<clus scale="  106.087">  7 10 -1 -1</clus>
<clus scale="   24.475">  1  5  2 -1</clus>
</clustering>
</event>
<event>
10    4  0.2565852E-005  0.2206381E+03  0.7546771E-02  0.1146389E+00
         21   -1    0    0  501  502  0.00000000000E+00  0.00000000000E+00  0.63782419659E+02  0.63782419659E+02  0.00000000000E+00 0. -1.
          2   -1    0    0  503    0 -0.00000000000E+00 -0.00000000000E+00 -0.84711343779E+03  0.84711343779E+03  0.00000000000E+00 0. -1.
         24    2    1    2    0    0  0.98248903548E+02  0.10245672713E+03 -0.35489405537E+03  0.39063082158E+03  0.80575556182E+02 0.  0.
         23    2    1    2    0    0 -0.13580810397E+03 -0.93138901888E+02 -0.30916016203E+03  0.35952128050E+03  0.80974373723E+02 0.  0.
        -13    1    3    3    0    0  0.39767354060E+02  0.47386201792E+02 -0.25525021321E+03  0.26263961223E+03  0.00000000000E+00 0.  1.
         14    1    3    3    0    0  0.58481549488E+02  0.55070525340E+02 -0.99643842153E+02  0.12799120935E+03  0.00000000000E+00 0. -1.
        -11    1    4    4    0    0 -0.20494604167E+01 -0.39235097267E+02 -0.67642528937E+02  0.78224707520E+02  0.00000000000E+00 0. -1.
         11    1    4    4    0    0 -0.13375864355E+03 -0.53903804620E+02 -0.24151763309E+03  0.28129657298E+03  0.00000000000E+00 0.  1.
         21    1    1    2  503  502  0.21793870930E+02 -0.31305619569E+02  0.29846693303E+00  0.38145821648E+02  0.00000000000E+00 0.  1.
          1    1    1    2  501    0  0.15765329491E+02  0.21987794325E+02 -0.11957526767E+03  0.12259793372E+03  0.00000000000E+00 0. -1.
<scales pt_clust_5="13000.00000" pt_clust_6="13000.00000" pt_clust_7="13000.00000" pt_clust_8="13000.00000" pt_clust_9="38.14465" pt_clust_10="13000.00000"></scales>
<clustering>
<clus scale="   38.145">  1  9  2 -1</clus>
<clus scale="   80.576">  5  6 -1 -1</clus>
<clus scale="   80.974">  7  8 -1 -1</clus>
<clus scale="   26.651">  7 10 -1 -1</clus>
<clus scale="  161.312">  2  5  1 -1</clus>
<clus scale="   38.145">  1  5  2 -1</clus>
</clustering>
</event>
<event>
10    4  0.2565852E-005  0.2142565E+03  0.7546771E-02  0.1161585E+00
         21   -1    0    0  501  502  0.00000000000E+00  0.00000000000E+00  0.17596157145E+04  0.17596157145E+04  0.00000000000E+00 0.  1.
         -1   -1    0    0    0  501 -0.00000000000E+00 -0.00000000000E+00 -0.58873012112E+02  0.58873012112E+02  0.00000000000E+00 0.  1.
         24    2    1    2    0    0 -0.64900567497E+02 -0.61557583052E+02  0.93482292706E+02  0.15465756703E+03  0.84726644550E+02 0.  0.
         23    2    1    2    0    0  0.37948982990E+02 -0.58428063867E+02  0.26045761853E+03  0.28543419840E+03  0.93704570913E+02 0.  0.
        -11    1    3    3    0    0 -0.32365082630E+02 -0.58644411036E+02  0.13592876263E+02  0.68347873445E+02  0.00000000000E+00 0.  1.
         12    1    3    3    0    0 -0.32535484867E+02 -0.29131720160E+01  0.79889416443E+02  0.86309693582E+02  0.00000000000E+00 0. -1.
        -11    1    4    4    0    0  0.46706212565E+02 -0.53570232007E+01  0.19561913432E+03  0.20118899995E+03  0.00000000000E+00 0. -1.
         11    1    4    4    0    0 -0.87572295752E+01 -0.53071040666E+02  0.64838484211E+02  0.84245198451E+02  0.00000000000E+00 0.  1.
         21    1    1    2  503  502 -0.49103259556E+02  0.16725516953E+03  0.11369788996E+04  0.11502636393E+04  0.00000000000E+00 0.  1.
         -2    1    1    2    0  503  0.76054844063E+02 -0.47269522610E+02  0.20982389158E+03  0.22813332188E+03  0.00000000000E+00 0.  1.
<scales pt_clust_5="13000.00000" pt_clust_6="13000.00000" pt_clust_7="13000.00000" pt_clust_8="13000.00000" pt_clust_9="165.79448" pt_clust_10="13000.00000"></scales>
<clustering>
<clus scale="   84.727">  5  6 -1 -1</clus>
<clus scale="   93.705">  7  8 -1 -1</clus>
<clus scale="   89.548">  7 10 -1 -1</clus>
<clus scale="  123.207">  2  5  1 -1</clus>
<clus scale="  165.794">  1  9  2 -1</clus>
<clus scale="  165.794">  1  5  2 -1</clus>
</clustering>
</event>
<event>
10    4  0.2565852E-005  0.6438005E+03  0.7546771E-02  0.1022988E+00
         21   -1    0    0  501  502  0.00000000000E+00  0.00000000000E+00  0.97483987712E+02  0.97483987712E+02  0.00000000000E+00 0. -1.
          2   -1    0    0  503    0 -0.00000000000E+00 -0.00000000000E+00 -0.28720457984E+04  0.28720457984E+04  0.00000000000E+00 0. -1.
         24    2    1    2    0    0  0.82993822589E+02  0.13656107425E+03 -0.89207699022E+02  0.19645969552E+03  0.71424763301E+02 0.  0.
         23    2    1    2    0    0 -0.19831220946E+03  0.12752372251E+03 -0.56320590878E+03  0.61740843372E+03  0.91663766639E+02 0.  0.
        -13    1    3    3    0    0  0.63716133293E+02  0.91303720500E+02 -0.95733470439E+02  0.14683668609E+03  0.00000000000E+00 0.  1.
         14    1    3    3    0    0  0.19277689297E+02  0.45257353748E+02  0.65257714169E+01  0.49623009436E+02  0.00000000000E+00 0. -1.
        -13    1    4    4    0    0 -0.13326170246E+03  0.71722342505E+02 -0.24595477070E+03  0.28878456500E+03  0.00000000000E+00 0.  1.
         13    1    4    4    0    0 -0.65050507002E+02  0.55801380007E+02 -0.31725113808E+03  0.32862386871E+03  0.00000000000E+00 0. -1.
         21    1    1    2  503  502 -0.18190245480E+02  0.14424601653E+02 -0.19121760966E+02  0.30076500892E+02  0.00000000000E+00 0.  1.
          1    1    1    2  501    0  0.13350863235E+03 -0.27850939841E+03 -0.21030264420E+04  0.21255851560E+04  0.00000000000E+00 0. -1.
<scales pt_clust_5="13000.00000" pt_clust_6="13000.00000" pt_clust_7="13000.00000" pt_clust_8="13000.00000" pt_clust_9="23.21539" pt_clust_10="13000.00000"></scales>
<clustering>
<clus scale="   23.215">  1  9  2 -1</clus>
<clus scale="   71.425">  5  6 -1 -1</clus>
<clus scale="   91.664">  7  8 -1 -1</clus>
<clus scale="  177.082">  2  5  1 -1</clus>
<clus scale="  249.558">  7 10 -1 -1</clus>
<clus scale="   23.215">  1  5  2 -1</clus>
</clustering>
</event>
<event>
10    4  0.2565852E-005  0.4664880E+03  0.7546771E-02  0.1066885E+00
         21   -1    0    0  501  502  0.00000000000E+00  0.00000000000E+00  0.60177029785E+03  0.60177029785E+03  0.00000000000E+00 0.  1.
          2   -1    0    0  503    0 -0.00000000000E+00 -0.00000000000E+00 -0.60877895366E+03  0.60877895366E+03  0.00000000000E+00 0. -1.
         24    2    1    2    0    0 -0.27266264514E+02  0.81518844354E+02  0.18223012378E+03  0.21737562375E+03  0.81581692949E+02 0.  0.
         23    2    1    2    0    0 -0.60148290879E+02  0.77803386184E+02  0.13484836661E+02  0.13611066487E+03  0.93129417884E+02 0.  0.
        -11    1    3    3    0    0  0.24176443177E+02  0.21424576815E+02  0.91329976420E+02  0.96874545105E+02  0.00000000000E+00 0.  1.
         12    1    3    3    0    0 -0.51442707691E+02  0.60094267538E+02  0.90900147359E+02  0.12050107865E+03  0.00000000000E+00 0. -1.
        -13    1    4    4    0    0  0.23653151046E+02  0.61478001517E+01  0.79980924214E+01  0.25714518924E+02  0.00000000000E+00 0. -1.
         13    1    4    4    0    0 -0.83801441925E+02  0.71655586032E+02  0.54867442398E+01  0.11039614595E+03  0.00000000000E+00 0.  1.
         21    1    1    2  503  502  0.36105130845E+02  0.31316935430E+02  0.30686680962E+03  0.31056653034E+03  0.00000000000E+00 0.  1.
          1    1    1    2  501    0  0.51309424549E+02 -0.19063916597E+03 -0.50959042587E+03  0.54649643255E+03  0.00000000000E+00 0. -1.
<scales pt_clust_5="13000.00000" pt_clust_6="13000.00000" pt_clust_7="13000.00000" pt_clust_8="13000.00000" pt_clust_9="47.79467" pt_clust_10="13000.00000"></scales>
<clustering>
<clus scale="   47.795">  1  9  2 -1</clus>
<clus scale="   81.582">  5  6 -1 -1</clus>
<clus scale="   93.129">  7  8 -1 -1</clus>
<clus scale="  131.320">  2  5  1 -1</clus>
<clus scale="  109.642">  7 10 -1 -1</clus>
<clus scale="   47.795">  1  5  2 -1</clus>
</clustering>
</event>
<event>
10    4  0.2565852E-005  0.2636961E+03  0.7546771E-02  0.1121423E+00
         21   -1    0    0  503  502  0.00000000000E+00  0.00000000000E+00  0.43926020709E+03  0.43926020709E+03  0.00000000000E+00 0.  1.
          2   -1    0    0  502    0 -0.00000000000E+00 -0.00000000000E+00 -0.14825599835E+03  0.14825599835E+03  0.00000000000E+00 0. -1.
         24    2    1    2    0    0 -0.14939251160E+03 -0.16283505277E+02  0.21168091939E+03  0.27173136249E+03  0.80286030272E+02 0.  0.
         23    2    1    2    0    0  0.35855459268E+02 -0.54417277413E+02 -0.37249382785E+02  0.11779108474E+03  0.90776478701E+02 0.  0.
        -13    1    3    3    0    0 -0.12556652598E+03 -0.44704124746E+02  0.16653067327E+03  0.21330231212E+03  0.00000000000E+00 0.  1.
         14    1    3    3    0    0 -0.23825985625E+02  0.28420619469E+02  0.45150246124E+02  0.58429050369E+02  0.00000000000E+00 0. -1.
        -13    1    4    4    0    0  0.33143370675E+02 -0.79697900006E+02 -0.29275647532E+02  0.91144400945E+02  0.00000000000E+00 0. -1.
         13    1    4    4    0    0  0.27120885928E+01  0.25280622593E+02 -0.79737352530E+01  0.26646683792E+02  0.00000000000E+00 0.  1.
         21    1    1    2  503  501 -0.76375150860E+01  0.25392581644E+02  0.38968570194E+02  0.47134534072E+02  0.00000000000E+00 0.  1.
          1    1    1    2  501    0  0.12117456742E+03  0.45308201046E+02  0.77604101936E+02  0.15085922414E+03  0.00000000000E+00 0. -1.
<scales pt_clust_5="13000.00000" pt_clust_6="13000.00000" pt_clust_7="13000.00000" pt_clust_8="13000.00000" pt_clust_9="26.51631" pt_clust_10="13000.00000"></scales>
<clustering>
<clus scale="   26.516">  1  9  2 -1</clus>
<clus scale="   80.286">  5  6 -1 -1</clus>
<clus scale="   90.776">  7  8 -1 -1</clus>
<clus scale="  130.094">  7 10 -1 -1</clus>
<clus scale="  173.719">  2  5  1 -1</clus>
<clus scale="   26.516">  1  5  2 -1</clus>
</clustering>
</event>
<event>
10    4  0.2565852E-005  0.4279588E+03  0.7546771E-02  0.1062128E+00
          2   -1    0    0  503    0 -0.00000000000E+00  0.00000000000E+00  0.23531176757E+04  0.23531176757E+04  0.00000000000E+00 0. -1.
         21   -1    0    0  501  502  0.00000000000E+00 -0.00000000000E+00 -0.16316210165E+03  0.16316210165E+03  0.00000000000E+00 0. -1.
         24    2    1    2    0    0  0.19226369233E+03 -0.13442923735E+02  0.65094286346E+03  0.68275256443E+03  0.72652688577E+02 0.  0.
         23    2    1    2    0    0  0.83674276753E+02 -0.96386268080E+02  0.30979420958E+03  0.34584863430E+03  0.85715391224E+02 0.  0.
        -11    1    3    3    0    0  0.14226623983E+03  0.11518476212E+02  0.53980393558E+03  0.55835530548E+03  0.00000000000E+00 0.  1.
         12    1    3    3    0    0  0.49997452498E+02 -0.24961399947E+02  0.11113892788E+03  0.12439725895E+03  0.00000000000E+00 0. -1.
        -13    1    4    4    0    0  0.10603376840E+02 -0.76617372763E+02  0.14002610673E+03  0.15996863435E+03  0.00000000000E+00 0.  1.
         13    1    4    4    0    0  0.73070899914E+02 -0.19768895317E+02  0.16976810285E+03  0.18587999995E+03  0.00000000000E+00 0. -1.
         21    1    1    2  503  502 -0.43173840681E+02  0.13150425659E+03 -0.78573270174E+02  0.15915749686E+03  0.00000000000E+00 0. -1.
          1    1    1    2  501    0 -0.23276412840E+03 -0.21675064775E+02  0.13077917712E+04  0.13285210818E+04  0.00000000000E+00 0. -1.
<scales pt_clust_5="13000.00000" pt_clust_6="13000.00000" pt_clust_7="13000.00000" pt_clust_8="13000.00000" pt_clust_9="138.41008" pt_clust_10="13000.00000"></scales>
<clustering>
<clus scale="   72.653">  5  6 -1 -1</clus>
<clus scale="   85.715">  7  8 -1 -1</clus>
<clus scale="  138.410">  2  9  1 -1</clus>
<clus scale="  194.072">  1  5  2 -1</clus>
<clus scale="  100.680">  7 10 -1 -1</clus>
<clus scale="  138.410">  2  5  1 -1</clus>
</clustering>
</event>
<event>
10    4  0.2565852E-005  0.1468932E+03  0.7546771E-02  0.1215253E+00
         -1   -1    0    0    0  501 -0.00000000000E+00  0.00000000000E+00  0.49737958380E+03  0.49737958380E+03  0.00000000000E+00 0.  1.
         21   -1    0    0  503  502  0.00000000000E+00 -0.00000000000E+00 -0.16902681245E+03  0.16902681245E+03  0.00000000000E+00 0.  1.
         24    2    1    2    0    0 -0.18066737389E+01  0.28374565104E+02  0.22960191103E+03  0.25590183338E+03  0.10936329716E+03 0.  0.
         23    2    1    2    0    0  0.93623602796E+01 -0.82120072438E+02  0.19791436789E+03  0.23621951815E+03  0.98985876027E+02 0.  0.
        -13    1    3    3    0    0 -0.48169704201E+02 -0.45209518571E+01  0.15328617116E+03  0.16074019310E+03  0.00000000000E+00 0.  1.
         14    1    3    3    0    0  0.46363030462E+02  0.32895516961E+02  0.76315739869E+02  0.95161640284E+02  0.00000000000E+00 0. -1.
        -11    1    4    4    0    0 -0.47725746527E+01 -0.10273984917E+03  0.14588279336E+03  0.17849381915E+03  0.00000000000E+00 0.  1.
         11    1    4    4    0    0  0.14134934932E+02  0.20619776728E+02  0.52031574524E+02  0.57725699002E+02  0.00000000000E+00 0. -1.
         21    1    1    2  503  501  0.24172659473E+01  0.31474072181E+02 -0.13067272241E+03  0.13443147242E+03  0.00000000000E+00 0.  1.
         -2    1    1    2    0  502 -0.99729524880E+01  0.22271435153E+02  0.31509214843E+02  0.39853572301E+02  0.00000000000E+00 0.  1.
<scales pt_clust_5="13000.00000" pt_clust_6="13000.00000" pt_clust_7="13000.00000" pt_clust_8="13000.00000" pt_clust_9="31.56676" pt_clust_10="13000.00000"></scales>
<clustering>
<clus scale="   31.567">  2  9  1 -1</clus>
<clus scale="   98.986">  7  8 -1 -1</clus>
<clus scale="   27.629">  7 10 -1 -1</clus>
<clus scale="  109.363">  5  6 -1 -1</clus>
<clus scale="  116.357">  1  5  2 -1</clus>
<clus scale="   31.567">  2  5  1 -1</clus>
</clustering>
</event>
<event>
10    4  0.2565852E-005  0.4450168E+03  0.7546771E-02  0.1067250E+00
          2   -1    0    0  502    0 -0.00000000000E+00  0.00000000000E+00  0.22970282637E+03  0.22970282637E+03  0.00000000000E+00 0. -1.
         21   -1    0    0  503  502  0.00000000000E+00 -0.00000000000E+00 -0.12603599911E+04  0.12603599911E+04  0.00000000000E+00 0. -1.
         24    2    1    2    0    0 -0.22043905021E+02 -0.12613599570E+03 -0.10169791951E+03  0.18100988635E+03  0.77626599586E+02 0.  0.
         23    2    1    2    0    0 -0.54100739215E+02  0.50252397521E+02 -0.22196687172E+02  0.12374468346E+03  0.96787707503E+02 0.  0.
        -11    1    3    3    0    0  0.23105135651E+02 -0.79274746192E+02 -0.41727231128E+02  0.92517536148E+02  0.00000000000E+00 0.  1.
         12    1    3    3    0    0 -0.45149040672E+02 -0.46861249508E+02 -0.59970688378E+02  0.88492350198E+02  0.00000000000E+00 0. -1.
        -11    1    4    4    0    0 -0.19310100134E+02  0.63588526884E+02 -0.44817805253E+02  0.80156199924E+02  0.00000000000E+00 0.  1.
         11    1    4    4    0    0 -0.34790639081E+02 -0.13336129363E+02  0.22621118081E+02  0.43588483539E+02  0.00000000000E+00 0. -1.
         21    1    1    2  503  501 -0.22200546185E+03  0.16137943302E+03 -0.81781235649E+03  0.86263943622E+03  0.00000000000E+00 0. -1.
          1    1    1    2  501    0  0.29815010608E+03 -0.85495834844E+02 -0.88950201590E+02  0.32266881147E+03  0.00000000000E+00 0. -1.
<scales pt_clust_5="13000.00000" pt_clust_6="13000.00000" pt_clust_7="13000.00000" pt_clust_8="13000.00000" pt_clust_9="268.16180" pt_clust_10="13000.00000"></scales>
<clustering>
<clus scale="   77.627">  5  6 -1 -1</clus>
<clus scale="   96.788">  7  8 -1 -1</clus>
<clus scale="  149.740">  1  5  2 -1</clus>
<clus scale="  268.162">  2  9  1 -1</clus>
<clus scale="  153.572">  7 10 -1 -1</clus>
<clus scale="  268.162">  2  5  1 -1</clus>
</clustering>
</event>
<event>
10    4  0.2565852E-005  0.3215687E+03  0.7546771E-02  0.1104358E+00
         21   -1    0    0  501  502  0.00000000000E+00  0.00000000000E+00  0.19004912869E+03  0.19004912869E+03  0.00000000000E+00 0. -1.
          2   -1    0    0  503    0 -0.00000000000E+00 -0.00000000000E+00 -0.11163020342E+04  0.11163020342E+04  0.00000000000E+00 0. -1.
         24    2    1    2    0    0  0.12465969921E+03  0.12175337924E+02 -0.44607160637E+03  0.47032266050E+03  0.80840877682E+02 0.  0.
         23    2    1    2    0    0 -0.20101910785E+03 -0.23473181203E+02 -0.34978469948E+03  0.41402173543E+03  0.90027714968E+02 0.  0.
        -11    1    3    3    0    0  0.11453365845E+03  0.18534736295E+02 -0.27035219248E+03  0.29419687855E+03  0.00000000000E+00 0.  1.
         12    1    3    3    0    0  0.10126040760E+02 -0.63593983712E+01 -0.17571941389E+03  0.17612578195E+03  0.00000000000E+00 0. -1.
        -11    1    4    4    0    0 -0.25063003357E+02 -0.35324168426E+02 -0.91998892009E+02  0.10168454722E+03  0.00000000000E+00 0.  1.
         11    1    4    4    0    0 -0.17595610450E+03  0.11850987223E+02 -0.25778580747E+03  0.31233718821E+03  0.00000000000E+00 0. -1.
         21    1    1    2  503  502 -0.99202181067E+01  0.21209373169E+02  0.13796732254E+03  0.13994009549E+03  0.00000000000E+00 0. -1.
          1    1    1    2  501    0  0.86279626751E+02 -0.99115298895E+01 -0.26836392223E+03  0.28206667150E+03  0.00000000000E+00 0. -1.
<scales pt_clust_5="13000.00000" pt_clust_6="13000.00000" pt_clust_7="13000.00000" pt_clust_8="13000.00000" pt_clust_9="23.41470" pt_clust_10="13000.00000"></scales>
<clustering>
<clus scale="   23.415">  1  9  2 -1</clus>
<clus scale="   80.841">  5  6 -1 -1</clus>
<clus scale="   90.028">  7  8 -1 -1</clus>
<clus scale="   85.243">  7 10 -1 -1</clus>
<clus scale="  147.614">  2  5  1 -1</clus>
<clus scale="   23.415">  1  5  2 -1</clus>
</clustering>
</event>
<event>
10    4  0.2565852E-005  0.1676667E+04  0.7546771E-02  0.9198605E-01
          2   -1    0    0  502    0 -0.00000000000E+00  0.00000000000E+00  0.20986576614E+04  0.20986576614E+04  0.00000000000E+00 0. -1.
         21   -1    0    0  503  502  0.00000000000E+00 -0.00000000000E+00 -0.72446751731E+03  0.72446751731E+03  0.00000000000E+00 0. -1.
         24    2    1    2    0    0 -0.29897172648E+03  0.10488434313E+03  0.80007325434E+02  0.33515303562E+03  0.74441698643E+02 0.  0.
         23    2    1    2    0    0  0.69260654069E+03 -0.63330972558E+03  0.11029862533E+04  0.14510557946E+04  0.90549517965E+02 0.  0.
        -13    1    3    3    0    0 -0.24662786827E+03  0.54577166074E+02  0.67787823102E+02  0.26153233342E+03  0.00000000000E+00 0.  1.
         14    1    3    3    0    0 -0.52343858208E+02  0.50307177054E+02  0.12219502333E+02  0.73620702200E+02  0.00000000000E+00 0. -1.
        -11    1    4    4    0    0  0.65950743904E+03 -0.59762732817E+03  0.10722401925E+04  0.13934875371E+04  0.00000000000E+00 0. -1.
         11    1    4    4    0    0  0.33099101653E+02 -0.35682397408E+02  0.30746060772E+02  0.57568257469E+02  0.00000000000E+00 0.  1.
         21    1    1    2  503  501  0.20655892011E+02 -0.27726176804E+02 -0.22531482906E+03  0.22795214179E+03  0.00000000000E+00 0. -1.
          1    1    1    2  501    0 -0.41429070623E+03  0.55615155925E+03  0.41651139440E+03  0.80896420674E+03  0.00000000000E+00 0. -1.
<scales pt_clust_5="13000.00000" pt_clust_6="13000.00000" pt_clust_7="13000.00000" pt_clust_8="13000.00000" pt_clust_9="34.57465" pt_clust_10="13000.00000"></scales>
<clustering>
<clus scale="   34.575">  2  9  1 -1</clus>
<clus scale="   74.442">  5  6 -1 -1</clus>
<clus scale="   90.550">  7  8 -1 -1</clus>
<clus scale="  318.354">  1  5  2 -1</clus>
<clus scale="  760.690">  7 10 -1 -1</clus>
<clus scale="   34.575">  2  5  1 -1</clus>
</clustering>
</event>
<event>
10    4  0.2565852E-005  0.2055402E+03  0.7546771E-02  0.1177082E+00
         21   -1    0    0  501  502  0.00000000000E+00  0.00000000000E+00  0.27469026505E+03  0.27469026505E+03  0.00000000000E+00 0.  1.
         -1   -1    0    0    0  501 -0.00000000000E+00 -0.00000000000E+00 -0.10247936474E+03  0.10247936474E+03  0.00000000000E+00 0.  1.
         24    2    1    2    0    0  0.43851435857E+02  0.28461239920E+02  0.45051427012E+02  0.10625607497E+03  0.80794379682E+02 0.  0.
         23    2    1    2    0    0  0.20723006124E+02 -0.34776722611E+02  0.99524018875E+02  0.14435591196E+03  0.96409208926E+02 0.  0.
        -13    1    3    3    0    0  0.12103467606E+02  0.31959526437E+02  0.61479007927E+02  0.70338991135E+02  0.00000000000E+00 0.  1.
         14    1    3    3    0    0  0.31747968251E+02 -0.34982865175E+01 -0.16427580915E+02  0.35917083837E+02  0.00000000000E+00 0. -1.
        -13    1    4    4    0    0 -0.34051364679E+02 -0.25519891802E+02  0.68740708167E+02  0.80845811724E+02  0.00000000000E+00 0.  1.
         13    1    4    4    0    0  0.54774370803E+02 -0.92568308096E+01  0.30783310708E+02  0.63510100234E+02  0.00000000000E+00 0. -1.
         21    1    1    2  503  502  0.22117476725E+02 -0.20781312387E+02  0.17837791251E+02  0.35202734523E+02  0.00000000000E+00 0. -1.
         -2    1    1    2    0  503 -0.86691918707E+02  0.27096795078E+02  0.97976631755E+01  0.91354908332E+02  0.00000000000E+00 0.  1.
<scales pt_clust_5="13000.00000" pt_clust_6="13000.00000" pt_clust_7="13000.00000" pt_clust_8="13000.00000" pt_clust_9="30.34874" pt_clust_10="13000.00000"></scales>
<clustering>
<clus scale="   30.349">  1  9  2 -1</clus>
<clus scale="   80.794">  5  6 -1 -1</clus>
<clus scale="   96.409">  7  8 -1 -1</clus>
<clus scale="   85.305">  7 10 -1 -1</clus>
<clus scale="   97.862">  2  5  1 -1</clus>
<clus scale="   30.349">  1  5  2 -1</clus>
</clustering>
</event>
<event>
10    4  0.2565852E-005  0.3262891E+03  0.7546771E-02  0.1112571E+00
          2   -1    0    0  503    0 -0.00000000000E+00  0.00000000000E+00  0.64736843742E+03  0.64736843742E+03  0.00000000000E+00 0. -1.
         21   -1    0    0  501  502  0.00000000000E+00 -0.00000000000E+00 -0.18663064882E+03  0.18663064882E+03  0.00000000000E+00 0.  1.
         24    2    1    2    0    0  0.26242139014E+02  0.80728442791E+02  0.15570225300E+03  0.19314878990E+03  0.76534515861E+02 0.  0.
         23    2    1    2    0    0  0.12405656658E+03 -0.44693249744E+02  0.33340754254E+03  0.36987244434E+03  0.90870882984E+02 0.  0.
        -13    1    3    3    0    0  0.52991036127E+02  0.55909816588E+02  0.11576476096E+03  0.13905192333E+03  0.00000000000E+00 0.  1.
         14    1    3    3    0    0 -0.26748897113E+02  0.24818626204E+02  0.39937492032E+02  0.54096866575E+02  0.00000000000E+00 0. -1.
        -13    1    4    4    0    0  0.36972657930E+02 -0.49588444261E+02  0.75425335367E+02  0.97544720277E+02  0.00000000000E+00 0.  1.
         13    1    4    4    0    0  0.87083908648E+02  0.48951945165E+01  0.25798220717E+03  0.27232772406E+03  0.00000000000E+00 0. -1.
         21    1    1    2  503  502 -0.21527486449E+02  0.77058622814E+01 -0.11000833401E+03  0.11235945237E+03  0.00000000000E+00 0.  1.
          1    1    1    2  501    0 -0.12877121914E+03 -0.43741055328E+02  0.81636327074E+02  0.15861839962E+03  0.00000000000E+00 0. -1.
<scales pt_clust_5="13000.00000" pt_clust_6="13000.00000" pt_clust_7="13000.00000" pt_clust_8="13000.00000" pt_clust_9="22.86510" pt_clust_10="13000.00000"></scales>
<clustering>
<clus scale="   22.865">  2  9  1 -1</clus>
<clus scale="   76.535">  5  6 -1 -1</clus>
<clus scale="   90.871">  7  8 -1 -1</clus>
<clus scale="  114.559">  1  5  2 -1</clus>
<clus scale="  134.515">  7 10 -1 -1</clus>
<clus scale="   22.865">  2  5  1 -1</clus>
</clustering>
</event>
<event>
10    4  0.2565852E-005  0.1511515E+03  0.7546771E-02  0.1228027E+00
         -1   -1    0    0    0  501 -0.00000000000E+00  0.00000000000E+00  0.77265234128E+03  0.77265234128E+03  0.00000000000E+00 0.  1.
         21   -1    0    0  501  502  0.00000000000E+00 -0.00000000000E+00 -0.25472511421E+02  0.25472511421E+02  0.00000000000E+00 0.  1.
         24    2    1    2    0    0  0.99456341972E+00 -0.10913524057E+02  0.35006686054E+03  0.35962770287E+03  0.81640576042E+02 0.  0.
         23    2    1    2    0    0 -0.44577074595E+02  0.10316312880E+02  0.19848468950E+03  0.22200677576E+03  0.88302291171E+02 0.  0.
        -11    1    3    3    0    0 -0.10904902192E+02  0.33518603486E+02  0.12311454776E+03  0.12806094464E+03  0.00000000000E+00 0.  1.
         12    1    3    3    0    0  0.11899465612E+02 -0.44432127543E+02  0.22695231278E+03  0.23156675822E+03  0.00000000000E+00 0. -1.
        -13    1    4    4    0    0 -0.32483715489E+01  0.44876624954E+02  0.78468594582E+02  0.90453212882E+02  0.00000000000E+00 0. -1.
         13    1    4    4    0    0 -0.41328703047E+02 -0.34560312075E+02  0.12001609492E+03  0.13155356288E+03  0.00000000000E+00 0.  1.
         21    1    1    2  503  502  0.22971458432E+01  0.33059034323E+02  0.66287833782E+02  0.74109739825E+02  0.00000000000E+00 0.  1.
         -2    1    1    2    0  503  0.41285365333E+02 -0.32461823146E+02  0.13234044604E+03  0.14238063426E+03  0.00000000000E+00 0.  1.
<scales pt_clust_5="13000.00000" pt_clust_6="13000.00000" pt_clust_7="13000.00000" pt_clust_8="13000.00000" pt_clust_9="33.13875" pt_clust_10="13000.00000"></scales>
<clustering>
<clus scale="   33.139">  2  9  1 -1</clus>
<clus scale="   81.641">  5  6 -1 -1</clus>
<clus scale="   81.733">  1  5  2 -1</clus>
<clus scale="   88.302">  7  8 -1 -1</clus>
<clus scale="   49.670">  7 10 -1 -1</clus>
<clus scale="   33.139">  2  5  1 -1</clus>
</clustering>
</event>
<event>
10    4  0.2565852E-005  0.2169923E+03  0.7546771E-02  0.1166342E+00
         21   -1    0    0  501  502  0.00000000000E+00  0.00000000000E+00  0.23803124584E+03  0.23803124584E+03  0.00000000000E+00 0.  1.
          2   -1    0    0  503    0 -0.00000000000E+00 -0.00000000000E+00 -0.48931793323E+03  0.48931793323E+03  0.00000000000E+00 0. -1.
         24    2    1    2    0    0  0.60141062919E+02  0.32874961029E+02 -0.45061307826E+02  0.11541327359E+03  0.81191081692E+02 0.  0.
         23    2    1    2    0    0 -0.69894843210E+02 -0.17253752664E+02 -0.26690385430E+03  0.29201395789E+03  0.94082427030E+02 0.  0.
        -11    1    3    3    0    0  0.51657266318E+02 -0.17298104162E+02 -0.30739742102E+02  0.62551013705E+02  0.00000000000E+00 0.  1.
         12    1    3    3    0    0  0.84837966004E+01  0.50173065191E+02 -0.14321565723E+02  0.52862259885E+02  0.00000000000E+00 0. -1.
        -11    1    4    4    0    0  0.19543131799E+02  0.12788910302E+02 -0.40752538418E+02  0.46970837918E+02  0.00000000000E+00 0.  1.
         11    1    4    4    0    0 -0.89437975009E+02 -0.30042662966E+02 -0.22615131588E+03  0.24504311998E+03  0.00000000000E+00 0. -1.
         21    1    1    2  503  502  0.11947178115E+03 -0.27876043209E+02  0.13837080452E+03  0.18492447058E+03  0.00000000000E+00 0.  1.
          1    1    1    2  501    0 -0.10971800086E+03  0.12254834844E+02 -0.77692329776E+02  0.13499747700E+03  0.00000000000E+00 0. -1.
<scales pt_clust_5="13000.00000" pt_clust_6="13000.00000" pt_clust_7="13000.00000" pt_clust_8="13000.00000" pt_clust_9="125.61519" pt_clust_10="13000.00000"></scales>
<clustering>
<clus scale="   81.191">  5  6 -1 -1</clus>
<clus scale="   94.082">  7  8 -1 -1</clus>
<clus scale="  106.253">  2  5  1 -1</clus>
<clus scale="   96.356">  7 10 -1 -1</clus>
<clus scale="  125.615">  1  9  2 -1</clus>
<clus scale="  125.615">  1  5  2 -1</clus>
</clustering>
</event>
<event>
10    4  0.2565852E-005  0.1512060E+03  0.7546771E-02  0.1210253E+00
          4   -1    0    0  503    0 -0.00000000000E+00  0.00000000000E+00  0.55711172476E+03  0.55711172476E+03  0.00000000000E+00 0. -1.
         21   -1    0    0  501  502  0.00000000000E+00 -0.00000000000E+00 -0.16168695476E+03  0.16168695476E+03  0.00000000000E+00 0.  1.
         24    2    1    2    0    0 -0.81200789147E+02  0.16719213287E+02  0.30424585939E+03  0.32518010886E+03  0.79394332242E+02 0.  0.
         23    2    1    2    0    0  0.67778825993E+02 -0.49027814316E+02  0.12703981164E+03  0.17738844118E+03  0.91268009141E+02 0.  0.
        -13    1    3    3    0    0  0.80147516624E+01  0.18694497125E+02  0.26222518017E+02  0.33186456848E+02  0.00000000000E+00 0.  1.
         14    1    3    3    0    0 -0.89215540809E+02 -0.19752838375E+01  0.27802334137E+03  0.29199365201E+03  0.00000000000E+00 0. -1.
        -13    1    4    4    0    0  0.34008457281E+02 -0.54228668594E+02  0.23222121365E+02  0.68092514895E+02  0.00000000000E+00 0.  1.
         13    1    4    4    0    0  0.33770368712E+02  0.52008542777E+01  0.10381769027E+03  0.10929592628E+03  0.00000000000E+00 0. -1.
         21    1    1    2  503  502 -0.11788895015E+02  0.30226722405E+02 -0.12211059171E+03  0.12634725719E+03  0.00000000000E+00 0.  1.
          3    1    1    2  501    0  0.25210858169E+02  0.20818786239E+01  0.86249690685E+02  0.89882872292E+02  0.00000000000E+00 0. -1.
<scales pt_clust_5="13000.00000" pt_clust_6="13000.00000" pt_clust_7="13000.00000" pt_clust_8="13000.00000" pt_clust_9="32.44430" pt_clust_10="13000.00000"></scales>
<clustering>
<clus scale="   32.444">  2  9  1 -1</clus>
<clus scale="   79.394">  5  6 -1 -1</clus>
<clus scale="   91.268">  7  8 -1 -1</clus>
<clus scale="   24.893">  7 10 -1 -1</clus>
<clus scale="  118.643">  1  5  2 -1</clus>
<clus scale="   32.444">  2  5  1 -1</clus>
</clustering>
</event>
<event>
10    4  0.2565852E-005  0.5105488E+03  0.7546771E-02  0.1067080E+00
         21   -1    0    0  503  502  0.00000000000E+00  0.00000000000E+00  0.17801508862E+03  0.17801508862E+03  0.00000000000E+00 0.  1.
          2   -1    0    0  502    0 -0.00000000000E+00 -0.00000000000E+00 -0.21160826464E+04  0.21160826464E+04  0.00000000000E+00 0. -1.
         24    2    1    2    0    0  0.50404807810E+02 -0.27643223367E+02 -0.59056114994E+03  0.59890662786E+03  0.81374963151E+02 0.  0.
         23    2    1    2    0    0 -0.19170182621E+03 -0.10794011644E+03 -0.63437230740E+03  0.67743703152E+03  0.89955813402E+02 0.  0.
        -13    1    3    3    0    0  0.38267741595E+02 -0.14004737620E+02 -0.99702810412E+02  0.10770888137E+03  0.00000000000E+00 0.  1.
         14    1    3    3    0    0  0.12137066215E+02 -0.13638485747E+02 -0.49085833953E+03  0.49119774649E+03  0.00000000000E+00 0. -1.
        -13    1    4    4    0    0 -0.12925046173E+03 -0.36719985912E+02 -0.45716805193E+03  0.47650463474E+03  0.00000000000E+00 0.  1.
         13    1    4    4    0    0 -0.62451364482E+02 -0.71220130529E+02 -0.17720425547E+03  0.20093239678E+03  0.00000000000E+00 0. -1.
         21    1    1    2  503  501  0.32807130487E+03 -0.99441989889E+02 -0.13909371298E+03  0.36995479646E+03  0.00000000000E+00 0.  1.
          1    1    1    2  501    0 -0.18677428647E+03  0.23502532970E+03 -0.57404038745E+03  0.64779927918E+03  0.00000000000E+00 0. -1.
<scales pt_clust_5="13000.00000" pt_clust_6="13000.00000" pt_clust_7="13000.00000" pt_clust_8="13000.00000" pt_clust_9="352.22849" pt_clust_10="13000.00000"></scales>
<clustering>
<clus scale="   81.375">  5  6 -1 -1</clus>
<clus scale="   89.956">  7  8 -1 -1</clus>
<clus scale="   99.633">  2  5  1 -1</clus>
<clus scale="  279.062">  7 10 -1 -1</clus>
<clus scale="  352.228">  1  9  2 -1</clus>
<clus scale="  352.228">  1  5  2 -1</clus>
</clustering>
</event>
<event>
10    4  0.2565852E-005  0.1595370E+03  0.7546771E-02  0.1215481E+00
          2   -1    0    0  503    0 -0.00000000000E+00  0.00000000000E+00  0.10963800633E+04  0.10963800633E+04  0.00000000000E+00 0. -1.
         21   -1    0    0  501  502  0.00000000000E+00 -0.00000000000E+00 -0.13029260793E+03  0.13029260793E+03  0.00000000000E+00 0. -1.
         24    2    1    2    0    0  0.42891926415E+02 -0.48158303208E+01  0.75397742023E+03  0.75947041131E+03  0.80314667735E+02 0.  0.
         23    2    1    2    0    0 -0.70751742572E+02 -0.28595904692E+02  0.26567695967E+03  0.29043173524E+03  0.89122449965E+02 0.  0.
        -13    1    3    3    0    0  0.24925411207E+02  0.27331407180E+02  0.15463784228E+03  0.15900045348E+03  0.00000000000E+00 0.  1.
         14    1    3    3    0    0  0.17966515207E+02 -0.32147237501E+02  0.59933957796E+03  0.60046995783E+03  0.00000000000E+00 0. -1.
        -13    1    4    4    0    0 -0.73961774639E+02 -0.51728390791E+02  0.17638155519E+03  0.19813284315E+03  0.00000000000E+00 0.  1.
         13    1    4    4    0    0  0.32100320674E+01  0.23132486099E+02  0.89295404481E+02  0.92298892087E+02  0.00000000000E+00 0. -1.
         21    1    1    2  503  502 -0.11503787881E+02  0.41745793423E+02 -0.10376464861E+03  0.11243731900E+03  0.00000000000E+00 0. -1.
          1    1    1    2  501    0  0.39363604038E+02 -0.83340584099E+01  0.50197724053E+02  0.64333205676E+02  0.00000000000E+00 0. -1.
<scales pt_clust_5="13000.00000" pt_clust_6="13000.00000" pt_clust_7="13000.00000" pt_clust_8="13000.00000" pt_clust_9="43.30183" pt_clust_10="13000.00000"></scales>
<clustering>
<clus scale="   43.302">  2  9  1 -1</clus>
<clus scale="   80.315">  5  6 -1 -1</clus>
<clus scale="   89.122">  7  8 -1 -1</clus>
<clus scale="   36.043">  7 10 -1 -1</clus>
<clus scale="   90.389">  1  5  2 -1</clus>
<clus scale="   43.302">  2  5  1 -1</clus>
</clustering>
</event>
<event>
10    4  0.2565852E-005  0.2538477E+03  0.7546771E-02  0.1141306E+00
         21   -1    0    0  501  502  0.00000000000E+00  0.00000000000E+00  0.13819215196E+03  0.13819215196E+03  0.00000000000E+00 0. -1.
          2   -1    0    0  503    0 -0.00000000000E+00 -0.00000000000E+00 -0.39694798031E+03  0.39694798031E+03  0.00000000000E+00 0. -1.
         24    2    1    2    0    0  0.50445260436E+02 -0.83901174122E+02 -0.85106354055E+02  0.15354211773E+03  0.82145962147E+02 0.  0.
         23    2    1    2    0    0  0.66037084326E+02  0.24354287526E+02 -0.17920361700E+03  0.21275327789E+03  0.90531724158E+02 0.  0.
        -13    1    3    3    0    0  0.13683588055E+02 -0.41466958902E+02 -0.87025132242E+02  0.97365922706E+02  0.00000000000E+00 0.  1.
         14    1    3    3    0    0  0.36761672381E+02 -0.42434215220E+02  0.19187781876E+01  0.56176195024E+02  0.00000000000E+00 0. -1.
        -13    1    4    4    0    0  0.20762727216E+02 -0.31104366293E+02 -0.32637020933E+02  0.49636151939E+02  0.00000000000E+00 0.  1.
         13    1    4    4    0    0  0.45274357109E+02  0.55458653819E+02 -0.14656659607E+03  0.16311712595E+03  0.00000000000E+00 0. -1.
         21    1    1    2  503  502 -0.10657542200E+02  0.27409926671E+02  0.42987443232E+02  0.52084619241E+02  0.00000000000E+00 0. -1.
          1    1    1    2  501    0 -0.10582480256E+03  0.32136959925E+02 -0.37433300523E+02  0.11676011741E+03  0.00000000000E+00 0. -1.
<scales pt_clust_5="13000.00000" pt_clust_6="13000.00000" pt_clust_7="13000.00000" pt_clust_8="13000.00000" pt_clust_9="29.40897" pt_clust_10="13000.00000"></scales>
<clustering>
<clus scale="   29.409">  1  9  2 -1</clus>
<clus scale="   82.146">  5  6 -1 -1</clus>
<clus scale="   90.532">  7  8 -1 -1</clus>
<clus scale="  118.974">  7 10 -1 -1</clus>
<clus scale="  119.639">  2  5  1 -1</clus>
<clus scale="   29.409">  1  5  2 -1</clus>
</clustering>
</event>
<event>
10    4  0.2565852E-005  0.1848351E+03  0.7546771E-02  0.1182196E+00
          2   -1    0    0  503    0 -0.00000000000E+00  0.00000000000E+00  0.96084322895E+03  0.96084322895E+03  0.00000000000E+00 0. -1.
         21   -1    0    0  501  502  0.00000000000E+00 -0.00000000000E+00 -0.32722901268E+02  0.32722901268E+02  0.00000000000E+00 0. -1.
         24    2    1    2    0    0 -0.21056795786E+02  0.85290857489E+02  0.43368782265E+03  0.44955236583E+03  0.79336517990E+02 0.  0.
         23    2    1    2    0    0  0.57140586522E+02 -0.27235003619E+02  0.19451576847E+03  0.22348287945E+03  0.90007895061E+02 0.  0.
        -11    1    3    3    0    0  0.76927073332E+01  0.39043997272E+02  0.60512874874E+02  0.72425268343E+02  0.00000000000E+00 0.  1.
         12    1    3    3    0    0 -0.28749503120E+02  0.46246860217E+02  0.37317494778E+03  0.37712709749E+03  0.00000000000E+00 0. -1.
        -11    1    4    4    0    0  0.43548325918E+01 -0.46565270232E+02  0.50222919156E+02  0.68626748191E+02  0.00000000000E+00 0. -1.
         11    1    4    4    0    0  0.52785753930E+02  0.19330266613E+02  0.14429284932E+03  0.15485613126E+03  0.00000000000E+00 0.  1.
         21    1    1    2  503  502 -0.22183671702E+02  0.71383439301E+00  0.99172097327E+01  0.24309995858E+02  0.00000000000E+00 0. -1.
          1    1    1    2  501    0 -0.13900119033E+02 -0.58769688263E+02  0.28999952682E+03  0.29622088907E+03  0.00000000000E+00 0. -1.
<scales pt_clust_5="13000.00000" pt_clust_6="13000.00000" pt_clust_7="13000.00000" pt_clust_8="13000.00000" pt_clust_9="22.19515" pt_clust_10="13000.00000"></scales>
<clustering>
<clus scale="   22.195">  2  9  1 -1</clus>
<clus scale="   79.337">  5  6 -1 -1</clus>
<clus scale="   90.008">  7  8 -1 -1</clus>
<clus scale="   60.986">  7 10 -1 -1</clus>
<clus scale="  119.950">  1  5  2 -1</clus>
<clus scale="   22.195">  2  5  1 -1</clus>
</clustering>
</event>
<event>
10    4  0.2565852E-005  0.2860013E+03  0.7546771E-02  0.1135168E+00
         21   -1    0    0  503  502  0.00000000000E+00  0.00000000000E+00  0.10352918160E+03  0.10352918160E+03  0.00000000000E+00 0. -1.
          2   -1    0    0  502    0 -0.00000000000E+00 -0.00000000000E+00 -0.57007985483E+03  0.57007985483E+03  0.00000000000E+00 0. -1.
         24    2    1    2    0    0  0.80144316879E+01 -0.52203352353E+02 -0.11150296307E+03  0.14662373923E+03  0.79222402263E+02 0.  0.
         23    2    1    2    0    0 -0.63596695457E+01 -0.66136946548E+02 -0.51981491498E+02  0.12399228159E+03  0.90870618682E+02 0.  0.
        -11    1    3    3    0    0 -0.27165057358E+02 -0.63189702137E+01 -0.96655436535E+01  0.29517663525E+02  0.00000000000E+00 0.  1.
         12    1    3    3    0    0  0.35179489046E+02 -0.45884382139E+02 -0.10183741941E+03  0.11710607570E+03  0.00000000000E+00 0. -1.
        -11    1    4    4    0    0 -0.30220979765E+02  0.46360125680E+01  0.37496605863E+01  0.30803574225E+02  0.00000000000E+00 0. -1.
         11    1    4    4    0    0  0.23861310220E+02 -0.70772959116E+02 -0.55731152085E+02  0.93188707364E+02  0.00000000000E+00 0.  1.
         21    1    1    2  503  501  0.27089891402E+02 -0.64305873166E+01  0.33109077143E+02  0.43259977563E+02  0.00000000000E+00 0. -1.
          1    1    1    2  501    0 -0.28744653545E+02  0.12477088622E+03 -0.33617529581E+03  0.35973303805E+03  0.00000000000E+00 0. -1.
<scales pt_clust_5="13000.00000" pt_clust_6="13000.00000" pt_clust_7="13000.00000" pt_clust_8="13000.00000" pt_clust_9="27.84268" pt_clust_10="13000.00000"></scales>
<clustering>
<clus scale="   27.843">  1  9  2 -1</clus>
<clus scale="   79.222">  5  6 -1 -1</clus>
<clus scale="   90.871">  7  8 -1 -1</clus>
<clus scale="   97.050">  2  5  1 -1</clus>
<clus scale="   82.567">  7 10 -1 -1</clus>
<clus scale="   27.843">  1  5  2 -1</clus>
</clustering>
</event>
<event>
10    4  0.2565852E-005  0.2984589E+03  0.7546771E-02  0.1129261E+00
          2   -1    0    0  502    0 -0.00000000000E+00  0.00000000000E+00  0.82261053061E+03  0.82261053061E+03  0.00000000000E+00 0. -1.
         21   -1    0    0  503  502  0.00000000000E+00 -0.00000000000E+00 -0.88316915188E+02  0.88316915188E+02  0.00000000000E+00 0.  1.
         24    2    1    2    0    0  0.54851927038E+02  0.13542366202E+02  0.41895860783E+03  0.43049649595E+03  0.81294454758E+02 0.  0.
         23    2    1    2    0    0 -0.46607222429E+02 -0.12400827433E+03  0.15896708729E+03  0.22715264244E+03  0.93688328198E+02 0.  0.
        -13    1    3    3    0    0 -0.20001981516E+02  0.46136242804E+01  0.52621331978E+02  0.56483354829E+02  0.00000000000E+00 0.  1.
         14    1    3    3    0    0  0.74853908554E+02  0.89287419217E+01  0.36633727585E+03  0.37401314112E+03  0.00000000000E+00 0. -1.
        -13    1    4    4    0    0 -0.69789307222E+02 -0.10409837559E+03  0.98501280905E+02  0.15940364344E+03  0.00000000000E+00 0. -1.
         13    1    4    4    0    0  0.23182084793E+02 -0.19909898739E+02  0.60465806383E+02  0.67748998994E+02  0.00000000000E+00 0.  1.
         21    1    1    2  503  501 -0.10637347591E+01 -0.23487538076E+02 -0.20568466748E+02  0.31238722780E+02  0.00000000000E+00 0.  1.
          1    1    1    2  501    0 -0.71809698497E+01  0.13395344620E+03  0.17693638705E+03  0.22203958463E+03  0.00000000000E+00 0. -1.
<scales pt_clust_5="13000.00000" pt_clust_6="13000.00000" pt_clust_7="13000.00000" pt_clust_8="13000.00000" pt_clust_9="23.51161" pt_clust_10="13000.00000"></scales>
<clustering>
<clus scale="   23.512">  2  9  1 -1</clus>
<clus scale="   81.294">  5  6 -1 -1</clus>
<clus scale="   93.688">  7  8 -1 -1</clus>
<clus scale="   98.671">  1  5  2 -1</clus>
<clus scale="  131.615">  7 10 -1 -1</clus>
<clus scale="   23.512">  2  5  1 -1</clus>
</clustering>
</event>
<event>
10    4  0.2565852E-005  0.5429061E+03  0.7546771E-02  0.1014679E+00
          2   -1    0    0  503    0 -0.00000000000E+00  0.00000000000E+00  0.13776391160E+04  0.13776391160E+04  0.00000000000E+00 0. -1.
         21   -1    0    0  501  502  0.00000000000E+00 -0.00000000000E+00 -0.18516558618E+03  0.18516558618E+03  0.00000000000E+00 0. -1.
         24    2    1    2    0    0  0.19661310028E+03 -0.31046368264E+03  0.32880930284E+03  0.49973372681E+03  0.81079162813E+02 0.  0.
         23    2    1    2    0    0  0.10300967694E+03  0.14757658283E+03  0.46626543229E+03  0.50729391435E+03  0.86912719697E+02 0.  0.
        -13    1    3    3    0    0  0.67821752637E+02 -0.59423694234E+02  0.11268017557E+03  0.14431835481E+03  0.00000000000E+00 0.  1.
         14    1    3    3    0    0  0.12879134765E+03 -0.25103998840E+03  0.21612912727E+03  0.35541537201E+03  0.00000000000E+00 0. -1.
        -11    1    4    4    0    0  0.90273880192E+02  0.62589689563E+02  0.31104583194E+03  0.32987323664E+03  0.00000000000E+00 0.  1.
         11    1    4    4    0    0  0.12735796747E+02  0.84986893269E+02  0.15521960035E+03  0.17742067771E+03  0.00000000000E+00 0. -1.
         21    1    1    2  503  502 -0.36808098889E+02 -0.29995181913E+02  0.83673769007E+01  0.48213691810E+02  0.00000000000E+00 0. -1.
          1    1    1    2  501    0 -0.26281467833E+03  0.19288228172E+03  0.38903141783E+03  0.50756336925E+03  0.00000000000E+00 0. -1.
<scales pt_clust_5="13000.00000" pt_clust_6="13000.00000" pt_clust_7="13000.00000" pt_clust_8="13000.00000" pt_clust_9="47.48207" pt_clust_10="13000.00000"></scales>
<clustering>
<clus scale="   47.482">  2  9  1 -1</clus>
<clus scale="   81.079">  5  6 -1 -1</clus>
<clus scale="   86.913">  7  8 -1 -1</clus>
<clus scale="  330.688">  7 10 -1 -1</clus>
<clus scale="  379.958">  1  5  2 -1</clus>
<clus scale="   47.482">  2  5  1 -1</clus>
</clustering>
</event>
<event>
10    4  0.2565852E-005  0.7651615E+03  0.7546771E-02  0.1027569E+00
         21   -1    0    0  503  502  0.00000000000E+00  0.00000000000E+00  0.40802578688E+03  0.40802578688E+03  0.00000000000E+00 0. -1.
          2   -1    0    0  502    0 -0.00000000000E+00 -0.00000000000E+00 -0.70803131863E+03  0.70803131863E+03  0.00000000000E+00 0. -1.
         24    2    1    2    0    0 -0.13036523862E+02 -0.41360348075E+02 -0.18517269221E+03  0.20674731671E+03  0.81085742760E+02 0.  0.
         23    2    1    2    0    0  0.22037128518E+03 -0.32516948155E+03 -0.15637239733E+03  0.43245682600E+03  0.90927909053E+02 0.  0.
        -11    1    3    3    0    0 -0.43111137223E+02 -0.32568577761E+01 -0.80840415461E+02  0.91675242280E+02  0.00000000000E+00 0.  1.
         12    1    3    3    0    0  0.30074613362E+02 -0.38103490299E+02 -0.10433227675E+03  0.11507207443E+03  0.00000000000E+00 0. -1.
        -13    1    4    4    0    0  0.30707598646E+02 -0.25558887455E+02  0.93706967176E+01  0.41036852944E+02  0.00000000000E+00 0.  1.
         13    1    4    4    0    0  0.18966368653E+03 -0.29961059409E+03 -0.16574309405E+03  0.39141997306E+03  0.00000000000E+00 0. -1.
         21    1    1    2  503  501  0.11963355851E+02  0.91748562948E+02  0.81144386520E+02  0.12306637295E+03  0.00000000000E+00 0. -1.
          1    1    1    2  501    0 -0.21929811717E+03  0.27478126668E+03 -0.39604828724E+02  0.35378658986E+03  0.00000000000E+00 0. -1.
<scales pt_clust_5="13000.00000" pt_clust_6="13000.00000" pt_clust_7="13000.00000" pt_clust_8="13000.00000" pt_clust_9="90.77795" pt_clust_10="13000.00000"></scales>
<clustering>
<clus scale="   81.086">  5  6 -1 -1</clus>
<clus scale="   90.928">  7  8 -1 -1</clus>
<clus scale="   91.954">  2  5  1 -1</clus>
<clus scale="   90.778">  1  9  2 -1</clus>
<clus scale="  374.350">  7 10 -1 -1</clus>
<clus scale="   90.778">  1  5  2 -1</clus>
</clustering>
</event>
<event>
10    4  0.2565852E-005  0.1664495E+03  0.7546771E-02  0.1207472E+00
         21   -1    0    0  501  502  0.00000000000E+00  0.00000000000E+00  0.19029996748E+03  0.19029996748E+03  0.00000000000E+00 0.  1.
          2   -1    0    0  503    0 -0.00000000000E+00 -0.00000000000E+00 -0.63320018657E+03  0.63320018657E+03  0.00000000000E+00 0. -1.
         24    2    1    2    0    0 -0.35388354775E+02  0.37568796081E+02 -0.53215588314E+03  0.54056589501E+03  0.79736144847E+02 0.  0.
         23    2    1    2    0    0  0.63189306219E+01 -0.70508931222E+02  0.96782992271E+02  0.14452794056E+03  0.80684197603E+02 0.  0.
        -11    1    3    3    0    0  0.35789457001E+01 -0.22827271826E+02 -0.12903713907E+03  0.13108957415E+03  0.00000000000E+00 0.  1.
         12    1    3    3    0    0 -0.38967300475E+02  0.60396067908E+02 -0.40311874407E+03  0.40947632086E+03  0.00000000000E+00 0. -1.
        -11    1    4    4    0    0 -0.15666106754E+02 -0.28130026238E+02  0.90888525044E+02  0.96423281741E+02  0.00000000000E+00 0.  1.
         11    1    4    4    0    0  0.21985037376E+02 -0.42378904984E+02  0.58944672269E+01  0.48104658818E+02  0.00000000000E+00 0. -1.
         21    1    1    2  503  502  0.81625828579E+02  0.21307734522E+02 -0.37037476855E+01  0.84442366076E+02  0.00000000000E+00 0.  1.
          1    1    1    2  501    0 -0.52556404426E+02  0.11632400619E+02 -0.38235805321E+01  0.53963952398E+02  0.00000000000E+00 0. -1.
<scales pt_clust_5="13000.00000" pt_clust_6="13000.00000" pt_clust_7="13000.00000" pt_clust_8="13000.00000" pt_clust_9="84.36110" pt_clust_10="13000.00000"></scales>
<clustering>
<clus scale="   79.736">  5  6 -1 -1</clus>
<clus scale="   80.684">  7  8 -1 -1</clus>
<clus scale="   53.828">  7 10 -1 -1</clus>
<clus scale="   84.361">  1  9  2 -1</clus>
<clus scale="   94.393">  2  5  1 -1</clus>
<clus scale="   84.361">  1  5  2 -1</clus>
</clustering>
</event>
<event>
10    4  0.2565852E-005  0.2944629E+03  0.7546771E-02  0.1116659E+00
         21   -1    0    0  503  502  0.00000000000E+00  0.00000000000E+00  0.15681454750E+03  0.15681454750E+03  0.00000000000E+00 0. -1.
          2   -1    0    0  502    0 -0.00000000000E+00 -0.00000000000E+00 -0.52537563075E+03  0.52537563075E+03  0.00000000000E+00 0. -1.
         24    2    1    2    0    0 -0.92594907134E+02  0.22218462490E+02 -0.71614372207E+01  0.12450470938E+03  0.79891548813E+02 0.  0.
         23    2    1    2    0    0  0.18760848749E+03  0.26173146519E+02 -0.36135686902E+03  0.41613693295E+03  0.81909596533E+02 0.  0.
        -13    1    3    3    0    0 -0.31276314895E+02 -0.22646286374E+02 -0.25588381340E+02  0.46323076533E+02  0.00000000000E+00 0.  1.
         14    1    3    3    0    0 -0.61318592239E+02  0.44864748863E+02  0.18426944119E+02  0.78181632845E+02  0.00000000000E+00 0. -1.
        -11    1    4    4    0    0  0.33879321782E+02  0.55209964478E+01 -0.16674387733E+02  0.38161827163E+02  0.00000000000E+00 0.  1.
         11    1    4    4    0    0  0.15372916570E+03  0.20652150071E+02 -0.34468248128E+03  0.37797510579E+03  0.00000000000E+00 0. -1.
         21    1    1    2  503  501 -0.43509558349E+02 -0.72567882766E+02 -0.16873811811E+01  0.84628757122E+02  0.00000000000E+00 0. -1.
          1    1    1    2  501    0 -0.51504022003E+02  0.24176273757E+02  0.16446041696E+01  0.56919778796E+02  0.00000000000E+00 0. -1.
<scales pt_clust_5="13000.00000" pt_clust_6="13000.00000" pt_clust_7="13000.00000" pt_clust_8="13000.00000" pt_clust_9="84.61193" pt_clust_10="13000.00000"></scales>
<clustering>
<clus scale="   79.892">  5  6 -1 -1</clus>
<clus scale="   81.910">  7  8 -1 -1</clus>
<clus scale="   56.896">  7 10 -1 -1</clus>
<clus scale="   84.612">  1  9  2 -1</clus>
<clus scale="  140.573">  2  5  1 -1</clus>
<clus scale="   84.612">  1  5  2 -1</clus>
</clustering>
</event>
<event>
10    4  0.2565852E-005  0.3678089E+03  0.7546771E-02  0.1112814E+00
          2   -1    0    0  502    0 -0.00000000000E+00  0.00000000000E+00  0.18221332340E+04  0.18221332340E+04  0.00000000000E+00 0. -1.
         21   -1    0    0  503  502  0.00000000000E+00 -0.00000000000E+00 -0.10689589514E+03  0.10689589514E+03  0.00000000000E+00 0. -1.
         24    2    1    2    0    0  0.30489827942E+01 -0.44853530470E+01  0.45454731937E+03  0.46138163753E+03  0.78932472520E+02 0.  0.
         23    2    1    2    0    0 -0.17469904696E+03  0.64239118575E+02  0.61529759734E+03  0.64913216031E+03  0.90194273065E+02 0.  0.
        -13    1    3    3    0    0  0.15635272229E+02 -0.38609301776E+02  0.20412430545E+03  0.20833115945E+03  0.00000000000E+00 0.  1.
         14    1    3    3    0    0 -0.12586289435E+02  0.34123948729E+02  0.25042301391E+03  0.25305047808E+03  0.00000000000E+00 0. -1.
        -13    1    4    4    0    0 -0.43034818022E+02  0.54503921038E+02  0.14696708943E+03  0.16254844923E+03  0.00000000000E+00 0.  1.
         13    1    4    4    0    0 -0.13166422894E+03  0.97351975368E+01  0.46833050791E+03  0.48658371108E+03  0.00000000000E+00 0. -1.
         21    1    1    2  503  501  0.20957300807E+02 -0.25569160335E+02 -0.74880470249E+02  0.81853987332E+02  0.00000000000E+00 0. -1.
          1    1    1    2  501    0  0.15069276336E+03 -0.34184605193E+02  0.72027289238E+03  0.73666134394E+03  0.00000000000E+00 0. -1.
<scales pt_clust_5="13000.00000" pt_clust_6="13000.00000" pt_clust_7="13000.00000" pt_clust_8="13000.00000" pt_clust_9="33.06041" pt_clust_10="13000.00000"></scales>
<clustering>
<clus scale="   33.060">  2  9  1 -1</clus>
<clus scale="   78.932">  5  6 -1 -1</clus>
<clus scale="   79.487">  1  5  2 -1</clus>
<clus scale="   90.194">  7  8 -1 -1</clus>
<clus scale="  166.493">  7 10 -1 -1</clus>
<clus scale="   33.060">  2  5  1 -1</clus>
</clustering>
</event>
<event>
10    4  0.2565852E-005  0.2578156E+03  0.7546771E-02  0.1138158E+00
          2   -1    0    0  503    0 -0.00000000000E+00  0.00000000000E+00  0.17144533050E+03  0.17144533050E+03  0.00000000000E+00 0. -1.
         21   -1    0    0  501  502  0.00000000000E+00 -0.00000000000E+00 -0.48812539260E+03  0.48812539260E+03  0.00000000000E+00 0. -1.
         24    2    1    2    0    0 -0.26369216592E+02  0.73005785896E+02 -0.67750257042E+02  0.13097552327E+03  0.80866000322E+02 0.  0.
         23    2    1    2    0    0 -0.61606671634E+02  0.12978451267E+02 -0.70598251586E+01  0.10695461682E+03  0.86172076339E+02 0.  0.
        -11    1    3    3    0    0 -0.47865017842E+02  0.16581356403E+02 -0.22032337122E+02  0.55239706663E+02  0.00000000000E+00 0.  1.
         12    1    3    3    0    0  0.21495801250E+02  0.56424429493E+02 -0.45717919920E+02  0.75735816605E+02  0.00000000000E+00 0. -1.
        -13    1    4    4    0    0  0.87597936855E+01  0.30107320549E+02  0.93052440067E+01  0.32707373818E+02  0.00000000000E+00 0.  1.
         13    1    4    4    0    0 -0.70366465319E+02 -0.17128869283E+02 -0.16365069165E+02  0.74247243001E+02  0.00000000000E+00 0. -1.
         21    1    1    2  503  502 -0.18652705027E+02  0.30323469611E+02 -0.26035089019E+03  0.26277370918E+03  0.00000000000E+00 0. -1.
          1    1    1    2  501    0  0.10662859325E+03 -0.11630770677E+03  0.18480910301E+02  0.15886687383E+03  0.00000000000E+00 0. -1.
<scales pt_clust_5="13000.00000" pt_clust_6="13000.00000" pt_clust_7="13000.00000" pt_clust_8="13000.00000" pt_clust_9="35.60107" pt_clust_10="13000.00000"></scales>
<clustering>
<clus scale="   35.601">  2  9  1 -1</clus>
<clus scale="   80.866">  5  6 -1 -1</clus>
<clus scale="   86.172">  7  8 -1 -1</clus>
<clus scale="  123.213">  1  5  2 -1</clus>
<clus scale="   98.343">  7 10 -1 -1</clus>
<clus scale="   35.601">  2  5  1 -1</clus>
</clustering>
</event>
<event>
10    4  0.3773337E-005  0.6485638E+03  0.7546771E-02  0.9971844E-01
         21   -1    0    0  501  502  0.00000000000E+00  0.00000000000E+00  0.32151107985E+03  0.32151107985E+03  0.00000000000E+00 0. -1.
          2   -1    0    0  503    0 -0.00000000000E+00 -0.00000000000E+00 -0.98748858364E+03  0.98748858364E+03  0.00000000000E+00 0. -1.
         24    2    1    2    0    0  0.66219153562E+02 -0.36453293783E+03 -0.39190186054E+03  0.54535440824E+03  0.80963715568E+02 0.  0.
         23    2    1    2    0    0 -0.31766123570E+02 -0.10535410508E+03 -0.16010660486E+03  0.21048863155E+03  0.81010894515E+02 0.  0.
        -13    1    3    3    0    0 -0.16841066344E+02 -0.95155439874E+02 -0.85803609893E+02  0.12923017730E+03  0.00000000000E+00 0.  1.
         14    1    3    3    0    0  0.83060219906E+02 -0.26937749795E+03 -0.30609825065E+03  0.41612423095E+03  0.00000000000E+00 0. -1.
        -13    1    4    4    0    0 -0.57937114722E+02 -0.55636719983E+02 -0.98750739191E+02  0.12729439251E+03  0.00000000000E+00 0. -1.
         13    1    4    4    0    0  0.26170991152E+02 -0.49717385100E+02 -0.61355865666E+02  0.83194239048E+02  0.00000000000E+00 0.  1.
         21    1    1    2  503  502 -0.16922408142E+02 -0.22568523672E+02  0.28608922135E+02  0.40176816497E+02  0.00000000000E+00 0. -1.
          1    1    1    2  501    0 -0.17530621850E+02  0.49245556658E+03 -0.14257796053E+03  0.51297980719E+03  0.00000000000E+00 0. -1.
<scales pt_clust_5="13000.00000" pt_clust_6="13000.00000" pt_clust_7="13000.00000" pt_clust_8="13000.00000" pt_clust_9="28.20826" pt_clust_10="13000.00000"></scales>
<clustering>
<clus scale="   28.208">  1  9  2 -1</clus>
<clus scale="   80.964">  5  6 -1 -1</clus>
<clus scale="   81.011">  7  8 -1 -1</clus>
<clus scale="  384.291">  2  5  1 -1</clus>
<clus scale="  249.307">  7 10 -1 -1</clus>
<clus scale="   28.208">  1  5  2 -1</clus>
</clustering>
</event>
<event>
10    4  0.2565852E-005  0.1118392E+04  0.7546771E-02  0.9707367E-01
         21   -1    0    0  501  502  0.00000000000E+00  0.00000000000E+00  0.38250609451E+03  0.38250609451E+03  0.00000000000E+00 0. -1.
          2   -1    0    0  503    0 -0.00000000000E+00 -0.00000000000E+00 -0.20960659365E+04  0.20960659365E+04  0.00000000000E+00 0. -1.
         24    2    1    2    0    0  0.39204277020E+02 -0.15723349816E+03 -0.10147988524E+04  0.10302459237E+04  0.73010986815E+02 0.  0.
         23    2    1    2    0    0  0.33372555990E+02 -0.45433703059E+03 -0.42211247623E+03  0.62779350888E+03  0.91705410645E+02 0.  0.
        -13    1    3    3    0    0  0.34721297073E+02 -0.10084505167E+03 -0.44309494774E+03  0.45575039839E+03  0.00000000000E+00 0.  1.
         14    1    3    3    0    0  0.44829799473E+01 -0.56388446498E+02 -0.57170390468E+03  0.57449552533E+03  0.00000000000E+00 0. -1.
        -11    1    4    4    0    0  0.28680956040E+02 -0.37676268171E+02 -0.53712896818E+02  0.71604285536E+02  0.00000000000E+00 0.  1.
         11    1    4    4    0    0  0.46915999499E+01 -0.41666076242E+03 -0.36839957941E+03  0.55618922334E+03  0.00000000000E+00 0. -1.
         21    1    1    2  503  502 -0.13948165504E+03 -0.16791664249E+02 -0.45606530312E+02  0.14770595008E+03  0.00000000000E+00 0. -1.
          1    1    1    2  501    0  0.66904822031E+02  0.62836219300E+03 -0.23104198304E+03  0.67282664835E+03  0.00000000000E+00 0. -1.
<scales pt_clust_5="13000.00000" pt_clust_6="13000.00000" pt_clust_7="13000.00000" pt_clust_8="13000.00000" pt_clust_9="140.48876" pt_clust_10="13000.00000"></scales>
<clustering>
<clus scale="   73.011">  5  6 -1 -1</clus>
<clus scale="   91.705">  7  8 -1 -1</clus>
<clus scale="  140.489">  1  9  2 -1</clus>
<clus scale="  177.395">  2  5  1 -1</clus>
<clus scale="  545.008">  7 10 -1 -1</clus>
<clus scale="  140.489">  1  5  2 -1</clus>
</clustering>
</event>
<event>
10    4  0.2565852E-005  0.1867032E+03  0.7546771E-02  0.1194086E+00
         -3   -1    0    0    0  501 -0.00000000000E+00  0.00000000000E+00  0.72881010798E+03  0.72881010798E+03  0.00000000000E+00 0.  1.
         21   -1    0    0  501  502  0.00000000000E+00 -0.00000000000E+00 -0.48940036461E+02  0.48940036461E+02  0.00000000000E+00 0.  1.
         24    2    1    2    0    0  0.51441928174E-01  0.26908025166E+02  0.29346433672E+03  0.30618568114E+03  0.83092177424E+02 0.  0.
         23    2    1    2    0    0  0.43539466732E+02 -0.64620463187E+02  0.24557268285E+03  0.27169540431E+03  0.86261003573E+02 0.  0.
        -13    1    3    3    0    0  0.40065755591E+02  0.18111022338E+01  0.13435195209E+03  0.14021052704E+03  0.00000000000E+00 0.  1.
         14    1    3    3    0    0 -0.40014313663E+02  0.25096922932E+02  0.15911238463E+03  0.16597515411E+03  0.00000000000E+00 0. -1.
        -13    1    4    4    0    0  0.18475423321E+02 -0.78630319120E+02  0.13376789425E+03  0.15626233674E+03  0.00000000000E+00 0.  1.
         13    1    4    4    0    0  0.25064043411E+02  0.14009855933E+02  0.11180478860E+03  0.11543306757E+03  0.00000000000E+00 0. -1.
         21    1    1    2  503  502  0.32231703793E+02  0.24766856866E+02  0.14547005975E+01  0.40674268060E+02  0.00000000000E+00 0.  1.
         -4    1    1    2    0  503 -0.75822612453E+02  0.12945581156E+02  0.13937835135E+03  0.15919479092E+03  0.00000000000E+00 0.  1.
<scales pt_clust_5="13000.00000" pt_clust_6="13000.00000" pt_clust_7="13000.00000" pt_clust_8="13000.00000" pt_clust_9="40.64825" pt_clust_10="13000.00000"></scales>
<clustering>
<clus scale="   40.648">  2  9  1 -1</clus>
<clus scale="   83.092">  5  6 -1 -1</clus>
<clus scale="   86.261">  7  8 -1 -1</clus>
<clus scale="   68.342">  7 10 -1 -1</clus>
<clus scale="   89.419">  1  5  2 -1</clus>
<clus scale="   40.648">  2  5  1 -1</clus>
</clustering>
</event>
<event>
10    4  0.2565852E-005  0.1020685E+04  0.7546771E-02  0.9557724E-01
         21   -1    0    0  503  502  0.00000000000E+00  0.00000000000E+00  0.11609286994E+04  0.11609286994E+04  0.00000000000E+00 0.  1.
         -1   -1    0    0    0  501 -0.00000000000E+00 -0.00000000000E+00 -0.70785176825E+03  0.70785176825E+03  0.00000000000E+00 0.  1.
         24    2    1    2    0    0  0.24951499333E+03  0.33646140027E+03  0.39729669285E+02  0.42781821829E+03  0.77369086227E+02 0.  0.
         23    2    1    2    0    0  0.11727405556E+03 -0.17278592654E+03 -0.42087335942E+03  0.48003126682E+03  0.98424854277E+02 0.  0.
        -11    1    3    3    0    0  0.24147514453E+03  0.28475736763E+03  0.29683907380E+02  0.37453723206E+03  0.00000000000E+00 0.  1.
         12    1    3    3    0    0  0.80398488039E+01  0.51704032647E+02  0.10045761905E+02  0.53280986224E+02  0.00000000000E+00 0. -1.
        -13    1    4    4    0    0  0.15421917723E+02 -0.10011783433E+03 -0.14253638815E+03  0.17486577208E+03  0.00000000000E+00 0. -1.
         13    1    4    4    0    0  0.10185213784E+03 -0.72668092208E+02 -0.27833697127E+03  0.30516549474E+03  0.00000000000E+00 0.  1.
         21    1    1    2  503  501 -0.53836302763E+02 -0.10802279671E+03  0.43047977235E+03  0.44707953041E+03  0.00000000000E+00 0.  1.
         -2    1    1    2    0  502 -0.31295274613E+03 -0.55652677024E+02  0.40374084898E+03  0.51385145218E+03  0.00000000000E+00 0.  1.
<scales pt_clust_5="13000.00000" pt_clust_6="13000.00000" pt_clust_7="13000.00000" pt_clust_8="13000.00000" pt_clust_9="120.69495" pt_clust_10="13000.00000"></scales>
<clustering>
<clus scale="   77.369">  5  6 -1 -1</clus>
<clus scale="   98.425">  7  8 -1 -1</clus>
<clus scale="  120.695">  1  9  2 -1</clus>
<clus scale="  368.732">  7 10 -1 -1</clus>
<clus scale="  388.263">  2  5  1 -1</clus>
<clus scale="  120.695">  1  5  2 -1</clus>
</clustering>
</event>
<event>
10    4  0.2565852E-005  0.2115186E+03  0.7546771E-02  0.1162758E+00
         -1   -1    0    0    0  501 -0.00000000000E+00  0.00000000000E+00  0.82200893671E+03  0.82200893671E+03  0.00000000000E+00 0.  1.
         21   -1    0    0  501  502  0.00000000000E+00 -0.00000000000E+00 -0.34081759363E+03  0.34081759363E+03  0.00000000000E+00 0.  1.
         24    2    1    2    0    0  0.81445865377E+02 -0.41677231148E+02 -0.40691474396E+01  0.12468383630E+03  0.84611349654E+02 0.  0.
         23    2    1    2    0    0 -0.15111563762E+03  0.20193836508E+02  0.49563096775E+03  0.52656034764E+03  0.91498724241E+02 0.  0.
        -11    1    3    3    0    0  0.57431139614E+02 -0.50938925471E+02 -0.35063855195E+02  0.84395401929E+02  0.00000000000E+00 0.  1.
         12    1    3    3    0    0  0.24014725763E+02  0.92616943230E+01  0.30994707755E+02  0.40288434371E+02  0.00000000000E+00 0. -1.
        -11    1    4    4    0    0 -0.82905907386E+01  0.32597843448E+02  0.11533371229E+03  0.12013833061E+03  0.00000000000E+00 0.  1.
         11    1    4    4    0    0 -0.14282504689E+03 -0.12404006940E+02  0.38029725547E+03  0.40642201702E+03  0.00000000000E+00 0. -1.
         21    1    1    2  503  502  0.16620328049E+03 -0.14368051798E+02 -0.22113718993E+03  0.27700474387E+03  0.00000000000E+00 0.  1.
         -2    1    1    2    0  503 -0.96533508245E+02  0.35851446439E+02  0.21076671269E+03  0.23457760252E+03  0.00000000000E+00 0.  1.
<scales pt_clust_5="13000.00000" pt_clust_6="13000.00000" pt_clust_7="13000.00000" pt_clust_8="13000.00000" pt_clust_9="169.93528" pt_clust_10="13000.00000"></scales>
<clustering>
<clus scale="   84.611">  5  6 -1 -1</clus>
<clus scale="   91.499">  7  8 -1 -1</clus>
<clus scale="  102.976">  7 10 -1 -1</clus>
<clus scale="  124.617">  1  5  2 -1</clus>
<clus scale="  169.935">  2  9  1 -1</clus>
<clus scale="  169.935">  2  5  1 -1</clus>
</clustering>
</event>
<event>
10    4  0.2565852E-005  0.2823942E+03  0.7546771E-02  0.1095658E+00
         21   -1    0    0  503  502  0.00000000000E+00  0.00000000000E+00  0.32238027124E+03  0.32238027124E+03  0.00000000000E+00 0.  1.
          2   -1    0    0  502    0 -0.00000000000E+00 -0.00000000000E+00 -0.59552529580E+03  0.59552529580E+03  0.00000000000E+00 0. -1.
         24    2    1    2    0    0  0.25509601080E+03 -0.44760128756E+02  0.19721051237E+03  0.34375099710E+03  0.11043241356E+03 0.  0.
         23    2    1    2    0    0 -0.18248047464E+03  0.75313068098E+02 -0.33219932813E+03  0.39686774635E+03  0.90423628731E+02 0.  0.
        -11    1    3    3    0    0  0.19950086749E+03 -0.38954902100E+02  0.88882850006E+02  0.22185184596E+03  0.00000000000E+00 0.  1.
         12    1    3    3    0    0  0.55595143304E+02 -0.58052266560E+01  0.10832766236E+03  0.12189915114E+03  0.00000000000E+00 0. -1.
        -11    1    4    4    0    0 -0.32395713281E+02 -0.21174390605E+02 -0.60582900762E+02  0.71889671868E+02  0.00000000000E+00 0.  1.
         11    1    4    4    0    0 -0.15008476136E+03  0.96487458703E+02 -0.27161642736E+03  0.32497807448E+03  0.00000000000E+00 0. -1.
         21    1    1    2  503  501 -0.13881960797E+02 -0.15476441239E+02  0.53738731069E+01  0.21473415684E+02  0.00000000000E+00 0.  1.
          1    1    1    2  501    0 -0.58733575364E+02 -0.15076498103E+02 -0.14353008191E+03  0.15581340791E+03  0.00000000000E+00 0. -1.
<scales pt_clust_5="13000.00000" pt_clust_6="13000.00000" pt_clust_7="13000.00000" pt_clust_8="13000.00000" pt_clust_9="20.79012" pt_clust_10="13000.00000"></scales>
<clustering>
<clus scale="   20.790">  1  9  2 -1</clus>
<clus scale="   90.424">  7  8 -1 -1</clus>
<clus scale="   60.982">  7 10 -1 -1</clus>
<clus scale="  110.432">  5  6 -1 -1</clus>
<clus scale="  273.160">  2  5  1 -1</clus>
<clus scale="   20.790">  1  5  2 -1</clus>
</clustering>
</event>
<event>
10    4  0.2565852E-005  0.5842919E+03  0.7546771E-02  0.1027808E+00
         21   -1    0    0  503  502  0.00000000000E+00  0.00000000000E+00  0.26305762735E+03  0.26305762735E+03  0.00000000000E+00 0. -1.
          2   -1    0    0  502    0 -0.00000000000E+00 -0.00000000000E+00 -0.11474166287E+04  0.11474166287E+04  0.00000000000E+00 0. -1.
         24    2    1    2    0    0  0.31770127810E+02  0.18664085991E+03 -0.65615540067E+03  0.68756702278E+03  0.79776872421E+02 0.  0.
         23    2    1    2    0    0 -0.17282633153E+02  0.14572785870E+03 -0.27181683523E+03  0.32171874176E+03  0.89906944533E+02 0.  0.
        -13    1    3    3    0    0  0.25537915236E+02  0.26640957540E+02 -0.61424142988E+02  0.71657875178E+02  0.00000000000E+00 0.  1.
         14    1    3    3    0    0  0.62322125740E+01  0.15999990237E+03 -0.59473125769E+03  0.61590914760E+03  0.00000000000E+00 0. -1.
        -13    1    4    4    0    0 -0.37721004103E+02  0.28629235703E+02 -0.11926967440E+03  0.12832678021E+03  0.00000000000E+00 0.  1.
         13    1    4    4    0    0  0.20438370950E+02  0.11709862300E+03 -0.15254716083E+03  0.19339196155E+03  0.00000000000E+00 0. -1.
         21    1    1    2  503  501 -0.22321933401E+02 -0.18157496535E+01  0.66088162994E+02  0.69779731624E+02  0.00000000000E+00 0. -1.
          1    1    1    2  501    0  0.78344387447E+01 -0.33055296896E+03 -0.22474928427E+02  0.33140875988E+03  0.00000000000E+00 0. -1.
<scales pt_clust_5="13000.00000" pt_clust_6="13000.00000" pt_clust_7="13000.00000" pt_clust_8="13000.00000" pt_clust_9="22.39566" pt_clust_10="13000.00000"></scales>
<clustering>
<clus scale="   22.396">  1  9  2 -1</clus>
<clus scale="   79.777">  5  6 -1 -1</clus>
<clus scale="   89.907">  7  8 -1 -1</clus>
<clus scale="  205.044">  2  5  1 -1</clus>
<clus scale="  261.820">  7 10 -1 -1</clus>
<clus scale="   22.396">  1  5  2 -1</clus>
</clustering>
</event>
<event>
10    4  0.2565852E-005  0.2169449E+03  0.7546771E-02  0.1154801E+00
          2   -1    0    0  502    0 -0.00000000000E+00  0.00000000000E+00  0.30009580267E+03  0.30009580267E+03  0.00000000000E+00 0. -1.
         21   -1    0    0  503  502  0.00000000000E+00 -0.00000000000E+00 -0.13538727706E+03  0.13538727706E+03  0.00000000000E+00 0.  1.
         24    2    1    2    0    0  0.87561262533E+02 -0.78742512092E+02  0.12886116446E+03  0.19257078766E+03  0.81307752691E+02 0.  0.
         23    2    1    2    0    0 -0.19096574895E+02 -0.14239754638E+02 -0.13069491144E+02  0.97061231997E+02  0.93180584743E+02 0.  0.
        -11    1    3    3    0    0  0.63121832087E+02 -0.82565459565E+02  0.61387391956E+02  0.12070556197E+03  0.00000000000E+00 0.  1.
         12    1    3    3    0    0  0.24439430446E+02  0.38229474736E+01  0.67473772501E+02  0.71865225690E+02  0.00000000000E+00 0. -1.
        -13    1    4    4    0    0 -0.47623868285E+02 -0.32122364520E+02  0.69922009443E+01  0.57868558016E+02  0.00000000000E+00 0.  1.
         13    1    4    4    0    0  0.28527293390E+02  0.17882609882E+02 -0.20061692088E+02  0.39192673981E+02  0.00000000000E+00 0. -1.
         21    1    1    2  503  501 -0.22856625002E+02  0.17886933475E+01 -0.13202313046E+02  0.26456110828E+02  0.00000000000E+00 0. -1.
          1    1    1    2  501    0 -0.45608062635E+02  0.91193573383E+02  0.62119165338E+02  0.11939494925E+03  0.00000000000E+00 0. -1.
<scales pt_clust_5="13000.00000" pt_clust_6="13000.00000" pt_clust_7="13000.00000" pt_clust_8="13000.00000" pt_clust_9="22.92651" pt_clust_10="13000.00000"></scales>
<clustering>
<clus scale="   22.927">  2  9  1 -1</clus>
<clus scale="   81.308">  5  6 -1 -1</clus>
<clus scale="   93.181">  7  8 -1 -1</clus>
<clus scale="  105.006">  7 10 -1 -1</clus>
<clus scale="  139.058">  1  5  2 -1</clus>
<clus scale="   22.927">  2  5  1 -1</clus>
</clustering>
</event>
<event>
10    4  0.2565852E-005  0.1610482E+03  0.7546771E-02  0.1217497E+00
         21   -1    0    0  503  502  0.00000000000E+00  0.00000000000E+00  0.68035421203E+02  0.68035421203E+02  0.00000000000E+00 0.  1.
         -1   -1    0    0    0  501 -0.00000000000E+00 -0.00000000000E+00 -0.33407776885E+03  0.33407776885E+03  0.00000000000E+00 0.  1.
         24    2    1    2    0    0  0.27728877586E+02  0.16346541374E+02 -0.13520556165E+03  0.16055139729E+03  0.80374792098E+02 0.  0.
         23    2    1    2    0    0 -0.43299381232E+02 -0.31583729327E+02 -0.83565185392E+02  0.13511664323E+03  0.91656962061E+02 0.  0.
        -11    1    3    3    0    0  0.15193014375E+02  0.45002328317E+02 -0.46406453054E+02  0.66404789923E+02  0.00000000000E+00 0.  1.
         12    1    3    3    0    0  0.12535863211E+02 -0.28655786943E+02 -0.88799108597E+02  0.94146607371E+02  0.00000000000E+00 0. -1.
        -13    1    4    4    0    0 -0.13413204755E+02  0.15576064426E+02 -0.76052375633E+02  0.78781290191E+02  0.00000000000E+00 0. -1.
         13    1    4    4    0    0 -0.29886176477E+02 -0.47159793753E+02 -0.75128097594E+01  0.56335353037E+02  0.00000000000E+00 0.  1.
         21    1    1    2  503  501 -0.37007859721E+02  0.19833383454E+01 -0.44001260648E+01  0.37321259645E+02  0.00000000000E+00 0. -1.
         -2    1    1    2    0  502  0.52578363366E+02  0.13253849608E+02 -0.42871474538E+02  0.69123889884E+02  0.00000000000E+00 0.  1.
<scales pt_clust_5="13000.00000" pt_clust_6="13000.00000" pt_clust_7="13000.00000" pt_clust_8="13000.00000" pt_clust_9="37.06097" pt_clust_10="13000.00000"></scales>
<clustering>
<clus scale="   37.061">  1  9  2 -1</clus>
<clus scale="   80.375">  5  6 -1 -1</clus>
<clus scale="   84.207">  2  5  1 -1</clus>
<clus scale="   91.657">  7  8 -1 -1</clus>
<clus scale="   51.199">  7 10 -1 -1</clus>
<clus scale="   37.061">  1  5  2 -1</clus>
</clustering>
</event>
<event>
10    4  0.2565852E-005  0.1595639E+03  0.7546771E-02  0.1202491E+00
         21   -1    0    0  503  502  0.00000000000E+00  0.00000000000E+00  0.33889047896E+02  0.33889047896E+02  0.00000000000E+00 0. -1.
          2   -1    0    0  502    0 -0.00000000000E+00 -0.00000000000E+00 -0.84281473394E+03  0.84281473394E+03  0.00000000000E+00 0. -1.
         24    2    1    2    0    0  0.13946865672E+02 -0.86803730354E+02 -0.39201595928E+03  0.40956245176E+03  0.79595771808E+02 0.  0.
         23    2    1    2    0    0 -0.21699442910E+02  0.27334774522E+02 -0.20689788941E+03  0.22883477427E+03  0.91326674911E+02 0.  0.
        -13    1    3    3    0    0  0.41796064798E+02 -0.20956871441E+02 -0.17052332139E+03  0.17681715028E+03  0.00000000000E+00 0.  1.
         14    1    3    3    0    0 -0.27849199126E+02 -0.65846858913E+02 -0.22149263789E+03  0.23274530148E+03  0.00000000000E+00 0. -1.
        -11    1    4    4    0    0  0.33273344971E+02  0.77076850276E+01 -0.43387567562E+02  0.55217795257E+02  0.00000000000E+00 0.  1.
         11    1    4    4    0    0 -0.54972787881E+02  0.19627089494E+02 -0.16351032185E+03  0.17361697901E+03  0.00000000000E+00 0. -1.
         21    1    1    2  503  501  0.20618426971E+02  0.16629645971E+01 -0.61278407382E+00  0.20694455449E+02  0.00000000000E+00 0. -1.
          1    1    1    2  501    0 -0.12865849733E+02  0.57805991235E+02 -0.20939905327E+03  0.21761210036E+03  0.00000000000E+00 0. -1.
<scales pt_clust_5="13000.00000" pt_clust_6="13000.00000" pt_clust_7="13000.00000" pt_clust_8="13000.00000" pt_clust_9="20.68538" pt_clust_10="13000.00000"></scales>
<clustering>
<clus scale="   20.685">  1  9  2 -1</clus>
<clus scale="   79.596">  5  6 -1 -1</clus>
<clus scale="   91.327">  7  8 -1 -1</clus>
<clus scale="   58.835">  7 10 -1 -1</clus>
<clus scale="  119.282">  2  5  1 -1</clus>
<clus scale="   20.685">  1  5  2 -1</clus>
</clustering>
</event>
<event>
10    4  0.2565852E-005  0.2169543E+03  0.7546771E-02  0.1169452E+00
          2   -1    0    0  502    0 -0.00000000000E+00  0.00000000000E+00  0.30227196803E+03  0.30227196803E+03  0.00000000000E+00 0. -1.
         21   -1    0    0  503  502  0.00000000000E+00 -0.00000000000E+00 -0.10024204117E+03  0.10024204117E+03  0.00000000000E+00 0. -1.
         24    2    1    2    0    0  0.30698716729E+02  0.44771614949E+02  0.50934643821E+02  0.10700442981E+03  0.76868077538E+02 0.  0.
         23    2    1    2    0    0 -0.15465295733E+02  0.21920455222E+02  0.91690497673E+00  0.96045323181E+02  0.92218120025E+02 0.  0.
        -11    1    3    3    0    0 -0.11648637181E-01  0.46342867686E+02  0.59181525570E+02  0.75167243463E+02  0.00000000000E+00 0.  1.
         12    1    3    3    0    0  0.30710365366E+02 -0.15712527372E+01 -0.82468817489E+01  0.31837186349E+02  0.00000000000E+00 0. -1.
        -13    1    4    4    0    0  0.38036913063E+01  0.50634620135E+02 -0.21169599702E+02  0.55013496302E+02  0.00000000000E+00 0. -1.
         13    1    4    4    0    0 -0.19268987039E+02 -0.28714164913E+02  0.22086504679E+02  0.41031826880E+02  0.00000000000E+00 0.  1.
         21    1    1    2  503  501  0.14966663193E+01  0.30463126121E+02  0.21291345019E+02  0.37196282554E+02  0.00000000000E+00 0.  1.
          1    1    1    2  501    0 -0.16730087315E+02 -0.97155196292E+02  0.12888703304E+03  0.16226797365E+03  0.00000000000E+00 0. -1.
<scales pt_clust_5="13000.00000" pt_clust_6="13000.00000" pt_clust_7="13000.00000" pt_clust_8="13000.00000" pt_clust_9="30.49989" pt_clust_10="13000.00000"></scales>
<clustering>
<clus scale="   30.500">  2  9  1 -1</clus>
<clus scale="   76.868">  5  6 -1 -1</clus>
<clus scale="   92.218">  7  8 -1 -1</clus>
<clus scale="   93.112">  7 10 -1 -1</clus>
<clus scale="   98.985">  1  5  2 -1</clus>
<clus scale="   30.500">  2  5  1 -1</clus>
</clustering>
</event>
