<event>
 9    2  0.5608219E-005  0.1178113E+03  0.7546771E-02  0.1254063E+00
         -1   -1    0    0    0  501 -0.00000000000E+00  0.00000000000E+00  0.16285581899E+03  0.16285581899E+03  0.00000000000E+00 0.  1.
          2   -1    0    0  502    0  0.00000000000E+00 -0.00000000000E+00 -0.94061563348E+03  0.94061563348E+03  0.00000000000E+00 0. -1.
         23    2    1    2    0    0  0.14160235118E+02  0.42967181938E+02  0.45452110092E+02  0.11149714095E+03  0.91208701044E+02 0.  0.
         24    2    1    2    0    0  0.20042466115E+02  0.78912138669E+02 -0.85384549610E+03  0.86173296145E+03  0.83082727235E+02 0.  0.
        -11    1    4    4    0    0  0.50541176641E+01  0.54472141735E+02 -0.20257758550E+03  0.20983430720E+03  0.00000000000E+00 0.  1.
         12    1    4    4    0    0  0.14988348451E+02  0.24439996934E+02 -0.65126791060E+03  0.65189865425E+03  0.00000000000E+00 0. -1.
        -13    1    3    3    0    0 -0.29173390499E+02 -0.62356858545E+01  0.33489765465E+02  0.44850138040E+02  0.00000000000E+00 0. -1.
         13    1    3    3    0    0  0.43333625617E+02  0.49202867793E+02  0.11962344627E+02  0.66647002912E+02  0.00000000000E+00 0.  1.
         21    1    1    2  502  501 -0.34202701233E+02 -0.12187932061E+03  0.30633571520E+02  0.13024135007E+03  0.00000000000E+00 0.  1.
<scales pt_clust_5="13000.00000" pt_clust_6="13000.00000" pt_clust_7="13000.00000" pt_clust_8="13000.00000" pt_clust_9="83.52701"></scales>
<clustering>
<clus scale="   83.083">  5  6 -1 -1</clus>
<clus scale="   91.209">  7  8 -1 -1</clus>
<clus scale="  101.812">  1  7  2 -1</clus>
<clus scale="   83.527">  1  9  2 -1</clus>
<clus scale="  117.811">  2  5  1 -1</clus>
</clustering>
</event>
<event>
 9    2  0.5608219E-005  0.1470995E+03  0.7546771E-02  0.1206759E+00
          2   -1    0    0  502    0  0.00000000000E+00  0.00000000000E+00  0.30874521769E+03  0.30874521769E+03  0.00000000000E+00 0. -1.
         -1   -1    0    0    0  501 -0.00000000000E+00 -0.00000000000E+00 -0.10599884521E+03  0.10599884521E+03  0.00000000000E+00 0.  1.
         23    2    1    2    0    0 -0.68726190212E+02 -0.11822517482E+03  0.60937776698E+02  0.17663798520E+03  0.93739447431E+02 0.  0.
         24    2    1    2    0    0  0.55930840712E+02  0.87276942608E+02  0.15421961458E+03  0.20239127077E+03  0.80206067799E+02 0.  0.
        -11    1    4    4    0    0  0.57437730303E+02  0.76494955950E+02  0.72703660097E+02  0.12015154323E+03  0.00000000000E+00 0.  1.
         12    1    4    4    0    0 -0.15068895905E+01  0.10781986658E+02  0.81515954480E+02  0.82239727549E+02  0.00000000000E+00 0. -1.
        -13    1    3    3    0    0 -0.23300529054E+02 -0.10683594822E+03  0.68742773219E+02  0.12916037843E+03  0.00000000000E+00 0.  1.
         13    1    3    3    0    0 -0.45425661158E+02 -0.11389226604E+02 -0.78049965206E+01  0.47477606774E+02  0.00000000000E+00 0. -1.
         21    1    1    2  502  501  0.12795349500E+02  0.30948232216E+02 -0.12411018800E+02  0.35714806926E+02  0.00000000000E+00 0. -1.
<scales pt_clust_5="13000.00000" pt_clust_6="13000.00000" pt_clust_7="13000.00000" pt_clust_8="13000.00000" pt_clust_9="33.48901"></scales>
<clustering>
<clus scale="   33.489">  2  9  1 -1</clus>
<clus scale="   80.206">  5  6 -1 -1</clus>
<clus scale="   93.739">  7  8 -1 -1</clus>
<clus scale="  138.868">  1  5  2 -1</clus>
<clus scale="  138.868">  1  5  2 -1</clus>
</clustering>
</event>
<event>
 9    2  0.5608219E-005  0.1468891E+03  0.7546771E-02  0.1206148E+00
          2   -1    0    0  502    0  0.00000000000E+00  0.00000000000E+00  0.15124569464E+03  0.15124569464E+03  0.00000000000E+00 0. -1.
         -1   -1    0    0    0  501 -0.00000000000E+00 -0.00000000000E+00 -0.24927478438E+03  0.24927478438E+03  0.00000000000E+00 0.  1.
         23    2    1    2    0    0 -0.80197518569E+00 -0.84712256184E+02 -0.53501560181E+02  0.13486548690E+03  0.90274432164E+02 0.  0.
         24    2    1    2    0    0  0.46634823328E+02  0.13222061863E+03  0.31576918193E+02  0.16490986103E+03  0.80876830842E+02 0.  0.
        -11    1    4    4    0    0 -0.12715012324E+02  0.61678775221E+02 -0.10027312335E+02  0.63769035149E+02  0.00000000000E+00 0.  1.
         12    1    4    4    0    0  0.59349835652E+02  0.70541843406E+02  0.41604230527E+02  0.10114082589E+03  0.00000000000E+00 0. -1.
        -13    1    3    3    0    0  0.35643357592E+02 -0.56272963130E+02 -0.34048105853E+01  0.66698486152E+02  0.00000000000E+00 0. -1.
         13    1    3    3    0    0 -0.36445332778E+02 -0.28439293054E+02 -0.50096749595E+02  0.68167000746E+02  0.00000000000E+00 0.  1.
         21    1    1    2  502  501 -0.45832848142E+02 -0.47508362442E+02 -0.76104447748E+02  0.10074513109E+03  0.00000000000E+00 0.  1.
<scales pt_clust_5="13000.00000" pt_clust_6="13000.00000" pt_clust_7="13000.00000" pt_clust_8="13000.00000" pt_clust_9="66.01284"></scales>
<clustering>
<clus scale="   66.013">  2  9  1 -1</clus>
<clus scale="   80.877">  5  6 -1 -1</clus>
<clus scale="   90.274">  7  8 -1 -1</clus>
<clus scale="  141.308">  1  5  2 -1</clus>
<clus scale="  141.308">  1  5  2 -1</clus>
</clustering>
</event>
<event>
 9    2  0.5608219E-005  0.1276048E+03  0.7546771E-02  0.1234895E+00
          2   -1    0    0  502    0  0.00000000000E+00  0.00000000000E+00  0.35069907415E+03  0.35069907415E+03  0.00000000000E+00 0. -1.
         -1   -1    0    0    0  501 -0.00000000000E+00 -0.00000000000E+00 -0.84436333666E+02  0.84436333666E+02  0.00000000000E+00 0.  1.
         24    2    1    2    0    0 -0.75363703262E+02 -0.47171832403E+01 -0.20174476515E+01  0.10789544797E+03  0.77041664119E+02 0.  0.
         23    2    1    2    0    0  0.92807249324E+02 -0.74767808747E+01  0.27549962385E+03  0.30476574546E+03  0.91175814149E+02 0.  0.
        -11    1    3    3    0    0 -0.47362091388E+02  0.35073887563E+02 -0.50080422013E+01  0.59147491714E+02  0.00000000000E+00 0.  1.
         12    1    3    3    0    0 -0.28001611874E+02 -0.39791070803E+02  0.29905945498E+01  0.48747956254E+02  0.00000000000E+00 0. -1.
        -13    1    4    4    0    0  0.65135411521E+02 -0.30639858026E+02  0.87354651771E+02  0.11319124489E+03  0.00000000000E+00 0.  1.
         13    1    4    4    0    0  0.27671837804E+02  0.23163077151E+02  0.18814497208E+03  0.19157450057E+03  0.00000000000E+00 0. -1.
         21    1    1    2  502  501 -0.17443546062E+02  0.12193964115E+02 -0.72194357168E+01  0.22474214383E+02  0.00000000000E+00 0. -1.
<scales pt_clust_5="13000.00000" pt_clust_6="13000.00000" pt_clust_7="13000.00000" pt_clust_8="13000.00000" pt_clust_9="21.28309"></scales>
<clustering>
<clus scale="   21.283">  2  9  1 -1</clus>
<clus scale="   77.042">  5  6 -1 -1</clus>
<clus scale="   91.176">  7  8 -1 -1</clus>
<clus scale="  117.921">  2  5  1 -1</clus>
<clus scale="  127.605">  1  5  2 -1</clus>
</clustering>
</event>
<event>
 9    2  0.5608219E-005  0.9802328E+02  0.7546771E-02  0.1284855E+00
         -1   -1    0    0    0  501 -0.00000000000E+00  0.00000000000E+00  0.21318014967E+02  0.21318014967E+02  0.00000000000E+00 0.  1.
          2   -1    0    0  502    0  0.00000000000E+00 -0.00000000000E+00 -0.10444279923E+04  0.10444279923E+04  0.00000000000E+00 0. -1.
         23    2    1    2    0    0 -0.14474619397E+02 -0.46127056301E+02 -0.13196466320E+03  0.16558607920E+03  0.87560592509E+02 0.  0.
         24    2    1    2    0    0 -0.14722391332E+02  0.28942045235E+02 -0.68571228214E+03  0.69195204956E+03  0.86844195089E+02 0.  0.
        -13    1    4    4    0    0  0.17489121454E+02 -0.19527071078E+02 -0.10084099289E+03  0.10419252239E+03  0.00000000000E+00 0.  1.
         14    1    4    4    0    0 -0.32211512787E+02  0.48469116314E+02 -0.58487128925E+03  0.58775952717E+03  0.00000000000E+00 0. -1.
        -13    1    3    3    0    0  0.18755923375E+02 -0.59091726745E+02 -0.10016605384E+03  0.11780006441E+03  0.00000000000E+00 0.  1.
         13    1    3    3    0    0 -0.33230542771E+02  0.12964670444E+02 -0.31798609356E+02  0.47786014790E+02  0.00000000000E+00 0. -1.
         21    1    1    2  502  501  0.29197010729E+02  0.17185011066E+02 -0.20543303202E+03  0.20820787854E+03  0.00000000000E+00 0. -1.
<scales pt_clust_5="13000.00000" pt_clust_6="13000.00000" pt_clust_7="13000.00000" pt_clust_8="13000.00000" pt_clust_9="33.87905"></scales>
<clustering>
<clus scale="   33.879">  2  9  1 -1</clus>
<clus scale="   86.844">  5  6 -1 -1</clus>
<clus scale="   87.561">  7  8 -1 -1</clus>
<clus scale="   97.384">  2  5  1 -1</clus>
<clus scale="   33.879">  2  5  1 -1</clus>
</clustering>
</event>
<event>
 9    2  0.5608219E-005  0.1245288E+03  0.7546771E-02  0.1245718E+00
          2   -1    0    0  502    0  0.00000000000E+00  0.00000000000E+00  0.26136472926E+03  0.26136472926E+03  0.00000000000E+00 0. -1.
         -1   -1    0    0    0  501 -0.00000000000E+00 -0.00000000000E+00 -0.23508800084E+03  0.23508800084E+03  0.00000000000E+00 0.  1.
         23    2    1    2    0    0  0.96463871350E+01 -0.63993251775E+02 -0.87276094178E+02  0.14353632922E+03  0.93794307579E+02 0.  0.
         24    2    1    2    0    0  0.60532768945E+02 -0.12382551399E+02  0.19569100640E+03  0.22060971738E+03  0.80969955689E+02 0.  0.
        -13    1    4    4    0    0 -0.10153836193E+02  0.21095877504E+02  0.51494045830E+02  0.56566537750E+02  0.00000000000E+00 0.  1.
         14    1    4    4    0    0  0.70686605137E+02 -0.33478428903E+02  0.14419696057E+03  0.16404317963E+03  0.00000000000E+00 0. -1.
        -13    1    3    3    0    0 -0.17135223478E+02 -0.17529538491E+02 -0.86494507519E+02  0.89901059139E+02  0.00000000000E+00 0. -1.
         13    1    3    3    0    0  0.26781610613E+02 -0.46463713285E+02 -0.78158665831E+00  0.53635270083E+02  0.00000000000E+00 0.  1.
         21    1    1    2  502  501 -0.70179156080E+02  0.76375803174E+02 -0.82138183799E+02  0.13230668349E+03  0.00000000000E+00 0.  1.
<scales pt_clust_5="13000.00000" pt_clust_6="13000.00000" pt_clust_7="13000.00000" pt_clust_8="13000.00000" pt_clust_9="81.91493"></scales>
<clustering>
<clus scale="   80.970">  5  6 -1 -1</clus>
<clus scale="   93.794">  7  8 -1 -1</clus>
<clus scale="  101.851">  1  5  2 -1</clus>
<clus scale="   81.915">  1  9  2 -1</clus>
<clus scale="  101.851">  1  5  2 -1</clus>
</clustering>
</event>
<event>
 9    2  0.5608219E-005  0.2720127E+03  0.7546771E-02  0.1100596E+00
         -1   -1    0    0    0  501 -0.00000000000E+00  0.00000000000E+00  0.16889323737E+03  0.16889323737E+03  0.00000000000E+00 0.  1.
          2   -1    0    0  502    0  0.00000000000E+00 -0.00000000000E+00 -0.89781077893E+03  0.89781077893E+03  0.00000000000E+00 0. -1.
         23    2    1    2    0    0  0.24901288720E+03  0.44108498529E+02 -0.27989930495E+02  0.26935778125E+03  0.88414933581E+02 0.  0.
         24    2    1    2    0    0 -0.25888914424E+03  0.24693314796E+01 -0.69925952361E+03  0.74970363628E+03  0.77858681509E+02 0.  0.
        -13    1    4    4    0    0 -0.16733097749E+03 -0.15942447063E+02 -0.53460831056E+03  0.56041044188E+03  0.00000000000E+00 0.  1.
         14    1    4    4    0    0 -0.91558166747E+02  0.18411778543E+02 -0.16465121305E+03  0.18929319440E+03  0.00000000000E+00 0. -1.
        -11    1    3    3    0    0  0.20152288650E+03  0.68433910981E+02 -0.10040871176E+02  0.21306218118E+03  0.00000000000E+00 0.  1.
         11    1    3    3    0    0  0.47490000695E+02 -0.24325412452E+02 -0.17949059319E+02  0.56295600072E+02  0.00000000000E+00 0. -1.
         21    1    1    2  502  501  0.98762570435E+01 -0.46577830009E+02 -0.16680874432E+01  0.47642598767E+02  0.00000000000E+00 0. -1.
<scales pt_clust_5="13000.00000" pt_clust_6="13000.00000" pt_clust_7="13000.00000" pt_clust_8="13000.00000" pt_clust_9="47.61339"></scales>
<clustering>
<clus scale="   47.613">  1  9  2 -1</clus>
<clus scale="   77.859">  5  6 -1 -1</clus>
<clus scale="   88.415">  7  8 -1 -1</clus>
<clus scale="  268.767">  2  5  1 -1</clus>
<clus scale="  268.767">  2  5  1 -1</clus>
</clustering>
</event>
<event>
 9    2  0.5608219E-005  0.2973191E+03  0.7546771E-02  0.1087008E+00
         -1   -1    0    0    0  501 -0.00000000000E+00  0.00000000000E+00  0.57555445915E+02  0.57555445915E+02  0.00000000000E+00 0.  1.
          2   -1    0    0  502    0  0.00000000000E+00 -0.00000000000E+00 -0.18098586048E+04  0.18098586048E+04  0.00000000000E+00 0. -1.
         23    2    1    2    0    0  0.15566160408E+03 -0.22791803629E+03 -0.64173816243E+03  0.70454060173E+03  0.91500951448E+02 0.  0.
         24    2    1    2    0    0 -0.19524603429E+03  0.21282150103E+03 -0.10151976758E+04  0.10585194441E+04  0.80144165879E+02 0.  0.
        -11    1    4    4    0    0 -0.17615819089E+03  0.18222810796E+03 -0.76890320816E+03  0.80959924349E+03  0.00000000000E+00 0.  1.
         12    1    4    4    0    0 -0.19087843403E+02  0.30593393061E+02 -0.24629446767E+03  0.24892020061E+03  0.00000000000E+00 0. -1.
        -11    1    3    3    0    0  0.25797158344E+02 -0.10469655009E+03 -0.29930366482E+03  0.31813447590E+03  0.00000000000E+00 0.  1.
         11    1    3    3    0    0  0.12986444574E+03 -0.12322148621E+03 -0.34243449761E+03  0.38640612583E+03  0.00000000000E+00 0. -1.
         21    1    1    2  502  501  0.39584430208E+02  0.15096535268E+02 -0.95367320631E+02  0.10435400489E+03  0.00000000000E+00 0. -1.
<scales pt_clust_5="13000.00000" pt_clust_6="13000.00000" pt_clust_7="13000.00000" pt_clust_8="13000.00000" pt_clust_9="42.36546"></scales>
<clustering>
<clus scale="   42.365">  1  9  2 -1</clus>
<clus scale="   80.144">  5  6 -1 -1</clus>
<clus scale="   91.501">  7  8 -1 -1</clus>
<clus scale="  294.023">  2  5  1 -1</clus>
<clus scale="  294.023">  2  5  1 -1</clus>
</clustering>
</event>
<event>
 9    2  0.5608219E-005  0.1185654E+03  0.7546771E-02  0.1250704E+00
          2   -1    0    0  502    0  0.00000000000E+00  0.00000000000E+00  0.28795090676E+03  0.28795090676E+03  0.00000000000E+00 0. -1.
         -1   -1    0    0    0  501 -0.00000000000E+00 -0.00000000000E+00 -0.69561201519E+02  0.69561201519E+02  0.00000000000E+00 0.  1.
         24    2    1    2    0    0 -0.99472648562E+02  0.73227889125E+00  0.87569771275E+02  0.15381269682E+03  0.78067514474E+02 0.  0.
         23    2    1    2    0    0  0.54997366324E+02  0.10065868145E+01  0.11016284743E+03  0.15463017866E+03  0.93535638551E+02 0.  0.
        -13    1    3    3    0    0 -0.11872827223E+02 -0.30926757861E+02  0.26627690116E+02  0.42502497091E+02  0.00000000000E+00 0.  1.
         14    1    3    3    0    0 -0.87599821339E+02  0.31659036752E+02  0.60942081160E+02  0.11131019972E+03  0.00000000000E+00 0. -1.
        -13    1    4    4    0    0  0.61458600192E+02  0.33060531322E+02  0.48986235030E+02  0.85263177816E+02  0.00000000000E+00 0.  1.
         13    1    4    4    0    0 -0.64612338679E+01 -0.32053944507E+02  0.61176612396E+02  0.69367000842E+02  0.00000000000E+00 0. -1.
         21    1    1    2  502  501  0.44475282239E+02 -0.17388657057E+01  0.20657086544E+02  0.49069232811E+02  0.00000000000E+00 0.  1.
<scales pt_clust_5="13000.00000" pt_clust_6="13000.00000" pt_clust_7="13000.00000" pt_clust_8="13000.00000" pt_clust_9="44.50926"></scales>
<clustering>
<clus scale="   44.509">  2  9  1 -1</clus>
<clus scale="   78.068">  5  6 -1 -1</clus>
<clus scale="   93.536">  7  8 -1 -1</clus>
<clus scale="  106.787">  2  5  1 -1</clus>
<clus scale="  118.565">  1  5  2 -1</clus>
</clustering>
</event>
<event>
 9    2  0.5608219E-005  0.9505467E+02  0.7546771E-02  0.1297693E+00
          2   -1    0    0  502    0  0.00000000000E+00  0.00000000000E+00  0.90221784283E+03  0.90221784283E+03  0.00000000000E+00 0. -1.
         -1   -1    0    0    0  501 -0.00000000000E+00 -0.00000000000E+00 -0.80337971493E+02  0.80337971493E+02  0.00000000000E+00 0.  1.
         23    2    1    2    0    0 -0.22421122307E+02  0.51570904804E+01 -0.23597101033E+02  0.97685050061E+02  0.91957835559E+02 0.  0.
         24    2    1    2    0    0 -0.21408731143E+02 -0.13793549765E+02  0.83464490221E+03  0.83890362136E+03  0.80489610243E+02 0.  0.
        -11    1    4    4    0    0 -0.43586511035E+02 -0.12905131491E+02  0.26826820252E+03  0.27209218079E+03  0.00000000000E+00 0.  1.
         12    1    4    4    0    0  0.22177779891E+02 -0.88841827338E+00  0.56637669969E+03  0.56681144057E+03  0.00000000000E+00 0. -1.
        -11    1    3    3    0    0 -0.33824631171E+02 -0.30392680750E+02 -0.36367587203E+02  0.58227331349E+02  0.00000000000E+00 0. -1.
         11    1    3    3    0    0  0.11403508864E+02  0.35549771231E+02  0.12770486170E+02  0.39457718713E+02  0.00000000000E+00 0.  1.
         21    1    1    2  502  501  0.43829853450E+02  0.86364592843E+01  0.10832070155E+02  0.45967142899E+02  0.00000000000E+00 0.  1.
<scales pt_clust_5="13000.00000" pt_clust_6="13000.00000" pt_clust_7="13000.00000" pt_clust_8="13000.00000" pt_clust_9="44.67264"></scales>
<clustering>
<clus scale="   44.673">  2  9  1 -1</clus>
<clus scale="   80.490">  5  6 -1 -1</clus>
<clus scale="   84.010">  1  5  2 -1</clus>
<clus scale="   91.958">  7  8 -1 -1</clus>
<clus scale="   84.010">  1  5  2 -1</clus>
</clustering>
</event>
<event>
 9    2  0.7723536E-005  0.1009870E+03  0.7546771E-02  0.1282934E+00
         -1   -1    0    0    0  501 -0.00000000000E+00  0.00000000000E+00  0.38149145154E+03  0.38149145154E+03  0.00000000000E+00 0.  1.
          2   -1    0    0  502    0  0.00000000000E+00 -0.00000000000E+00 -0.28741388841E+03  0.28741388841E+03  0.00000000000E+00 0. -1.
         23    2    1    2    0    0  0.23899234458E+02 -0.14209363404E+02  0.32734679311E+03  0.34066466100E+03  0.90129955526E+02 0.  0.
         24    2    1    2    0    0 -0.45550091408E+02 -0.71925233351E+01 -0.26711304464E+03  0.28271920980E+03  0.80338220992E+02 0.  0.
        -11    1    4    4    0    0  0.14134218227E+02 -0.22482763900E+02 -0.12557996528E+03  0.12835722994E+03  0.00000000000E+00 0.  1.
         12    1    4    4    0    0 -0.59684309634E+02  0.15290240565E+02 -0.14153307936E+03  0.15436197986E+03  0.00000000000E+00 0. -1.
        -13    1    3    3    0    0 -0.27522439597E+02  0.17085180369E+02  0.14735618617E+03  0.15087489411E+03  0.00000000000E+00 0. -1.
         13    1    3    3    0    0  0.51421674054E+02 -0.31294543773E+02  0.17999060694E+03  0.18978976689E+03  0.00000000000E+00 0.  1.
         21    1    1    2  502  501  0.21650856950E+02  0.21401886739E+02  0.33843814659E+02  0.45521469147E+02  0.00000000000E+00 0.  1.
<scales pt_clust_5="13000.00000" pt_clust_6="13000.00000" pt_clust_7="13000.00000" pt_clust_8="13000.00000" pt_clust_9="30.44340"></scales>
<clustering>
<clus scale="   30.443">  1  9  2 -1</clus>
<clus scale="   80.338">  5  6 -1 -1</clus>
<clus scale="   90.130">  7  8 -1 -1</clus>
<clus scale="   92.354">  2  5  1 -1</clus>
<clus scale="   92.354">  2  5  1 -1</clus>
</clustering>
</event>
<event>
 9    2  0.5608219E-005  0.1230082E+03  0.7546771E-02  0.1242518E+00
         -1   -1    0    0    0  501 -0.00000000000E+00  0.00000000000E+00  0.50708278463E+02  0.50708278463E+02  0.00000000000E+00 0.  1.
          2   -1    0    0  502    0  0.00000000000E+00 -0.00000000000E+00 -0.68639569889E+03  0.68639569889E+03  0.00000000000E+00 0. -1.
         23    2    1    2    0    0  0.73008905049E+02  0.43322734757E+02 -0.57051541355E+02  0.13806808366E+03  0.92740270597E+02 0.  0.
         24    2    1    2    0    0 -0.34638628295E+02 -0.56579117252E+02 -0.50078469978E+03  0.51123603076E+03  0.78587101542E+02 0.  0.
        -13    1    4    4    0    0  0.12531638549E+02 -0.54180678317E+02 -0.27243051736E+03  0.27804851134E+03  0.00000000000E+00 0.  1.
         14    1    4    4    0    0 -0.47170266844E+02 -0.23984389347E+01 -0.22835418242E+03  0.23318751942E+03  0.00000000000E+00 0. -1.
        -11    1    3    3    0    0  0.88255471590E+02  0.57150396700E+02 -0.47369929121E+02  0.11532175117E+03  0.00000000000E+00 0.  1.
         11    1    3    3    0    0 -0.15246566541E+02 -0.13827661942E+02 -0.96816122338E+01  0.22746332485E+02  0.00000000000E+00 0. -1.
         21    1    1    2  502  501 -0.38370276755E+02  0.13256382494E+02 -0.77851179287E+02  0.87799862935E+02  0.00000000000E+00 0.  1.
<scales pt_clust_5="13000.00000" pt_clust_6="13000.00000" pt_clust_7="13000.00000" pt_clust_8="13000.00000" pt_clust_9="40.59569"></scales>
<clustering>
<clus scale="   40.596">  2  9  1 -1</clus>
<clus scale="   78.587">  5  6 -1 -1</clus>
<clus scale="   92.740">  7  8 -1 -1</clus>
<clus scale="  112.722">  2  5  1 -1</clus>
<clus scale="   40.596">  2  5  1 -1</clus>
</clustering>
</event>
<event>
 9    2  0.5608219E-005  0.9600179E+02  0.7546771E-02  0.1294962E+00
         -1   -1    0    0    0  501 -0.00000000000E+00  0.00000000000E+00  0.44749792051E+02  0.44749792051E+02  0.00000000000E+00 0.  1.
          2   -1    0    0  502    0  0.00000000000E+00 -0.00000000000E+00 -0.34305272504E+03  0.34305272504E+03  0.00000000000E+00 0. -1.
         23    2    1    2    0    0  0.77859369375E+01 -0.16731102988E+02 -0.59469082380E+02  0.11014746049E+03  0.90858905297E+02 0.  0.
         24    2    1    2    0    0 -0.39231503503E+02 -0.15836400386E+02 -0.19337494919E+03  0.21349917105E+03  0.79988265523E+02 0.  0.
        -13    1    4    4    0    0 -0.15284137917E+02 -0.20793828387E+02 -0.87323421096E+01  0.27244118073E+02  0.00000000000E+00 0.  1.
         14    1    4    4    0    0 -0.23947365585E+02  0.49574280007E+01 -0.18464260708E+03  0.18625505297E+03  0.00000000000E+00 0. -1.
        -11    1    3    3    0    0 -0.25267311974E+01  0.32911530702E+02 -0.13717445369E+01  0.33036871928E+02  0.00000000000E+00 0. -1.
         11    1    3    3    0    0  0.10312668135E+02 -0.49642633690E+02 -0.58097337843E+02  0.77110588561E+02  0.00000000000E+00 0.  1.
         21    1    1    2  502  501  0.31445566565E+02  0.32567503374E+02 -0.45458901424E+02  0.64155885555E+02  0.00000000000E+00 0.  1.
<scales pt_clust_5="13000.00000" pt_clust_6="13000.00000" pt_clust_7="13000.00000" pt_clust_8="13000.00000" pt_clust_9="45.27103"></scales>
<clustering>
<clus scale="   45.271">  1  9  2 -1</clus>
<clus scale="   79.988">  5  6 -1 -1</clus>
<clus scale="   85.785">  2  5  1 -1</clus>
<clus scale="   90.859">  7  8 -1 -1</clus>
<clus scale="   85.785">  2  5  1 -1</clus>
</clustering>
</event>
<event>
 9    2  0.5608219E-005  0.1048590E+03  0.7546771E-02  0.1276219E+00
          2   -1    0    0  502    0  0.00000000000E+00  0.00000000000E+00  0.57682151621E+03  0.57682151621E+03  0.00000000000E+00 0. -1.
         -1   -1    0    0    0  501 -0.00000000000E+00 -0.00000000000E+00 -0.59841517755E+02  0.59841517755E+02  0.00000000000E+00 0.  1.
         23    2    1    2    0    0  0.37041719863E+02  0.40291925782E+02  0.72225397562E+01  0.10553900777E+03  0.89948812041E+02 0.  0.
         24    2    1    2    0    0 -0.51080813978E+01 -0.57489756926E+02  0.45781582393E+03  0.46777218262E+03  0.76709331535E+02 0.  0.
        -11    1    4    4    0    0  0.35176661660E+02 -0.18978451586E+02  0.17332820694E+03  0.17787705437E+03  0.00000000000E+00 0.  1.
         12    1    4    4    0    0 -0.40284743058E+02 -0.38511305340E+02  0.28448761699E+03  0.28989512825E+03  0.00000000000E+00 0. -1.
        -13    1    3    3    0    0  0.57928643167E+02  0.54694178843E+02  0.23469152260E+01  0.79703757186E+02  0.00000000000E+00 0. -1.
         13    1    3    3    0    0 -0.20886923304E+02 -0.14402253060E+02  0.48756245302E+01  0.25835250587E+02  0.00000000000E+00 0.  1.
         21    1    1    2  502  501 -0.31933638465E+02  0.17197831144E+02  0.51941634767E+02  0.63351843572E+02  0.00000000000E+00 0.  1.
<scales pt_clust_5="13000.00000" pt_clust_6="13000.00000" pt_clust_7="13000.00000" pt_clust_8="13000.00000" pt_clust_9="36.27013"></scales>
<clustering>
<clus scale="   36.270">  1  9  2 -1</clus>
<clus scale="   76.709">  5  6 -1 -1</clus>
<clus scale="   89.949">  7  8 -1 -1</clus>
<clus scale="   93.749">  1  5  2 -1</clus>
<clus scale="   36.270">  1  5  2 -1</clus>
</clustering>
</event>
<event>
 9    2  0.5608219E-005  0.1025826E+03  0.7546771E-02  0.1286091E+00
          2   -1    0    0  502    0  0.00000000000E+00  0.00000000000E+00  0.65784035937E+03  0.65784035937E+03  0.00000000000E+00 0. -1.
         -1   -1    0    0    0  501 -0.00000000000E+00 -0.00000000000E+00 -0.29700534262E+02  0.29700534262E+02  0.00000000000E+00 0.  1.
         23    2    1    2    0    0 -0.16592153116E+02 -0.45199627074E+02  0.18828882305E+03  0.21847298669E+03  0.99797090113E+02 0.  0.
         24    2    1    2    0    0 -0.27731232958E+02  0.74470112787E+01  0.36261716208E+03  0.37234723392E+03  0.79541040424E+02 0.  0.
        -13    1    4    4    0    0 -0.15574190984E+02 -0.23689256265E+02  0.46450609970E+02  0.54418704999E+02  0.00000000000E+00 0.  1.
         14    1    4    4    0    0 -0.12157041974E+02  0.31136267544E+02  0.31616655211E+03  0.31792852892E+03  0.00000000000E+00 0. -1.
        -13    1    3    3    0    0 -0.29794065034E+02  0.82868824524E+01  0.14540736340E+03  0.14865954413E+03  0.00000000000E+00 0. -1.
         13    1    3    3    0    0  0.13201911917E+02 -0.53486509527E+02  0.42881459655E+02  0.69813442558E+02  0.00000000000E+00 0.  1.
         21    1    1    2  502  501  0.44323386075E+02  0.37752615796E+02  0.77233839974E+02  0.96720673021E+02  0.00000000000E+00 0.  1.
<scales pt_clust_5="13000.00000" pt_clust_6="13000.00000" pt_clust_7="13000.00000" pt_clust_8="13000.00000" pt_clust_9="58.22218"></scales>
<clustering>
<clus scale="   58.222">  2  9  1 -1</clus>
<clus scale="   79.541">  5  6 -1 -1</clus>
<clus scale="   83.009">  1  5  2 -1</clus>
<clus scale="   99.797">  7  8 -1 -1</clus>
<clus scale="   83.009">  1  5  2 -1</clus>
</clustering>
</event>
<event>
 9    2  0.5608219E-005  0.1589326E+03  0.7546771E-02  0.1211097E+00
         -1   -1    0    0    0  501 -0.00000000000E+00  0.00000000000E+00  0.12785868458E+03  0.12785868458E+03  0.00000000000E+00 0.  1.
          2   -1    0    0  502    0  0.00000000000E+00 -0.00000000000E+00 -0.52829966995E+03  0.52829966995E+03  0.00000000000E+00 0. -1.
         23    2    1    2    0    0 -0.45101462152E+02 -0.13841824783E+02  0.39386215577E+02  0.10779773977E+03  0.88562637266E+02 0.  0.
         24    2    1    2    0    0 -0.49775221159E+02  0.12576301236E+03 -0.32862804606E+03  0.36425958459E+03  0.79967145690E+02 0.  0.
        -11    1    4    4    0    0 -0.71542398546E+02  0.87748513033E+02 -0.24278904345E+03  0.26788922328E+03  0.00000000000E+00 0.  1.
         12    1    4    4    0    0  0.21767177387E+02  0.38014499325E+02 -0.85839002611E+02  0.96370361313E+02  0.00000000000E+00 0. -1.
        -11    1    3    3    0    0 -0.48879388424E+02  0.14010291108E+02  0.55603631328E+02  0.75347506173E+02  0.00000000000E+00 0.  1.
         11    1    3    3    0    0  0.37779262718E+01 -0.27852115892E+02 -0.16217415751E+02  0.32450233592E+02  0.00000000000E+00 0. -1.
         21    1    1    2  502  501  0.94876683311E+02 -0.11192118757E+03 -0.11119915489E+03  0.18410103018E+03  0.00000000000E+00 0. -1.
<scales pt_clust_5="13000.00000" pt_clust_6="13000.00000" pt_clust_7="13000.00000" pt_clust_8="13000.00000" pt_clust_9="137.34927"></scales>
<clustering>
<clus scale="   79.967">  5  6 -1 -1</clus>
<clus scale="   88.563">  7  8 -1 -1</clus>
<clus scale="  100.345">  1  7  2 -1</clus>
<clus scale="  137.349">  1  9  2 -1</clus>
<clus scale="  158.933">  2  5  1 -1</clus>
</clustering>
</event>
<event>
 9    2  0.7562465E-005  0.1143874E+03  0.7546771E-02  0.1257517E+00
         -1   -1    0    0    0  501 -0.00000000000E+00  0.00000000000E+00  0.17336277462E+03  0.17336277462E+03  0.00000000000E+00 0.  1.
          2   -1    0    0  502    0  0.00000000000E+00 -0.00000000000E+00 -0.53700565327E+03  0.53700565327E+03  0.00000000000E+00 0. -1.
         23    2    1    2    0    0 -0.64510415790E+02 -0.19476212757E+01  0.14166353640E+03  0.18200298934E+03  0.94292860869E+02 0.  0.
         24    2    1    2    0    0  0.70538111678E+02 -0.17208094949E+02 -0.49281826549E+03  0.50471742676E+03  0.81228654747E+02 0.  0.
        -13    1    4    4    0    0  0.34538632434E+02 -0.26560253956E+02 -0.88014934675E+02  0.98208924984E+02  0.00000000000E+00 0.  1.
         14    1    4    4    0    0  0.35999479244E+02  0.93521590074E+01 -0.40480333081E+03  0.40650850178E+03  0.00000000000E+00 0. -1.
        -11    1    3    3    0    0  0.17567211673E+02 -0.20236388962E+02  0.55366375070E+02  0.61510599514E+02  0.00000000000E+00 0. -1.
         11    1    3    3    0    0 -0.82077627463E+02  0.18288767686E+02  0.86297161327E+02  0.12049238983E+03  0.00000000000E+00 0.  1.
         21    1    1    2  502  501 -0.60276958882E+01  0.19155716225E+02 -0.12488149563E+02  0.23648011784E+02  0.00000000000E+00 0.  1.
<scales pt_clust_5="13000.00000" pt_clust_6="13000.00000" pt_clust_7="13000.00000" pt_clust_8="13000.00000" pt_clust_9="20.08170"></scales>
<clustering>
<clus scale="   20.082">  2  9  1 -1</clus>
<clus scale="   81.229">  5  6 -1 -1</clus>
<clus scale="   94.293">  7  8 -1 -1</clus>
<clus scale="  103.882">  2  5  1 -1</clus>
<clus scale="   20.082">  2  5  1 -1</clus>
</clustering>
</event>
<event>
 9    2  0.5608219E-005  0.3458862E+03  0.7546771E-02  0.1064578E+00
         -1   -1    0    0    0  501 -0.00000000000E+00  0.00000000000E+00  0.98153688315E+02  0.98153688315E+02  0.00000000000E+00 0.  1.
          2   -1    0    0  502    0  0.00000000000E+00 -0.00000000000E+00 -0.13872035683E+04  0.13872035683E+04  0.00000000000E+00 0. -1.
         24    2    1    2    0    0  0.28166529726E+03 -0.14722368795E+03 -0.47047053920E+03  0.57342194139E+03  0.80374378019E+02 0.  0.
         23    2    1    2    0    0 -0.30525415859E+03  0.16211596530E+03 -0.80539044631E+03  0.88107820515E+03  0.90461842981E+02 0.  0.
        -13    1    3    3    0    0  0.92690848700E+02 -0.79662997721E+01 -0.13815243244E+03  0.16655674695E+03  0.00000000000E+00 0.  1.
         14    1    3    3    0    0  0.18897444856E+03 -0.13925738817E+03 -0.33231810675E+03  0.40686519444E+03  0.00000000000E+00 0. -1.
        -11    1    4    4    0    0 -0.12023514810E+03  0.64162664987E+02 -0.21384027660E+03  0.25357642302E+03  0.00000000000E+00 0.  1.
         11    1    4    4    0    0 -0.18501901050E+03  0.97953300310E+02 -0.59155016972E+03  0.62750178213E+03  0.00000000000E+00 0. -1.
         21    1    1    2  502  501  0.23588861336E+02 -0.14892277350E+02 -0.13188894449E+02  0.30857110049E+02  0.00000000000E+00 0.  1.
<scales pt_clust_5="13000.00000" pt_clust_6="13000.00000" pt_clust_7="13000.00000" pt_clust_8="13000.00000" pt_clust_9="27.89649"></scales>
<clustering>
<clus scale="   27.896">  1  9  2 -1</clus>
<clus scale="   80.374">  5  6 -1 -1</clus>
<clus scale="   90.462">  7  8 -1 -1</clus>
<clus scale="  343.386">  1  5  2 -1</clus>
<clus scale="  345.886">  2  5  1 -1</clus>
</clustering>
</event>
<event>
 9    2  0.5608219E-005  0.9260636E+02  0.7546771E-02  0.1300791E+00
         -1   -1    0    0    0  501 -0.00000000000E+00  0.00000000000E+00  0.55033496213E+02  0.55033496213E+02  0.00000000000E+00 0.  1.
          2   -1    0    0  502    0  0.00000000000E+00 -0.00000000000E+00 -0.90435204449E+03  0.90435204449E+03  0.00000000000E+00 0. -1.
         23    2    1    2    0    0  0.44821943699E+02 -0.22371171626E+02 -0.89966393542E+02  0.13728145232E+03  0.90789697802E+02 0.  0.
         24    2    1    2    0    0  0.11690544013E+02  0.16545827971E+02 -0.76040628134E+03  0.76528237529E+03  0.83838940815E+02 0.  0.
        -13    1    4    4    0    0  0.95593342071E+01 -0.20606946002E+02 -0.64527433178E+02  0.68409185981E+02  0.00000000000E+00 0.  1.
         14    1    4    4    0    0  0.21312098061E+01  0.37152773973E+02 -0.69587884816E+03  0.69687318931E+03  0.00000000000E+00 0. -1.
        -11    1    3    3    0    0 -0.11573927692E+02  0.20635186755E+02 -0.51323719549E+02  0.56514519577E+02  0.00000000000E+00 0.  1.
         11    1    3    3    0    0  0.56395871392E+02 -0.43006358381E+02 -0.38642673993E+02  0.80766932742E+02  0.00000000000E+00 0. -1.
         21    1    1    2  502  501 -0.56512487712E+02  0.58253436557E+01  0.10541265977E+01  0.56821713095E+02  0.00000000000E+00 0.  1.
<scales pt_clust_5="13000.00000" pt_clust_6="13000.00000" pt_clust_7="13000.00000" pt_clust_8="13000.00000" pt_clust_9="56.81193"></scales>
<clustering>
<clus scale="   56.812">  1  9  2 -1</clus>
<clus scale="   83.839">  5  6 -1 -1</clus>
<clus scale="   85.803">  2  5  1 -1</clus>
<clus scale="   90.790">  7  8 -1 -1</clus>
<clus scale="   85.803">  2  5  1 -1</clus>
</clustering>
</event>
<event>
 9    2  0.5608219E-005  0.1363357E+03  0.7546771E-02  0.1238495E+00
         -1   -1    0    0    0  501 -0.00000000000E+00  0.00000000000E+00  0.80538005128E+02  0.80538005128E+02  0.00000000000E+00 0.  1.
          2   -1    0    0  502    0  0.00000000000E+00 -0.00000000000E+00 -0.39394317978E+03  0.39394317978E+03  0.00000000000E+00 0. -1.
         23    2    1    2    0    0  0.10771329098E+03  0.54644235452E+02 -0.15971134317E+03  0.22014756847E+03  0.91482748351E+02 0.  0.
         24    2    1    2    0    0 -0.12951393766E+02 -0.40056433277E+02 -0.12560985713E+03  0.15442700628E+03  0.79357467277E+02 0.  0.
        -13    1    4    4    0    0 -0.22713217019E+01  0.22784634510E+02 -0.17092603552E+02  0.28573686640E+02  0.00000000000E+00 0.  1.
         14    1    4    4    0    0 -0.10680072065E+02 -0.62841067787E+02 -0.10851725358E+03  0.12585331964E+03  0.00000000000E+00 0. -1.
        -13    1    3    3    0    0  0.33183398129E+02  0.57433017213E+02 -0.35415806872E+02  0.75192877016E+02  0.00000000000E+00 0.  1.
         13    1    3    3    0    0  0.74529892854E+02 -0.27887817606E+01 -0.12429553630E+03  0.14495469146E+03  0.00000000000E+00 0. -1.
         21    1    1    2  502  501 -0.94761897217E+02 -0.14587802175E+02 -0.28083974346E+02  0.99906610149E+02  0.00000000000E+00 0.  1.
<scales pt_clust_5="13000.00000" pt_clust_6="13000.00000" pt_clust_7="13000.00000" pt_clust_8="13000.00000" pt_clust_9="101.08581"></scales>
<clustering>
<clus scale="   79.357">  5  6 -1 -1</clus>
<clus scale="   89.832">  2  5  1 -1</clus>
<clus scale="   91.483">  7  8 -1 -1</clus>
<clus scale="  101.086">  1  9  2 -1</clus>
<clus scale="   89.832">  2  5  1 -1</clus>
</clustering>
</event>
<event>
 9    2  0.5608219E-005  0.1147254E+03  0.7546771E-02  0.1256004E+00
          2   -1    0    0  502    0  0.00000000000E+00  0.00000000000E+00  0.19112801445E+03  0.19112801445E+03  0.00000000000E+00 0. -1.
         -1   -1    0    0    0  501 -0.00000000000E+00 -0.00000000000E+00 -0.10730916843E+03  0.10730916843E+03  0.00000000000E+00 0.  1.
         23    2    1    2    0    0  0.53342344320E+02 -0.28366128126E+02  0.17264199437E+01  0.10971495100E+03  0.91566080097E+02 0.  0.
         24    2    1    2    0    0 -0.38460476398E+02  0.66005151766E+02  0.95169656079E+02  0.14618777482E+03  0.80484245441E+02 0.  0.
        -11    1    4    4    0    0  0.93760607925E-01  0.68111362605E+02  0.40451261117E+02  0.79217870666E+02  0.00000000000E+00 0.  1.
         12    1    4    4    0    0 -0.38554237006E+02 -0.21062108386E+01  0.54718394961E+02  0.66969904153E+02  0.00000000000E+00 0. -1.
        -11    1    3    3    0    0  0.55474576717E+02  0.69901733392E+01 -0.28854497663E+02  0.62919577403E+02  0.00000000000E+00 0.  1.
         11    1    3    3    0    0 -0.21322323966E+01 -0.35356301465E+02  0.30580917607E+02  0.46795373595E+02  0.00000000000E+00 0. -1.
         21    1    1    2  502  501 -0.14881867922E+02 -0.37639023640E+02 -0.13077229997E+02  0.42534457066E+02  0.00000000000E+00 0. -1.
<scales pt_clust_5="13000.00000" pt_clust_6="13000.00000" pt_clust_7="13000.00000" pt_clust_8="13000.00000" pt_clust_9="40.47426"></scales>
<clustering>
<clus scale="   40.474">  2  9  1 -1</clus>
<clus scale="   80.484">  5  6 -1 -1</clus>
<clus scale="   91.566">  7  8 -1 -1</clus>
<clus scale="  106.091">  1  5  2 -1</clus>
<clus scale="  106.091">  1  5  2 -1</clus>
</clustering>
</event>
<event>
 9    2  0.5608219E-005  0.1221015E+03  0.7546771E-02  0.1243039E+00
          2   -1    0    0  502    0  0.00000000000E+00  0.00000000000E+00  0.10170174623E+04  0.10170174623E+04  0.00000000000E+00 0. -1.
         -1   -1    0    0    0  501 -0.00000000000E+00 -0.00000000000E+00 -0.21301895843E+02  0.21301895843E+02  0.00000000000E+00 0.  1.
         23    2    1    2    0    0 -0.60427617806E+02 -0.38829948215E+02  0.25101024671E+03  0.27662365178E+03  0.91406995915E+02 0.  0.
         24    2    1    2    0    0  0.83446846374E+02  0.19685668335E+02  0.68391130901E+03  0.69392919488E+03  0.80325258847E+02 0.  0.
        -11    1    4    4    0    0  0.83654496188E+02  0.12822956693E+02  0.35508867584E+03  0.36503488965E+03  0.00000000000E+00 0.  1.
         12    1    4    4    0    0 -0.20764981382E+00  0.68627116421E+01  0.32882263317E+03  0.32889430524E+03  0.00000000000E+00 0. -1.
        -13    1    3    3    0    0 -0.65728817066E+02 -0.59090171110E+02  0.15567892612E+03  0.17901914354E+03  0.00000000000E+00 0.  1.
         13    1    3    3    0    0  0.53011992596E+01  0.20260222895E+02  0.95331320583E+02  0.97604508243E+02  0.00000000000E+00 0. -1.
         21    1    1    2  502  501 -0.23019228567E+02  0.19144279880E+02  0.60794010729E+02  0.67766511467E+02  0.00000000000E+00 0.  1.
<scales pt_clust_5="13000.00000" pt_clust_6="13000.00000" pt_clust_7="13000.00000" pt_clust_8="13000.00000" pt_clust_9="29.93975"></scales>
<clustering>
<clus scale="   29.940">  2  9  1 -1</clus>
<clus scale="   80.325">  5  6 -1 -1</clus>
<clus scale="   91.407">  7  8 -1 -1</clus>
<clus scale="  114.043">  1  5  2 -1</clus>
<clus scale="  114.043">  1  5  2 -1</clus>
</clustering>
</event>
<event>
 9    2  0.5608219E-005  0.9805372E+02  0.7546771E-02  0.1289793E+00
          2   -1    0    0  502    0  0.00000000000E+00  0.00000000000E+00  0.13255705840E+03  0.13255705840E+03  0.00000000000E+00 0. -1.
         -1   -1    0    0    0  501 -0.00000000000E+00 -0.00000000000E+00 -0.15681238682E+03  0.15681238682E+03  0.00000000000E+00 0.  1.
         23    2    1    2    0    0 -0.83076433800E+01  0.40133602039E+02 -0.10459821700E+03  0.14438714479E+03  0.90703570103E+02 0.  0.
         24    2    1    2    0    0 -0.15064441088E+02 -0.21765991035E+02  0.78030443218E+02  0.11516668590E+03  0.80460671894E+02 0.  0.
        -13    1    4    4    0    0  0.12158281660E+02  0.24677076331E+02  0.42633768445E+02  0.50738743786E+02  0.00000000000E+00 0.  1.
         14    1    4    4    0    0 -0.27222722749E+02 -0.46443067366E+02  0.35396674773E+02  0.64427942115E+02  0.00000000000E+00 0. -1.
        -11    1    3    3    0    0  0.13044448038E+02 -0.22942508147E+02 -0.90046480085E+01  0.27885479922E+02  0.00000000000E+00 0. -1.
         11    1    3    3    0    0 -0.21352091418E+02  0.63076110186E+02 -0.95593568992E+02  0.11650166487E+03  0.00000000000E+00 0.  1.
         21    1    1    2  502  501  0.23372084468E+02 -0.18367611004E+02  0.23124453682E+01  0.29815614533E+02  0.00000000000E+00 0. -1.
<scales pt_clust_5="13000.00000" pt_clust_6="13000.00000" pt_clust_7="13000.00000" pt_clust_8="13000.00000" pt_clust_9="29.72580"></scales>
<clustering>
<clus scale="   29.726">  1  9  2 -1</clus>
<clus scale="   80.461">  5  6 -1 -1</clus>
<clus scale="   88.664">  1  5  2 -1</clus>
<clus scale="   90.704">  7  8 -1 -1</clus>
<clus scale="   29.726">  1  5  2 -1</clus>
</clustering>
</event>
<event>
 9    2  0.5608219E-005  0.1314542E+03  0.7546771E-02  0.1228049E+00
          2   -1    0    0  502    0  0.00000000000E+00  0.00000000000E+00  0.70905903274E+02  0.70905903274E+02  0.00000000000E+00 0. -1.
         -1   -1    0    0    0  501 -0.00000000000E+00 -0.00000000000E+00 -0.71153193882E+03  0.71153193882E+03  0.00000000000E+00 0.  1.
         23    2    1    2    0    0  0.12196030855E+03  0.35121967704E+02 -0.39068392028E+03  0.42088605275E+03  0.91669375200E+02 0.  0.
         24    2    1    2    0    0 -0.89395533746E+02  0.97352638947E+01 -0.17065493959E+02  0.12216892335E+03  0.80917723220E+02 0.  0.
        -13    1    4    4    0    0 -0.42549348077E+02  0.31292449354E+02 -0.39478129156E+02  0.65940784724E+02  0.00000000000E+00 0.  1.
         14    1    4    4    0    0 -0.46846185669E+02 -0.21557185459E+02  0.22412635197E+02  0.56228138624E+02  0.00000000000E+00 0. -1.
        -11    1    3    3    0    0  0.65596127772E+02 -0.17553152892E+02 -0.26371670785E+03  0.27231868676E+03  0.00000000000E+00 0.  1.
         11    1    3    3    0    0  0.56364180782E+02  0.52675120596E+02 -0.12696721243E+03  0.14856736599E+03  0.00000000000E+00 0. -1.
         21    1    1    2  502  501 -0.32564774808E+02 -0.44857231599E+02 -0.23287662130E+03  0.23938286600E+03  0.00000000000E+00 0. -1.
<scales pt_clust_5="13000.00000" pt_clust_6="13000.00000" pt_clust_7="13000.00000" pt_clust_8="13000.00000" pt_clust_9="55.43136"></scales>
<clustering>
<clus scale="   55.431">  2  9  1 -1</clus>
<clus scale="   80.918">  5  6 -1 -1</clus>
<clus scale="   91.669">  7  8 -1 -1</clus>
<clus scale="  124.196">  1  5  2 -1</clus>
<clus scale="  124.196">  1  5  2 -1</clus>
</clustering>
</event>
<event>
 9    2  0.5608219E-005  0.1192021E+03  0.7546771E-02  0.1247815E+00
          2   -1    0    0  502    0  0.00000000000E+00  0.00000000000E+00  0.34889459652E+03  0.34889459652E+03  0.00000000000E+00 0. -1.
         -1   -1    0    0    0  501 -0.00000000000E+00 -0.00000000000E+00 -0.81259634347E+02  0.81259634347E+02  0.00000000000E+00 0.  1.
         24    2    1    2    0    0 -0.18780487901E+01  0.46959885758E+02  0.12222645564E+02  0.95438274386E+02  0.82160289772E+02 0.  0.
         23    2    1    2    0    0 -0.52726000784E+02 -0.72155017917E+02  0.24051765568E+03  0.27276236224E+03  0.92542886230E+02 0.  0.
        -11    1    3    3    0    0 -0.17748637829E+02  0.51812939808E+02 -0.20715525354E+02  0.58555340209E+02  0.00000000000E+00 0.  1.
         12    1    3    3    0    0  0.15870589039E+02 -0.48530540498E+01  0.32938170918E+02  0.36882934177E+02  0.00000000000E+00 0. -1.
        -11    1    4    4    0    0 -0.66301081937E+02 -0.22430765143E+02  0.92294799412E+02  0.11583308115E+03  0.00000000000E+00 0.  1.
         11    1    4    4    0    0  0.13575081153E+02 -0.49724252775E+02  0.14822285627E+03  0.15692928109E+03  0.00000000000E+00 0. -1.
         21    1    1    2  502  501  0.54604049574E+02  0.25195132159E+02  0.14894660920E+02  0.61953594233E+02  0.00000000000E+00 0.  1.
<scales pt_clust_5="13000.00000" pt_clust_6="13000.00000" pt_clust_7="13000.00000" pt_clust_8="13000.00000" pt_clust_9="60.13649"></scales>
<clustering>
<clus scale="   60.136">  2  9  1 -1</clus>
<clus scale="   82.160">  5  6 -1 -1</clus>
<clus scale="   92.543">  7  8 -1 -1</clus>
<clus scale="  111.334">  2  5  1 -1</clus>
<clus scale="  119.202">  1  5  2 -1</clus>
</clustering>
</event>
<event>
 9    2  0.5608219E-005  0.1447213E+03  0.7546771E-02  0.1207200E+00
         -1   -1    0    0    0  501 -0.00000000000E+00  0.00000000000E+00  0.36183917594E+03  0.36183917594E+03  0.00000000000E+00 0.  1.
          2   -1    0    0  502    0  0.00000000000E+00 -0.00000000000E+00 -0.17634965773E+03  0.17634965773E+03  0.00000000000E+00 0. -1.
         23    2    1    2    0    0  0.83346597890E+02 -0.81647886928E+02  0.18967874067E+03  0.23991872467E+03  0.89274503444E+02 0.  0.
         24    2    1    2    0    0  0.63438009945E+02  0.10193354451E+03  0.26713102105E+02  0.14690240219E+03  0.80323703494E+02 0.  0.
        -11    1    4    4    0    0 -0.83965385667E+01  0.40957324447E+02  0.31818103506E+02  0.52539470843E+02  0.00000000000E+00 0.  1.
         12    1    4    4    0    0  0.71834548512E+02  0.60976220065E+02 -0.51050014010E+01  0.94362931348E+02  0.00000000000E+00 0. -1.
        -13    1    3    3    0    0  0.68832303890E+02 -0.31180235682E+02  0.16584699530E+03  0.18225070372E+03  0.00000000000E+00 0.  1.
         13    1    3    3    0    0  0.14514294000E+02 -0.50467651246E+02  0.23831745363E+02  0.57668020945E+02  0.00000000000E+00 0. -1.
         21    1    1    2  502  501 -0.14678460784E+03 -0.20285657583E+02 -0.30902324567E+02  0.15136770681E+03  0.00000000000E+00 0. -1.
<scales pt_clust_5="13000.00000" pt_clust_6="13000.00000" pt_clust_7="13000.00000" pt_clust_8="13000.00000" pt_clust_9="113.90490"></scales>
<clustering>
<clus scale="   80.324">  5  6 -1 -1</clus>
<clus scale="   89.275">  7  8 -1 -1</clus>
<clus scale="  144.453">  2  5  1 -1</clus>
<clus scale="  113.905">  2  9  1 -1</clus>
<clus scale="  144.453">  2  5  1 -1</clus>
</clustering>
</event>
<event>
 9    2  0.5608219E-005  0.9415080E+02  0.7546771E-02  0.1300106E+00
          2   -1    0    0  502    0  0.00000000000E+00  0.00000000000E+00  0.19358047081E+03  0.19358047081E+03  0.00000000000E+00 0. -1.
         -1   -1    0    0    0  501 -0.00000000000E+00 -0.00000000000E+00 -0.66177370336E+02  0.66177370336E+02  0.00000000000E+00 0.  1.
         24    2    1    2    0    0 -0.21363003768E+02 -0.20512942737E+02  0.26485849930E+02  0.88904017587E+02  0.79531536807E+02 0.  0.
         23    2    1    2    0    0 -0.16529473870E+01  0.22287990413E+02  0.11113188872E+03  0.14561053465E+03  0.91392802551E+02 0.  0.
        -13    1    3    3    0    0 -0.46627224931E+02  0.69886227236E+01  0.10622607752E+02  0.48329894970E+02  0.00000000000E+00 0.  1.
         14    1    3    3    0    0  0.25264221163E+02 -0.27501565461E+02  0.15863242178E+02  0.40574122617E+02  0.00000000000E+00 0. -1.
        -13    1    4    4    0    0  0.32277370541E+02  0.32506231400E+02  0.97349458660E+02  0.10758903676E+03  0.00000000000E+00 0. -1.
         13    1    4    4    0    0 -0.33930317928E+02 -0.10218240987E+02  0.13782430062E+02  0.38021497892E+02  0.00000000000E+00 0.  1.
         21    1    1    2  502  501  0.23015951155E+02 -0.17750476758E+01 -0.10214638179E+02  0.25243288909E+02  0.00000000000E+00 0.  1.
<scales pt_clust_5="13000.00000" pt_clust_6="13000.00000" pt_clust_7="13000.00000" pt_clust_8="13000.00000" pt_clust_9="23.08430"></scales>
<clustering>
<clus scale="   23.084">  2  9  1 -1</clus>
<clus scale="   79.532">  5  6 -1 -1</clus>
<clus scale="   82.686">  2  5  1 -1</clus>
<clus scale="   91.393">  7  8 -1 -1</clus>
<clus scale="   94.151">  1  5  2 -1</clus>
</clustering>
</event>
<event>
 9    2  0.5608219E-005  0.1023402E+03  0.7546771E-02  0.1280556E+00
         -1   -1    0    0    0  501 -0.00000000000E+00  0.00000000000E+00  0.60330293839E+02  0.60330293839E+02  0.00000000000E+00 0.  1.
          2   -1    0    0  502    0  0.00000000000E+00 -0.00000000000E+00 -0.32369070760E+03  0.32369070760E+03  0.00000000000E+00 0. -1.
         23    2    1    2    0    0  0.53053314483E+02  0.18074893896E+02 -0.71725231197E+02  0.12950599372E+03  0.92119149213E+02 0.  0.
         24    2    1    2    0    0 -0.17955970282E+02 -0.41449204964E+02 -0.19083141356E+03  0.21233885294E+03  0.81429150821E+02 0.  0.
        -13    1    4    4    0    0  0.10329673936E+02 -0.50422540220E+02 -0.64240475788E+02  0.82316301273E+02  0.00000000000E+00 0.  1.
         14    1    4    4    0    0 -0.28285644218E+02  0.89733352559E+01 -0.12659093778E+03  0.13002255166E+03  0.00000000000E+00 0. -1.
        -11    1    3    3    0    0  0.53897295383E+02 -0.28507145621E+02 -0.36109618702E+02  0.70862404446E+02  0.00000000000E+00 0. -1.
         11    1    3    3    0    0 -0.84398089934E+00  0.46582039517E+02 -0.35615612495E+02  0.58643589272E+02  0.00000000000E+00 0.  1.
         21    1    1    2  502  501 -0.35097344202E+02  0.23374311068E+02 -0.80376900217E+00  0.42176154786E+02  0.00000000000E+00 0.  1.
<scales pt_clust_5="13000.00000" pt_clust_6="13000.00000" pt_clust_7="13000.00000" pt_clust_8="13000.00000" pt_clust_9="42.16850"></scales>
<clustering>
<clus scale="   42.168">  1  9  2 -1</clus>
<clus scale="   81.429">  5  6 -1 -1</clus>
<clus scale="   92.119">  7  8 -1 -1</clus>
<clus scale="   92.835">  2  5  1 -1</clus>
<clus scale="   92.835">  2  5  1 -1</clus>
</clustering>
</event>
<event>
 9    2  0.5608219E-005  0.1654669E+03  0.7546771E-02  0.1185450E+00
          4   -1    0    0  502    0  0.00000000000E+00  0.00000000000E+00  0.19484371934E+03  0.19484371934E+03  0.00000000000E+00 0. -1.
         -3   -1    0    0    0  501 -0.00000000000E+00 -0.00000000000E+00 -0.64477956284E+03  0.64477956284E+03  0.00000000000E+00 0.  1.
         23    2    1    2    0    0 -0.68995529821E+01 -0.75441741136E+02 -0.44234867228E+03  0.45975714090E+03  0.99825951560E+02 0.  0.
         24    2    1    2    0    0 -0.19483510218E+02  0.13513080127E+03  0.14402560558E+03  0.21480468603E+03  0.82205458786E+02 0.  0.
        -11    1    4    4    0    0 -0.24378483287E+02  0.11504571542E+03  0.67627070398E+02  0.13565857044E+03  0.00000000000E+00 0.  1.
         12    1    4    4    0    0  0.48949730684E+01  0.20085085858E+02  0.76398535179E+02  0.79146115589E+02  0.00000000000E+00 0. -1.
        -11    1    3    3    0    0  0.14674168510E+02 -0.94528106049E+02 -0.31573808805E+03  0.32991125216E+03  0.00000000000E+00 0.  1.
         11    1    3    3    0    0 -0.21573721492E+02  0.19086364913E+02 -0.12661058423E+03  0.12984588875E+03  0.00000000000E+00 0. -1.
         21    1    1    2  502  501  0.26383063200E+02 -0.59689060139E+02 -0.15161277679E+03  0.16506145526E+03  0.00000000000E+00 0.  1.
<scales pt_clust_5="13000.00000" pt_clust_6="13000.00000" pt_clust_7="13000.00000" pt_clust_8="13000.00000" pt_clust_9="65.25986"></scales>
<clustering>
<clus scale="   65.260">  2  9  1 -1</clus>
<clus scale="   82.205">  5  6 -1 -1</clus>
<clus scale="   99.826">  7  8 -1 -1</clus>
<clus scale="  155.473">  1  5  2 -1</clus>
<clus scale="  155.473">  1  5  2 -1</clus>
</clustering>
</event>
<event>
 9    2  0.5608219E-005  0.1096198E+03  0.7546771E-02  0.1266008E+00
         -1   -1    0    0    0  501 -0.00000000000E+00  0.00000000000E+00  0.13345723662E+03  0.13345723662E+03  0.00000000000E+00 0.  1.
          2   -1    0    0  502    0  0.00000000000E+00 -0.00000000000E+00 -0.39554368930E+03  0.39554368930E+03  0.00000000000E+00 0. -1.
         24    2    1    2    0    0 -0.74206398404E+02 -0.49900076510E+02 -0.10710631355E+01  0.11988232377E+03  0.79837442191E+02 0.  0.
         23    2    1    2    0    0  0.25591238404E+02  0.51069442608E+02 -0.31703963220E+03  0.33493290970E+03  0.91667476055E+02 0.  0.
        -13    1    3    3    0    0 -0.85907621944E+02 -0.52312925403E+02 -0.14819565058E+02  0.10166799487E+03  0.00000000000E+00 0.  1.
         14    1    3    3    0    0  0.11701223539E+02  0.24128488922E+01  0.13748501922E+02  0.18214328898E+02  0.00000000000E+00 0. -1.
        -13    1    4    4    0    0 -0.12078951038E+02  0.66191352395E+02 -0.18961433256E+03  0.20119838793E+03  0.00000000000E+00 0. -1.
         13    1    4    4    0    0  0.37670189443E+02 -0.15121909786E+02 -0.12742529963E+03  0.13373452177E+03  0.00000000000E+00 0.  1.
         21    1    1    2  502  501  0.48615160000E+02 -0.11693660979E+01  0.56024242657E+02  0.74185692449E+02  0.00000000000E+00 0.  1.
<scales pt_clust_5="13000.00000" pt_clust_6="13000.00000" pt_clust_7="13000.00000" pt_clust_8="13000.00000" pt_clust_9="48.62922"></scales>
<clustering>
<clus scale="   48.629">  1  9  2 -1</clus>
<clus scale="   79.837">  5  6 -1 -1</clus>
<clus scale="   91.667">  7  8 -1 -1</clus>
<clus scale="   99.938">  1  5  2 -1</clus>
<clus scale="  109.620">  2  5  1 -1</clus>
</clustering>
</event>
<event>
 9    2  0.5608219E-005  0.2665897E+03  0.7546771E-02  0.1128381E+00
         -1   -1    0    0    0  501 -0.00000000000E+00  0.00000000000E+00  0.34497205481E+03  0.34497205481E+03  0.00000000000E+00 0.  1.
          2   -1    0    0  502    0  0.00000000000E+00 -0.00000000000E+00 -0.56803779011E+03  0.56803779011E+03  0.00000000000E+00 0. -1.
         24    2    1    2    0    0  0.11592529725E+03  0.10037112903E+02  0.15535936320E+03  0.21013225671E+03  0.80496058273E+02 0.  0.
         23    2    1    2    0    0 -0.28333482936E+03 -0.37401122244E+01 -0.43401575507E+03  0.52636717843E+03  0.91652151723E+02 0.  0.
        -13    1    3    3    0    0  0.70749970603E+02  0.31831299237E+02  0.46948369327E+02  0.90680424205E+02  0.00000000000E+00 0.  1.
         14    1    3    3    0    0  0.45175326642E+02 -0.21794186334E+02  0.10841099388E+03  0.11945183250E+03  0.00000000000E+00 0. -1.
        -11    1    4    4    0    0 -0.29064735395E+02 -0.15167847106E+02 -0.14884414706E+02  0.36005113950E+02  0.00000000000E+00 0.  1.
         11    1    4    4    0    0 -0.25427009396E+03  0.11427734881E+02 -0.41913134036E+03  0.49036206448E+03  0.00000000000E+00 0. -1.
         21    1    1    2  502  501  0.16740953211E+03 -0.62970006789E+01  0.55590656565E+02  0.17651040977E+03  0.00000000000E+00 0.  1.
<scales pt_clust_5="13000.00000" pt_clust_6="13000.00000" pt_clust_7="13000.00000" pt_clust_8="13000.00000" pt_clust_9="250.33967"></scales>
<clustering>
<clus scale="   80.496">  5  6 -1 -1</clus>
<clus scale="   91.652">  7  8 -1 -1</clus>
<clus scale="  141.489">  1  5  2 -1</clus>
<clus scale="  250.340">  1  9  2 -1</clus>
<clus scale="  266.590">  2  5  1 -1</clus>
</clustering>
</event>
<event>
 9    2  0.5608219E-005  0.1394607E+03  0.7546771E-02  0.1216067E+00
         -1   -1    0    0    0  501 -0.00000000000E+00  0.00000000000E+00  0.65827138772E+03  0.65827138772E+03  0.00000000000E+00 0.  1.
          2   -1    0    0  502    0  0.00000000000E+00 -0.00000000000E+00 -0.76492572758E+02  0.76492572758E+02  0.00000000000E+00 0. -1.
         24    2    1    2    0    0  0.51271750287E+02 -0.22619359391E+00  0.21706016772E+03  0.23753406546E+03  0.81721920593E+02 0.  0.
         23    2    1    2    0    0 -0.12149439280E+03 -0.56373884970E+02  0.49375374464E+02  0.16924183410E+03  0.90917371367E+02 0.  0.
        -11    1    3    3    0    0  0.33459449117E+02 -0.40082569635E+02  0.10485347254E+03  0.11713410189E+03  0.00000000000E+00 0.  1.
         12    1    3    3    0    0  0.17812301170E+02  0.39856376041E+02  0.11220669518E+03  0.12039996357E+03  0.00000000000E+00 0. -1.
        -13    1    4    4    0    0  0.85301377496E+01 -0.19859649602E+02  0.23137391140E+02  0.31662403590E+02  0.00000000000E+00 0.  1.
         13    1    4    4    0    0 -0.13002453055E+03 -0.36514235369E+02  0.26237983324E+02  0.13757943051E+03  0.00000000000E+00 0. -1.
         21    1    1    2  502  501  0.70222642516E+02  0.56600078564E+02  0.31534327278E+03  0.32798806091E+03  0.00000000000E+00 0.  1.
<scales pt_clust_5="13000.00000" pt_clust_6="13000.00000" pt_clust_7="13000.00000" pt_clust_8="13000.00000" pt_clust_9="90.19306"></scales>
<clustering>
<clus scale="   81.722">  5  6 -1 -1</clus>
<clus scale="   90.193">  1  9  2 -1</clus>
<clus scale="   90.917">  7  8 -1 -1</clus>
<clus scale="  133.648">  1  5  2 -1</clus>
<clus scale="  139.461">  2  5  1 -1</clus>
</clustering>
</event>
<event>
 9    2  0.5608219E-005  0.1050778E+03  0.7546771E-02  0.1271504E+00
          2   -1    0    0  502    0  0.00000000000E+00  0.00000000000E+00  0.20444291095E+03  0.20444291095E+03  0.00000000000E+00 0. -1.
         -1   -1    0    0    0  501 -0.00000000000E+00 -0.00000000000E+00 -0.18771391141E+03  0.18771391141E+03  0.00000000000E+00 0.  1.
         24    2    1    2    0    0  0.63214812946E+02 -0.25202984752E+02  0.44914653573E+02  0.11664594076E+03  0.83412507296E+02 0.  0.
         23    2    1    2    0    0 -0.43970624721E+02  0.30971814455E+02  0.10155475678E+03  0.14422420149E+03  0.87146902074E+02 0.  0.
        -11    1    3    3    0    0  0.48779222943E+02 -0.17675066965E+02 -0.15442053969E+02  0.54132038701E+02  0.00000000000E+00 0.  1.
         12    1    3    3    0    0  0.14435590003E+02 -0.75279177868E+01  0.60356707542E+02  0.62513902056E+02  0.00000000000E+00 0. -1.
        -13    1    4    4    0    0 -0.56326763908E+02 -0.11654739817E+02  0.64361223035E+02  0.86318620952E+02  0.00000000000E+00 0.  1.
         13    1    4    4    0    0  0.12356139187E+02  0.42626554272E+02  0.37193533747E+02  0.57905580536E+02  0.00000000000E+00 0. -1.
         21    1    1    2  502  501 -0.19244188225E+02 -0.57688297029E+01 -0.12974041082E+03  0.13128668012E+03  0.00000000000E+00 0.  1.
<scales pt_clust_5="13000.00000" pt_clust_6="13000.00000" pt_clust_7="13000.00000" pt_clust_8="13000.00000" pt_clust_9="20.09025"></scales>
<clustering>
<clus scale="   20.090">  2  9  1 -1</clus>
<clus scale="   83.413">  5  6 -1 -1</clus>
<clus scale="   87.147">  7  8 -1 -1</clus>
<clus scale="  102.002">  2  5  1 -1</clus>
<clus scale="  105.078">  1  5  2 -1</clus>
</clustering>
</event>
<event>
 9    2  0.5608219E-005  0.1416415E+03  0.7546771E-02  0.1214341E+00
         -3   -1    0    0    0  501 -0.00000000000E+00  0.00000000000E+00  0.74486338882E+02  0.74486338882E+02  0.00000000000E+00 0.  1.
          4   -1    0    0  502    0  0.00000000000E+00 -0.00000000000E+00 -0.56907235251E+03  0.56907235251E+03  0.00000000000E+00 0. -1.
         23    2    1    2    0    0  0.93152464697E+02  0.58262201246E+02 -0.25380720216E+02  0.14729551453E+03  0.94762449678E+02 0.  0.
         24    2    1    2    0    0 -0.78625833625E+02 -0.28575484012E+02 -0.42819252968E+03  0.44359087884E+03  0.80158875441E+02 0.  0.
        -11    1    4    4    0    0 -0.86601035357E+02 -0.42259268982E+02 -0.31841098947E+03  0.33267272710E+03  0.00000000000E+00 0.  1.
         12    1    4    4    0    0  0.79752017317E+01  0.13683784970E+02 -0.10978154021E+03  0.11091815174E+03  0.00000000000E+00 0. -1.
        -11    1    3    3    0    0  0.85672681766E+01  0.59857109771E+02 -0.92319380613E+01  0.61167804886E+02  0.00000000000E+00 0. -1.
         11    1    3    3    0    0  0.84585196521E+02 -0.15949085252E+01 -0.16148782155E+02  0.86127709645E+02  0.00000000000E+00 0.  1.
         21    1    1    2  502  501 -0.14526631072E+02 -0.29686717234E+02 -0.41012763733E+02  0.52672298027E+02  0.00000000000E+00 0.  1.
<scales pt_clust_5="13000.00000" pt_clust_6="13000.00000" pt_clust_7="13000.00000" pt_clust_8="13000.00000" pt_clust_9="33.05033"></scales>
<clustering>
<clus scale="   33.050">  2  9  1 -1</clus>
<clus scale="   80.159">  5  6 -1 -1</clus>
<clus scale="   94.762">  7  8 -1 -1</clus>
<clus scale="  132.317">  2  5  1 -1</clus>
<clus scale="   33.050">  2  5  1 -1</clus>
</clustering>
</event>
<event>
 9    2  0.5608219E-005  0.1261118E+03  0.7546771E-02  0.1236590E+00
          2   -1    0    0  502    0  0.00000000000E+00  0.00000000000E+00  0.42563623413E+03  0.42563623413E+03  0.00000000000E+00 0. -1.
         -1   -1    0    0    0  501 -0.00000000000E+00 -0.00000000000E+00 -0.13922980706E+03  0.13922980706E+03  0.00000000000E+00 0.  1.
         24    2    1    2    0    0 -0.72992083186E+02 -0.14795789178E+02 -0.77637641083E+02  0.13468584118E+03  0.81030320966E+02 0.  0.
         23    2    1    2    0    0  0.87007614608E+02 -0.23927291574E+01  0.38142335745E+03  0.40200361434E+03  0.92450409313E+02 0.  0.
        -11    1    3    3    0    0 -0.73572392554E+02 -0.37652197713E+02 -0.42950944057E+02  0.93141658425E+02  0.00000000000E+00 0.  1.
         12    1    3    3    0    0  0.58030936830E+00  0.22856408535E+02 -0.34686697027E+02  0.41544182754E+02  0.00000000000E+00 0. -1.
        -13    1    4    4    0    0  0.20022395531E+02 -0.43806915416E+02  0.15065344643E+03  0.15816574560E+03  0.00000000000E+00 0.  1.
         13    1    4    4    0    0  0.66985219077E+02  0.41414186258E+02  0.23076991102E+03  0.24383786874E+03  0.00000000000E+00 0. -1.
         21    1    1    2  502  501 -0.14015531422E+02  0.17188518335E+02 -0.17379289302E+02  0.28176585674E+02  0.00000000000E+00 0.  1.
<scales pt_clust_5="13000.00000" pt_clust_6="13000.00000" pt_clust_7="13000.00000" pt_clust_8="13000.00000" pt_clust_9="22.17837"></scales>
<clustering>
<clus scale="   22.178">  2  9  1 -1</clus>
<clus scale="   81.030">  5  6 -1 -1</clus>
<clus scale="   92.450">  7  8 -1 -1</clus>
<clus scale="  117.996">  2  5  1 -1</clus>
<clus scale="  126.112">  1  5  2 -1</clus>
</clustering>
</event>
<event>
 9    2  0.5608219E-005  0.9571858E+02  0.7546771E-02  0.1295790E+00
         -1   -1    0    0    0  501 -0.00000000000E+00  0.00000000000E+00  0.64645336244E+02  0.64645336244E+02  0.00000000000E+00 0.  1.
          2   -1    0    0  502    0  0.00000000000E+00 -0.00000000000E+00 -0.40866327105E+03  0.40866327105E+03  0.00000000000E+00 0. -1.
         23    2    1    2    0    0  0.14114442919E+02 -0.24719004852E+02  0.83683002109E+01  0.95117883339E+02  0.90372211341E+02 0.  0.
         24    2    1    2    0    0 -0.55814143289E+01  0.57280347446E+02 -0.30304802674E+03  0.31846374174E+03  0.79176119519E+02 0.  0.
        -11    1    4    4    0    0  0.30138524335E+02 -0.10602321688E+00 -0.85516926925E+02  0.90672414111E+02  0.00000000000E+00 0.  1.
         12    1    4    4    0    0 -0.35719938664E+02  0.57386370663E+02 -0.21753109982E+03  0.22779132763E+03  0.00000000000E+00 0. -1.
        -13    1    3    3    0    0  0.51943281366E+02 -0.23200057515E+02  0.48293646025E+01  0.57093518986E+02  0.00000000000E+00 0.  1.
         13    1    3    3    0    0 -0.37828838446E+02 -0.15189473370E+01  0.35389356083E+01  0.38024364353E+02  0.00000000000E+00 0. -1.
         21    1    1    2  502  501 -0.85330285904E+01 -0.32561342594E+02 -0.49338208272E+02  0.59726982210E+02  0.00000000000E+00 0. -1.
<scales pt_clust_5="13000.00000" pt_clust_6="13000.00000" pt_clust_7="13000.00000" pt_clust_8="13000.00000" pt_clust_9="33.66086"></scales>
<clustering>
<clus scale="   33.661">  2  9  1 -1</clus>
<clus scale="   79.176">  5  6 -1 -1</clus>
<clus scale="   85.228">  2  5  1 -1</clus>
<clus scale="   90.372">  7  8 -1 -1</clus>
<clus scale="   33.661">  2  5  1 -1</clus>
</clustering>
</event>
<event>
 9    2  0.5608219E-005  0.1153082E+03  0.7546771E-02  0.1253977E+00
          2   -1    0    0  502    0  0.00000000000E+00  0.00000000000E+00  0.13206624616E+04  0.13206624616E+04  0.00000000000E+00 0. -1.
         -1   -1    0    0    0  501 -0.00000000000E+00 -0.00000000000E+00 -0.34401245113E+02  0.34401245113E+02  0.00000000000E+00 0.  1.
         23    2    1    2    0    0 -0.79115453923E+02  0.16535957527E+02  0.37852247843E+03  0.39759448378E+03  0.90936317908E+02 0.  0.
         24    2    1    2    0    0 -0.49164448491E+01 -0.93144776691E+02  0.76454080888E+03  0.77461431295E+03  0.82489784333E+02 0.  0.
        -13    1    4    4    0    0  0.98995696034E+00 -0.81974382498E+02  0.33491067215E+03  0.34479840156E+03  0.00000000000E+00 0.  1.
         14    1    4    4    0    0 -0.59064018095E+01 -0.11170394193E+02  0.42963013674E+03  0.42981591139E+03  0.00000000000E+00 0. -1.
        -13    1    3    3    0    0  0.13963695764E+02  0.20870028179E+02  0.47776915673E+02  0.53973850584E+02  0.00000000000E+00 0.  1.
         13    1    3    3    0    0 -0.93079149687E+02 -0.43340706520E+01  0.33074556276E+03  0.34362063320E+03  0.00000000000E+00 0. -1.
         21    1    1    2  502  501  0.84031898772E+02  0.76608819165E+02  0.14319792916E+03  0.18285490997E+03  0.00000000000E+00 0.  1.
<scales pt_clust_5="13000.00000" pt_clust_6="13000.00000" pt_clust_7="13000.00000" pt_clust_8="13000.00000" pt_clust_9="113.71135"></scales>
<clustering>
<clus scale="   82.490">  5  6 -1 -1</clus>
<clus scale="   90.936">  7  8 -1 -1</clus>
<clus scale="  113.711">  2  9  1 -1</clus>
<clus scale="  108.771">  1  5  2 -1</clus>
<clus scale="  108.771">  1  5  2 -1</clus>
</clustering>
</event>
<event>
 9    2  0.5608219E-005  0.1426813E+03  0.7546771E-02  0.1229125E+00
          2   -1    0    0  502    0  0.00000000000E+00  0.00000000000E+00  0.76752220999E+03  0.76752220999E+03  0.00000000000E+00 0. -1.
         -1   -1    0    0    0  501 -0.00000000000E+00 -0.00000000000E+00 -0.46527031166E+02  0.46527031166E+02  0.00000000000E+00 0.  1.
         23    2    1    2    0    0  0.11630722911E+03  0.30399280988E+02  0.29625999626E+03  0.33244065619E+03  0.91078629073E+02 0.  0.
         24    2    1    2    0    0 -0.34595453861E+02  0.41931256685E+02  0.30572419583E+03  0.32013990114E+03  0.77892211867E+02 0.  0.
        -11    1    4    4    0    0  0.11717509218E+02  0.45844424774E+02  0.17944899943E+03  0.18558274355E+03  0.00000000000E+00 0.  1.
         12    1    4    4    0    0 -0.46312963079E+02 -0.39131680895E+01  0.12627519640E+03  0.13455715760E+03  0.00000000000E+00 0. -1.
        -13    1    3    3    0    0  0.96614521146E+01 -0.27655076860E+02  0.62567571906E+02  0.69085801633E+02  0.00000000000E+00 0. -1.
         13    1    3    3    0    0  0.10664577700E+03  0.58054357849E+02  0.23369242436E+03  0.26335485456E+03  0.00000000000E+00 0.  1.
         21    1    1    2  502  501 -0.81711775249E+02 -0.72330537673E+02  0.11901098672E+03  0.16146868382E+03  0.00000000000E+00 0. -1.
<scales pt_clust_5="13000.00000" pt_clust_6="13000.00000" pt_clust_7="13000.00000" pt_clust_8="13000.00000" pt_clust_9="109.82997"></scales>
<clustering>
<clus scale="   77.892">  5  6 -1 -1</clus>
<clus scale="   91.079">  7  8 -1 -1</clus>
<clus scale="   94.986">  1  5  2 -1</clus>
<clus scale="  109.830">  2  9  1 -1</clus>
<clus scale="   94.986">  1  5  2 -1</clus>
</clustering>
</event>
<event>
 9    2  0.5608219E-005  0.1764993E+03  0.7546771E-02  0.1174083E+00
         -1   -1    0    0    0  501 -0.00000000000E+00  0.00000000000E+00  0.26953909001E+03  0.26953909001E+03  0.00000000000E+00 0.  1.
          2   -1    0    0  502    0  0.00000000000E+00 -0.00000000000E+00 -0.28247729431E+03  0.28247729431E+03  0.00000000000E+00 0. -1.
         23    2    1    2    0    0 -0.86008729077E+02  0.37839786201E+02  0.14387220173E+03  0.19974146904E+03  0.10182383379E+03 0.  0.
         24    2    1    2    0    0  0.12956662864E+03 -0.82351815849E+02 -0.20850722117E+03  0.27133560410E+03  0.81107434564E+02 0.  0.
        -13    1    4    4    0    0 -0.23236478527E+00 -0.25998065955E+02 -0.10675667610E+02  0.28105574282E+02  0.00000000000E+00 0.  1.
         14    1    4    4    0    0  0.12979899342E+03 -0.56353749894E+02 -0.19783155356E+03  0.24323002982E+03  0.00000000000E+00 0. -1.
        -13    1    3    3    0    0  0.22480020525E+02  0.32882485529E+01  0.37957782801E+02  0.44237508706E+02  0.00000000000E+00 0. -1.
         13    1    3    3    0    0 -0.10848874960E+03  0.34551537648E+02  0.10591441892E+03  0.15550396034E+03  0.00000000000E+00 0.  1.
         21    1    1    2  502  501 -0.43557899562E+02  0.44512029649E+02  0.51696815140E+02  0.80939311174E+02  0.00000000000E+00 0.  1.
<scales pt_clust_5="13000.00000" pt_clust_6="13000.00000" pt_clust_7="13000.00000" pt_clust_8="13000.00000" pt_clust_9="62.27850"></scales>
<clustering>
<clus scale="   62.278">  1  9  2 -1</clus>
<clus scale="   81.107">  5  6 -1 -1</clus>
<clus scale="  101.824">  7  8 -1 -1</clus>
<clus scale="  165.416">  2  5  1 -1</clus>
<clus scale="  165.416">  2  5  1 -1</clus>
</clustering>
</event>
<event>
 9    2  0.5608219E-005  0.9102174E+02  0.7546771E-02  0.1306785E+00
         -3   -1    0    0    0  501 -0.00000000000E+00  0.00000000000E+00  0.14934624473E+03  0.14934624473E+03  0.00000000000E+00 0.  1.
          4   -1    0    0  502    0  0.00000000000E+00 -0.00000000000E+00 -0.19879363529E+03  0.19879363529E+03  0.00000000000E+00 0. -1.
         23    2    1    2    0    0 -0.25823916925E+02 -0.18012456951E+01  0.95054715832E+02  0.13343681204E+03  0.89999247958E+02 0.  0.
         24    2    1    2    0    0  0.85344655573E+01 -0.10309091236E+02 -0.16593746044E+03  0.18461885630E+03  0.79810819183E+02 0.  0.
        -13    1    4    4    0    0  0.31332280722E+02  0.14794039113E+02 -0.34570745292E+02  0.48946009424E+02  0.00000000000E+00 0.  1.
         14    1    4    4    0    0 -0.22797815165E+02 -0.25103130349E+02 -0.13136671515E+03  0.13567284687E+03  0.00000000000E+00 0. -1.
        -11    1    3    3    0    0 -0.18859111166E+02 -0.44757438775E+02  0.62167547706E+02  0.78890420125E+02  0.00000000000E+00 0. -1.
         11    1    3    3    0    0 -0.69648057593E+01  0.42956193080E+02  0.32887168126E+02  0.54546391911E+02  0.00000000000E+00 0.  1.
         21    1    1    2  502  501  0.17289451368E+02  0.12110336931E+02  0.21435354050E+02  0.30084211681E+02  0.00000000000E+00 0.  1.
<scales pt_clust_5="13000.00000" pt_clust_6="13000.00000" pt_clust_7="13000.00000" pt_clust_8="13000.00000" pt_clust_9="21.10889"></scales>
<clustering>
<clus scale="   21.109">  1  9  2 -1</clus>
<clus scale="   79.811">  5  6 -1 -1</clus>
<clus scale="   80.962">  2  5  1 -1</clus>
<clus scale="   89.999">  7  8 -1 -1</clus>
<clus scale="   80.962">  2  5  1 -1</clus>
</clustering>
</event>
<event>
 9    2  0.5608219E-005  0.1043960E+03  0.7546771E-02  0.1271919E+00
          2   -1    0    0  502    0  0.00000000000E+00  0.00000000000E+00  0.35845585617E+03  0.35845585617E+03  0.00000000000E+00 0. -1.
         -1   -1    0    0    0  501 -0.00000000000E+00 -0.00000000000E+00 -0.68074661092E+02  0.68074661092E+02  0.00000000000E+00 0.  1.
         23    2    1    2    0    0  0.48090621032E+02  0.23224329176E+02  0.10348950870E+00  0.10474581074E+03  0.90108805682E+02 0.  0.
         24    2    1    2    0    0 -0.30268629730E+02 -0.40601475694E+02  0.27044420409E+03  0.28995773092E+03  0.91491794266E+02 0.  0.
        -11    1    4    4    0    0  0.36664711302E+01 -0.62672748854E+02  0.14133301435E+03  0.15464907826E+03  0.00000000000E+00 0.  1.
         12    1    4    4    0    0 -0.33935100860E+02  0.22071273160E+02  0.12911118974E+03  0.13530865266E+03  0.00000000000E+00 0. -1.
        -11    1    3    3    0    0  0.46085613887E+02 -0.27657874755E+02  0.20487062139E+01  0.53786978354E+02  0.00000000000E+00 0.  1.
         11    1    3    3    0    0  0.20050071455E+01  0.50882203931E+02 -0.19452167052E+01  0.50958832390E+02  0.00000000000E+00 0. -1.
         21    1    1    2  502  501 -0.17821991303E+02  0.17377146518E+02  0.19833501483E+02  0.31826975605E+02  0.00000000000E+00 0. -1.
<scales pt_clust_5="13000.00000" pt_clust_6="13000.00000" pt_clust_7="13000.00000" pt_clust_8="13000.00000" pt_clust_9="24.89154"></scales>
<clustering>
<clus scale="   24.892">  2  9  1 -1</clus>
<clus scale="   90.109">  7  8 -1 -1</clus>
<clus scale="   91.492">  5  6 -1 -1</clus>
<clus scale="  103.186">  2  7  1 -1</clus>
<clus scale="  104.396">  1  5  2 -1</clus>
</clustering>
</event>
<event>
 9    2  0.5608219E-005  0.9854012E+02  0.7546771E-02  0.1289198E+00
          2   -1    0    0  502    0  0.00000000000E+00  0.00000000000E+00  0.95102444907E+02  0.95102444907E+02  0.00000000000E+00 0. -1.
         -1   -1    0    0    0  501 -0.00000000000E+00 -0.00000000000E+00 -0.39121019374E+03  0.39121019374E+03  0.00000000000E+00 0.  1.
         23    2    1    2    0    0  0.12772105968E+02 -0.35901606861E+02 -0.28382186860E+03  0.30044665626E+03  0.90891628320E+02 0.  0.
         24    2    1    2    0    0  0.72136120154E+01  0.37760832436E+02  0.62557230075E+02  0.10837806846E+03  0.79715005015E+02 0.  0.
        -13    1    4    4    0    0 -0.10684677842E+02  0.36083223732E+02 -0.54594472824E+01  0.38025871983E+02  0.00000000000E+00 0.  1.
         14    1    4    4    0    0  0.17898289858E+02  0.16776087046E+01  0.68016677358E+02  0.70352196480E+02  0.00000000000E+00 0. -1.
        -13    1    3    3    0    0 -0.19957761538E+02 -0.49828834103E+02 -0.10287239820E+03  0.11603428487E+03  0.00000000000E+00 0.  1.
         13    1    3    3    0    0  0.32729867505E+02  0.13927227242E+02 -0.18094947040E+03  0.18441237140E+03  0.00000000000E+00 0. -1.
         21    1    1    2  502  501 -0.19985717983E+02 -0.18592255751E+01 -0.74843110305E+02  0.77487913917E+02  0.00000000000E+00 0. -1.
<scales pt_clust_5="13000.00000" pt_clust_6="13000.00000" pt_clust_7="13000.00000" pt_clust_8="13000.00000" pt_clust_9="20.07201"></scales>
<clustering>
<clus scale="   20.072">  2  9  1 -1</clus>
<clus scale="   79.715">  5  6 -1 -1</clus>
<clus scale="   88.337">  1  5  2 -1</clus>
<clus scale="   90.892">  7  8 -1 -1</clus>
<clus scale="   88.337">  1  5  2 -1</clus>
</clustering>
</event>
<event>
 9    2  0.5608219E-005  0.1044352E+03  0.7546771E-02  0.1273846E+00
          2   -1    0    0  502    0  0.00000000000E+00  0.00000000000E+00  0.22823403339E+03  0.22823403339E+03  0.00000000000E+00 0. -1.
         -1   -1    0    0    0  501 -0.00000000000E+00 -0.00000000000E+00 -0.10334860035E+03  0.10334860035E+03  0.00000000000E+00 0.  1.
         24    2    1    2    0    0  0.18998565914E+02 -0.62525531021E+02 -0.53609268709E+02  0.11536652676E+03  0.78518114270E+02 0.  0.
         23    2    1    2    0    0 -0.94602227026E+01  0.35922358895E+02  0.14817336509E+03  0.17476623104E+03  0.84899809840E+02 0.  0.
        -13    1    3    3    0    0 -0.17192116730E+02 -0.29007695685E+02 -0.56670960102E+02  0.65944014175E+02  0.00000000000E+00 0.  1.
         14    1    3    3    0    0  0.36190682644E+02 -0.33517835335E+02  0.30616913934E+01  0.49422512583E+02  0.00000000000E+00 0. -1.
        -11    1    4    4    0    0  0.36483451433E+02  0.22909452081E+02  0.53122476323E+02  0.68395048898E+02  0.00000000000E+00 0.  1.
         11    1    4    4    0    0 -0.45943674135E+02  0.13012906813E+02  0.95050888762E+02  0.10637118215E+03  0.00000000000E+00 0. -1.
         21    1    1    2  502  501 -0.95383432115E+01  0.26603172126E+02  0.30321336667E+02  0.41449875942E+02  0.00000000000E+00 0.  1.
<scales pt_clust_5="13000.00000" pt_clust_6="13000.00000" pt_clust_7="13000.00000" pt_clust_8="13000.00000" pt_clust_9="28.26144"></scales>
<clustering>
<clus scale="   28.261">  1  9  2 -1</clus>
<clus scale="   78.518">  5  6 -1 -1</clus>
<clus scale="   84.900">  7  8 -1 -1</clus>
<clus scale="   99.317">  2  5  1 -1</clus>
<clus scale="   28.261">  1  5  2 -1</clus>
</clustering>
</event>
<event>
 9    2  0.5608219E-005  0.1019063E+03  0.7546771E-02  0.1281882E+00
          2   -1    0    0  502    0  0.00000000000E+00  0.00000000000E+00  0.11775464422E+03  0.11775464422E+03  0.00000000000E+00 0. -1.
         -1   -1    0    0    0  501 -0.00000000000E+00 -0.00000000000E+00 -0.19838813340E+03  0.19838813340E+03  0.00000000000E+00 0.  1.
         24    2    1    2    0    0 -0.20125154411E+02  0.49777826026E+02 -0.88264005506E+02  0.13035185097E+03  0.79487210159E+02 0.  0.
         23    2    1    2    0    0 -0.27271821532E+02 -0.40420119955E+02  0.55924688635E+02  0.11748011440E+03  0.91084950092E+02 0.  0.
        -13    1    3    3    0    0  0.28345056047E+02  0.20080228640E+02 -0.53283382700E+02  0.63606419932E+02  0.00000000000E+00 0.  1.
         14    1    3    3    0    0 -0.48470210458E+02  0.29697597385E+02 -0.34980622806E+02  0.66745431036E+02  0.00000000000E+00 0. -1.
        -11    1    4    4    0    0  0.11347257029E+02 -0.19505571272E+02 -0.19747490864E+02  0.29986512771E+02  0.00000000000E+00 0.  1.
         11    1    4    4    0    0 -0.38619078561E+02 -0.20914548683E+02  0.75672179500E+02  0.87493601627E+02  0.00000000000E+00 0. -1.
         21    1    1    2  502  501  0.47396975943E+02 -0.93577060710E+01 -0.48294172312E+02  0.68310812253E+02  0.00000000000E+00 0.  1.
<scales pt_clust_5="13000.00000" pt_clust_6="13000.00000" pt_clust_7="13000.00000" pt_clust_8="13000.00000" pt_clust_9="48.31190"></scales>
<clustering>
<clus scale="   48.312">  2  9  1 -1</clus>
<clus scale="   79.487">  5  6 -1 -1</clus>
<clus scale="   91.085">  7  8 -1 -1</clus>
<clus scale="   91.688">  2  5  1 -1</clus>
<clus scale="  101.906">  1  5  2 -1</clus>
</clustering>
</event>
<event>
 9    2  0.5608219E-005  0.9282362E+02  0.7546771E-02  0.1302696E+00
          2   -1    0    0  502    0  0.00000000000E+00  0.00000000000E+00  0.59470656342E+03  0.59470656342E+03  0.00000000000E+00 0. -1.
         -1   -1    0    0    0  501 -0.00000000000E+00 -0.00000000000E+00 -0.71124275387E+02  0.71124275387E+02  0.00000000000E+00 0.  1.
         24    2    1    2    0    0 -0.18681765611E+02 -0.16390194729E+02  0.11225125102E+03  0.14023263587E+03  0.80294470289E+02 0.  0.
         23    2    1    2    0    0  0.17454755382E+02 -0.85705359099E+01  0.46083097247E+03  0.47014743886E+03  0.91078573278E+02 0.  0.
        -11    1    3    3    0    0  0.14845919427E+02  0.23141347834E+02  0.62967351264E+02  0.68708155473E+02  0.00000000000E+00 0.  1.
         12    1    3    3    0    0 -0.33527685039E+02 -0.39531542563E+02  0.49283899751E+02  0.71524480397E+02  0.00000000000E+00 0. -1.
        -11    1    4    4    0    0  0.36503183274E+02 -0.41018828313E+02  0.24681649990E+03  0.25285057107E+03  0.00000000000E+00 0.  1.
         11    1    4    4    0    0 -0.19048427892E+02  0.32448292403E+02  0.21401447257E+03  0.21729686779E+03  0.00000000000E+00 0. -1.
         21    1    1    2  502  501  0.12270102292E+01  0.24960730638E+02 -0.49499935445E+02  0.55450764081E+02  0.00000000000E+00 0.  1.
<scales pt_clust_5="13000.00000" pt_clust_6="13000.00000" pt_clust_7="13000.00000" pt_clust_8="13000.00000" pt_clust_9="24.99087"></scales>
<clustering>
<clus scale="   24.991">  2  9  1 -1</clus>
<clus scale="   80.294">  5  6 -1 -1</clus>
<clus scale="   82.269">  2  5  1 -1</clus>
<clus scale="   91.079">  7  8 -1 -1</clus>
<clus scale="   92.824">  1  5  2 -1</clus>
</clustering>
</event>
<event>
 9    2  0.7135930E-005  0.1243316E+03  0.7546771E-02  0.1241040E+00
          2   -1    0    0  502    0  0.00000000000E+00  0.00000000000E+00  0.66344156023E+03  0.66344156023E+03  0.00000000000E+00 0. -1.
         -1   -1    0    0    0  501 -0.00000000000E+00 -0.00000000000E+00 -0.12874300057E+03  0.12874300057E+03  0.00000000000E+00 0.  1.
         23    2    1    2    0    0  0.61998415586E+02 -0.91280233106E+00 -0.87561207636E+02  0.14384128953E+03  0.95805609173E+02 0.  0.
         24    2    1    2    0    0 -0.78706072492E+02  0.14602401580E+02  0.61537571546E+03  0.62567300227E+03  0.79822043418E+02 0.  0.
        -13    1    4    4    0    0 -0.14891702918E+02 -0.25423620237E+02  0.84717288006E+02  0.89694716505E+02  0.00000000000E+00 0.  1.
         14    1    4    4    0    0 -0.63814369574E+02  0.40026021817E+02  0.53065842745E+03  0.53597828576E+03  0.00000000000E+00 0. -1.
        -13    1    3    3    0    0 -0.54744631796E+01  0.30444243716E+02 -0.28031645807E+01  0.31059289338E+02  0.00000000000E+00 0. -1.
         13    1    3    3    0    0  0.67472878765E+02 -0.31357046047E+02 -0.84758043056E+02  0.11278200020E+03  0.00000000000E+00 0.  1.
         21    1    1    2  502  501  0.16707656906E+02 -0.13689599249E+02  0.68840518358E+01  0.22670269001E+02  0.00000000000E+00 0. -1.
<scales pt_clust_5="13000.00000" pt_clust_6="13000.00000" pt_clust_7="13000.00000" pt_clust_8="13000.00000" pt_clust_9="21.59979"></scales>
<clustering>
<clus scale="   21.600">  2  9  1 -1</clus>
<clus scale="   79.822">  5  6 -1 -1</clus>
<clus scale="   95.806">  7  8 -1 -1</clus>
<clus scale="  112.478">  1  5  2 -1</clus>
<clus scale="  112.478">  1  5  2 -1</clus>
</clustering>
</event>
<event>
 9    2  0.5608219E-005  0.9576069E+02  0.7546771E-02  0.1294458E+00
          2   -1    0    0  502    0  0.00000000000E+00  0.00000000000E+00  0.83382368918E+03  0.83382368918E+03  0.00000000000E+00 0. -1.
         -1   -1    0    0    0  501 -0.00000000000E+00 -0.00000000000E+00 -0.22387354624E+03  0.22387354624E+03  0.00000000000E+00 0.  1.
         23    2    1    2    0    0 -0.16156494611E+02  0.37186230533E+02 -0.10955139031E+03  0.14822239740E+03  0.91238828978E+02 0.  0.
         24    2    1    2    0    0 -0.10966150216E+02 -0.26941169053E+02  0.80987665102E+03  0.81456297860E+03  0.82259183054E+02 0.  0.
        -13    1    4    4    0    0 -0.17283636013E+02  0.16460592200E+02  0.82981254710E+02  0.86345606737E+02  0.00000000000E+00 0.  1.
         14    1    4    4    0    0  0.63174857968E+01 -0.43401761253E+02  0.72689539631E+03  0.72821737186E+03  0.00000000000E+00 0. -1.
        -13    1    3    3    0    0 -0.49918988579E+02  0.37813989825E+02 -0.88547116862E+02  0.10845457644E+03  0.00000000000E+00 0.  1.
         13    1    3    3    0    0  0.33762493968E+02 -0.62775929174E+00 -0.21004273451E+02  0.39767820959E+02  0.00000000000E+00 0. -1.
         21    1    1    2  502  501  0.27122644827E+02 -0.10245061480E+02 -0.90375117767E+02  0.94911859420E+02  0.00000000000E+00 0. -1.
<scales pt_clust_5="13000.00000" pt_clust_6="13000.00000" pt_clust_7="13000.00000" pt_clust_8="13000.00000" pt_clust_9="28.99309"></scales>
<clustering>
<clus scale="   28.993">  2  9  1 -1</clus>
<clus scale="   82.259">  5  6 -1 -1</clus>
<clus scale="   87.248">  1  5  2 -1</clus>
<clus scale="   91.239">  7  8 -1 -1</clus>
<clus scale="   87.248">  1  5  2 -1</clus>
</clustering>
</event>
<event>
 9    2  0.5608219E-005  0.1111141E+03  0.7546771E-02  0.1260595E+00
         -1   -1    0    0    0  501 -0.00000000000E+00  0.00000000000E+00  0.35530306122E+03  0.35530306122E+03  0.00000000000E+00 0.  1.
          2   -1    0    0  502    0  0.00000000000E+00 -0.00000000000E+00 -0.19825953226E+03  0.19825953226E+03  0.00000000000E+00 0. -1.
         24    2    1    2    0    0  0.54972958543E+01 -0.32965790984E+02  0.25763661248E+03  0.27196398868E+03  0.80441428458E+02 0.  0.
         23    2    1    2    0    0 -0.28184443655E+02  0.66776403744E+02 -0.16833887938E+03  0.20255838044E+03  0.86246554804E+02 0.  0.
        -13    1    3    3    0    0  0.29164390048E+02 -0.48111080674E+02  0.20122455917E+03  0.20894152518E+03  0.00000000000E+00 0.  1.
         14    1    3    3    0    0 -0.23667094194E+02  0.15145289690E+02  0.56412053309E+02  0.63022463502E+02  0.00000000000E+00 0. -1.
        -13    1    4    4    0    0  0.29994231699E+02  0.27641627741E+02 -0.45413245919E+02  0.61041595853E+02  0.00000000000E+00 0.  1.
         13    1    4    4    0    0 -0.58178675354E+02  0.39134776003E+02 -0.12292563346E+03  0.14151678459E+03  0.00000000000E+00 0. -1.
         21    1    1    2  502  501  0.22687147801E+02 -0.33810612760E+02  0.67745795860E+02  0.79040224363E+02  0.00000000000E+00 0.  1.
<scales pt_clust_5="13000.00000" pt_clust_6="13000.00000" pt_clust_7="13000.00000" pt_clust_8="13000.00000" pt_clust_9="40.71688"></scales>
<clustering>
<clus scale="   40.717">  1  9  2 -1</clus>
<clus scale="   80.441">  5  6 -1 -1</clus>
<clus scale="   86.247">  7  8 -1 -1</clus>
<clus scale="  106.671">  1  5  2 -1</clus>
<clus scale="  111.114">  2  5  1 -1</clus>
</clustering>
</event>
<event>
 9    2  0.5608219E-005  0.1363975E+03  0.7546771E-02  0.1221347E+00
         -1   -1    0    0    0  501 -0.00000000000E+00  0.00000000000E+00  0.19078334664E+03  0.19078334664E+03  0.00000000000E+00 0.  1.
          2   -1    0    0  502    0  0.00000000000E+00 -0.00000000000E+00 -0.18075010416E+03  0.18075010416E+03  0.00000000000E+00 0. -1.
         23    2    1    2    0    0 -0.68230686176E+02 -0.45412738233E+02  0.23587469164E+02  0.12652089381E+03  0.93452793099E+02 0.  0.
         24    2    1    2    0    0  0.76026151452E+02  0.77184624781E+02 -0.89771410764E+02  0.16207112463E+03  0.80440669071E+02 0.  0.
        -13    1    4    4    0    0  0.30752948143E+02 -0.13247567770E+02 -0.17605166369E+02  0.37830989337E+02  0.00000000000E+00 0.  1.
         14    1    4    4    0    0  0.45273203309E+02  0.90432192551E+02 -0.72166244394E+02  0.12424013529E+03  0.00000000000E+00 0. -1.
        -11    1    3    3    0    0 -0.28352051868E+02  0.17356954160E+02 -0.21466369047E+02  0.39571551687E+02  0.00000000000E+00 0. -1.
         11    1    3    3    0    0 -0.39878634308E+02 -0.62769692393E+02  0.45053838211E+02  0.86949342119E+02  0.00000000000E+00 0.  1.
         21    1    1    2  502  501 -0.77954652758E+01 -0.31771886548E+02  0.76217184078E+02  0.82941432364E+02  0.00000000000E+00 0.  1.
<scales pt_clust_5="13000.00000" pt_clust_6="13000.00000" pt_clust_7="13000.00000" pt_clust_8="13000.00000" pt_clust_9="32.71425"></scales>
<clustering>
<clus scale="   32.714">  1  9  2 -1</clus>
<clus scale="   80.441">  5  6 -1 -1</clus>
<clus scale="   93.453">  7  8 -1 -1</clus>
<clus scale="  127.834">  2  5  1 -1</clus>
<clus scale="  127.834">  2  5  1 -1</clus>
</clustering>
</event>
<event>
 9    2  0.5608219E-005  0.1116220E+03  0.7546771E-02  0.1264718E+00
         -1   -1    0    0    0  501 -0.00000000000E+00  0.00000000000E+00  0.18388568522E+03  0.18388568522E+03  0.00000000000E+00 0.  1.
          2   -1    0    0  502    0  0.00000000000E+00 -0.00000000000E+00 -0.24492559473E+03  0.24492559473E+03  0.00000000000E+00 0. -1.
         24    2    1    2    0    0 -0.34773939568E+02 -0.74444852329E+02  0.93846788315E+02  0.14831721877E+03  0.80246587438E+02 0.  0.
         23    2    1    2    0    0  0.21181200878E+02  0.46800301713E+02 -0.19857185126E+03  0.22703962867E+03  0.97351432265E+02 0.  0.
        -11    1    3    3    0    0  0.16077612281E+02 -0.41690417293E+02  0.70526638744E+02  0.83490043019E+02  0.00000000000E+00 0.  1.
         12    1    3    3    0    0 -0.50851551849E+02 -0.32754435036E+02  0.23320149570E+02  0.64827175752E+02  0.00000000000E+00 0. -1.
        -13    1    4    4    0    0  0.55610000449E+02  0.40226704707E+02 -0.91525603882E+02  0.11440103185E+03  0.00000000000E+00 0.  1.
         13    1    4    4    0    0 -0.34428799571E+02  0.65735970058E+01 -0.10704624737E+03  0.11263859682E+03  0.00000000000E+00 0. -1.
         21    1    1    2  502  501  0.13592738690E+02  0.27644550616E+02  0.43685153433E+02  0.53454432504E+02  0.00000000000E+00 0.  1.
<scales pt_clust_5="13000.00000" pt_clust_6="13000.00000" pt_clust_7="13000.00000" pt_clust_8="13000.00000" pt_clust_9="30.80558"></scales>
<clustering>
<clus scale="   30.806">  1  9  2 -1</clus>
<clus scale="   80.247">  5  6 -1 -1</clus>
<clus scale="   97.065">  1  5  2 -1</clus>
<clus scale="   97.351">  7  8 -1 -1</clus>
<clus scale="  111.622">  2  5  1 -1</clus>
</clustering>
</event>
<event>
 9    2  0.5608219E-005  0.1494416E+03  0.7546771E-02  0.1203200E+00
          2   -1    0    0  502    0  0.00000000000E+00  0.00000000000E+00  0.14479117161E+04  0.14479117161E+04  0.00000000000E+00 0. -1.
         -1   -1    0    0    0  501 -0.00000000000E+00 -0.00000000000E+00 -0.32451849687E+02  0.32451849687E+02  0.00000000000E+00 0.  1.
         23    2    1    2    0    0 -0.15603296863E+03 -0.45718941678E+02  0.40046802650E+03  0.44187737152E+03  0.91893755421E+02 0.  0.
         24    2    1    2    0    0  0.94366217371E+02  0.51334737668E+02  0.87672783055E+03  0.88698945614E+03  0.80983752565E+02 0.  0.
        -11    1    4    4    0    0  0.64408857816E+02  0.59965926947E+02  0.41591106012E+03  0.42511930477E+03  0.00000000000E+00 0.  1.
         12    1    4    4    0    0  0.29957359555E+02 -0.86311892792E+01  0.46081677043E+03  0.46187015137E+03  0.00000000000E+00 0. -1.
        -13    1    3    3    0    0 -0.14544458221E+03 -0.59815263090E+01  0.30704430923E+03  0.33980305028E+03  0.00000000000E+00 0.  1.
         13    1    3    3    0    0 -0.10588386416E+02 -0.39737415369E+02  0.93423717272E+02  0.10207432124E+03  0.00000000000E+00 0. -1.
         21    1    1    2  502  501  0.61666751259E+02 -0.56157959894E+01  0.13826400934E+03  0.15149673810E+03  0.00000000000E+00 0. -1.
<scales pt_clust_5="13000.00000" pt_clust_6="13000.00000" pt_clust_7="13000.00000" pt_clust_8="13000.00000" pt_clust_9="61.92193"></scales>
<clustering>
<clus scale="   61.922">  2  9  1 -1</clus>
<clus scale="   80.984">  5  6 -1 -1</clus>
<clus scale="   91.894">  7  8 -1 -1</clus>
<clus scale="  142.992">  1  5  2 -1</clus>
<clus scale="  142.992">  1  5  2 -1</clus>
</clustering>
</event>
<event>
 9    2  0.5608219E-005  0.2097013E+03  0.7546771E-02  0.1164294E+00
         -1   -1    0    0    0  501 -0.00000000000E+00  0.00000000000E+00  0.20968296646E+03  0.20968296646E+03  0.00000000000E+00 0.  1.
          2   -1    0    0  502    0  0.00000000000E+00 -0.00000000000E+00 -0.14433727489E+04  0.14433727489E+04  0.00000000000E+00 0. -1.
         23    2    1    2    0    0 -0.71137408873E+02 -0.44335201810E+02 -0.43653556469E+02  0.13091260258E+03  0.90588826354E+02 0.  0.
         24    2    1    2    0    0 -0.25592702485E+02 -0.12682573329E+03  0.12199319073E+03  0.19546531828E+03  0.81145542220E+02 0.  0.
        -11    1    4    4    0    0  0.13076426834E+02 -0.41925115381E+02  0.83893400520E+02  0.94693246271E+02  0.00000000000E+00 0.  1.
         12    1    4    4    0    0 -0.38669129319E+02 -0.84900617908E+02  0.38099790207E+02  0.10077207201E+03  0.00000000000E+00 0. -1.
        -13    1    3    3    0    0 -0.63311487806E+01  0.24784550694E+02 -0.21955995910E+02  0.33710875907E+02  0.00000000000E+00 0. -1.
         13    1    3    3    0    0 -0.64806260092E+02 -0.69119752504E+02 -0.21697560559E+02  0.97201726670E+02  0.00000000000E+00 0.  1.
         21    1    1    2  502  501  0.96730111358E+02  0.17116093510E+03 -0.13120294167E+04  0.13266777945E+04  0.00000000000E+00 0. -1.
<scales pt_clust_5="13000.00000" pt_clust_6="13000.00000" pt_clust_7="13000.00000" pt_clust_8="13000.00000" pt_clust_9="193.36498"></scales>
<clustering>
<clus scale="   81.146">  5  6 -1 -1</clus>
<clus scale="   90.589">  7  8 -1 -1</clus>
<clus scale="  123.420">  1  7  2 -1</clus>
<clus scale="  193.365">  2  9  1 -1</clus>
<clus scale="  193.365">  2  5  1 -1</clus>
</clustering>
</event>
<event>
 9    2  0.5608219E-005  0.1124308E+03  0.7546771E-02  0.1260269E+00
         -1   -1    0    0    0  501 -0.00000000000E+00  0.00000000000E+00  0.11762641384E+04  0.11762641384E+04  0.00000000000E+00 0.  1.
          2   -1    0    0  502    0  0.00000000000E+00 -0.00000000000E+00 -0.91412539741E+02  0.91412539741E+02  0.00000000000E+00 0. -1.
         24    2    1    2    0    0 -0.17752571023E+02  0.68345442376E+02  0.10380048469E+04  0.10435236097E+04  0.80630072913E+02 0.  0.
         23    2    1    2    0    0 -0.57073735080E+01 -0.64792986291E+02 -0.51030379936E+02  0.12344099438E+03  0.91667192781E+02 0.  0.
        -11    1    3    3    0    0 -0.25013879175E+02  0.16348661850E+02  0.10857728349E+03  0.11261438357E+03  0.00000000000E+00 0.  1.
         12    1    3    3    0    0  0.72613081514E+01  0.51996780526E+02  0.92942756337E+03  0.93090922615E+03  0.00000000000E+00 0. -1.
        -11    1    4    4    0    0  0.38448836343E+02 -0.69325843687E+01 -0.12103540468E+02  0.40900726571E+02  0.00000000000E+00 0.  1.
         11    1    4    4    0    0 -0.44156209851E+02 -0.57860401922E+02 -0.38926839469E+02  0.82540267810E+02  0.00000000000E+00 0. -1.
         21    1    1    2  502  501  0.23459944531E+02 -0.35524560847E+01  0.97877131713E+02  0.10071207402E+03  0.00000000000E+00 0.  1.
<scales pt_clust_5="13000.00000" pt_clust_6="13000.00000" pt_clust_7="13000.00000" pt_clust_8="13000.00000" pt_clust_9="23.72739"></scales>
<clustering>
<clus scale="   23.727">  1  9  2 -1</clus>
<clus scale="   80.630">  5  6 -1 -1</clus>
<clus scale="   91.667">  7  8 -1 -1</clus>
<clus scale="  103.629">  1  5  2 -1</clus>
<clus scale="  112.431">  2  5  1 -1</clus>
</clustering>
</event>
<event>
 9    2  0.5608219E-005  0.1205751E+03  0.7546771E-02  0.1243029E+00
          2   -1    0    0  502    0  0.00000000000E+00  0.00000000000E+00  0.57157245777E+03  0.57157245777E+03  0.00000000000E+00 0. -1.
         -1   -1    0    0    0  501 -0.00000000000E+00 -0.00000000000E+00 -0.40443222335E+02  0.40443222335E+02  0.00000000000E+00 0.  1.
         23    2    1    2    0    0 -0.31362877583E+02  0.67819424340E+02  0.96647650233E+02  0.14738444292E+03  0.82451812060E+02 0.  0.
         24    2    1    2    0    0  0.20522555162E+02 -0.90742629003E+02  0.41506023827E+03  0.43269106469E+03  0.79316808313E+02 0.  0.
        -13    1    4    4    0    0  0.16155838394E+01 -0.26821189106E+02  0.24117106058E+02  0.36105693468E+02  0.00000000000E+00 0.  1.
         14    1    4    4    0    0  0.18906971322E+02 -0.63921439896E+02  0.39094313221E+03  0.39658537122E+03  0.00000000000E+00 0. -1.
        -13    1    3    3    0    0  0.24689400537E+02  0.15075628193E+02  0.48884264380E+02  0.56802397558E+02  0.00000000000E+00 0. -1.
         13    1    3    3    0    0 -0.56052278120E+02  0.52743796147E+02  0.47763385853E+02  0.90582045365E+02  0.00000000000E+00 0.  1.
         21    1    1    2  502  501  0.10840322421E+02  0.22923204662E+02  0.19421346931E+02  0.31940172492E+02  0.00000000000E+00 0. -1.
<scales pt_clust_5="13000.00000" pt_clust_6="13000.00000" pt_clust_7="13000.00000" pt_clust_8="13000.00000" pt_clust_9="25.35717"></scales>
<clustering>
<clus scale="   25.357">  2  9  1 -1</clus>
<clus scale="   79.317">  5  6 -1 -1</clus>
<clus scale="   82.452">  7  8 -1 -1</clus>
<clus scale="  118.453">  1  5  2 -1</clus>
<clus scale="  118.453">  1  5  2 -1</clus>
</clustering>
</event>
<event>
 9    2  0.5608219E-005  0.1480121E+03  0.7546771E-02  0.1204891E+00
          2   -1    0    0  502    0  0.00000000000E+00  0.00000000000E+00  0.81933653383E+02  0.81933653383E+02  0.00000000000E+00 0. -1.
         -1   -1    0    0    0  501 -0.00000000000E+00 -0.00000000000E+00 -0.49887863044E+03  0.49887863044E+03  0.00000000000E+00 0.  1.
         24    2    1    2    0    0  0.97167502105E+02 -0.29829614716E+02 -0.25419523037E+03  0.28531585088E+03  0.80365354760E+02 0.  0.
         23    2    1    2    0    0 -0.11590829656E+03  0.37915340395E+02 -0.22357449290E+02  0.15362820709E+03  0.90716394474E+02 0.  0.
        -11    1    3    3    0    0  0.10983418795E+03 -0.18515277359E+02 -0.20551603357E+03  0.23375885950E+03  0.00000000000E+00 0.  1.
         12    1    3    3    0    0 -0.12666685849E+02 -0.11314337357E+02 -0.48679196793E+02  0.51556991385E+02  0.00000000000E+00 0. -1.
        -11    1    4    4    0    0 -0.16254779151E+02 -0.20424107682E+02 -0.27660208938E+02  0.38032212378E+02  0.00000000000E+00 0.  1.
         11    1    4    4    0    0 -0.99653517406E+02  0.58339448077E+02  0.53027596479E+01  0.11559599471E+03  0.00000000000E+00 0. -1.
         21    1    1    2  502  501  0.18740794452E+02 -0.80857256789E+01 -0.14039229740E+03  0.14186822585E+03  0.00000000000E+00 0.  1.
<scales pt_clust_5="13000.00000" pt_clust_6="13000.00000" pt_clust_7="13000.00000" pt_clust_8="13000.00000" pt_clust_9="20.41069"></scales>
<clustering>
<clus scale="   20.411">  2  9  1 -1</clus>
<clus scale="   80.365">  5  6 -1 -1</clus>
<clus scale="   90.716">  7  8 -1 -1</clus>
<clus scale="  141.904">  2  5  1 -1</clus>
<clus scale="  148.012">  1  5  2 -1</clus>
</clustering>
</event>
<event>
 9    2  0.5608219E-005  0.9494411E+02  0.7546771E-02  0.1297595E+00
         -1   -1    0    0    0  501 -0.00000000000E+00  0.00000000000E+00  0.19200407002E+03  0.19200407002E+03  0.00000000000E+00 0.  1.
          2   -1    0    0  502    0  0.00000000000E+00 -0.00000000000E+00 -0.39171787983E+03  0.39171787983E+03  0.00000000000E+00 0. -1.
         24    2    1    2    0    0  0.19719933652E+02 -0.13078646356E+01  0.12363380516E+03  0.14875833793E+03  0.80331432410E+02 0.  0.
         23    2    1    2    0    0 -0.12504122072E+01 -0.27212310320E+02 -0.36727388856E+03  0.37942946823E+03  0.91293695179E+02 0.  0.
        -13    1    3    3    0    0 -0.26060960370E+02  0.12261622419E+02  0.76164210482E+02  0.81427931315E+02  0.00000000000E+00 0.  1.
         14    1    3    3    0    0  0.45780894023E+02 -0.13569487054E+02  0.47469594673E+02  0.67330406614E+02  0.00000000000E+00 0. -1.
        -11    1    4    4    0    0 -0.26495586324E+02 -0.48763952991E+02 -0.29101863710E+03  0.29626303574E+03  0.00000000000E+00 0. -1.
         11    1    4    4    0    0  0.25245174117E+02  0.21551642671E+02 -0.76255251467E+02  0.83166432498E+02  0.00000000000E+00 0.  1.
         21    1    1    2  502  501 -0.18469521445E+02  0.28520174955E+02  0.43926273602E+02  0.55534143681E+02  0.00000000000E+00 0.  1.
<scales pt_clust_5="13000.00000" pt_clust_6="13000.00000" pt_clust_7="13000.00000" pt_clust_8="13000.00000" pt_clust_9="33.97828"></scales>
<clustering>
<clus scale="   33.978">  1  9  2 -1</clus>
<clus scale="   80.331">  5  6 -1 -1</clus>
<clus scale="   84.457">  1  5  2 -1</clus>
<clus scale="   91.294">  7  8 -1 -1</clus>
<clus scale="   94.944">  2  5  1 -1</clus>
</clustering>
</event>
<event>
 9    2  0.5608219E-005  0.1347342E+03  0.7546771E-02  0.1222783E+00
         -1   -1    0    0    0  501 -0.00000000000E+00  0.00000000000E+00  0.14914623279E+03  0.14914623279E+03  0.00000000000E+00 0.  1.
          2   -1    0    0  502    0  0.00000000000E+00 -0.00000000000E+00 -0.31871287105E+03  0.31871287105E+03  0.00000000000E+00 0. -1.
         24    2    1    2    0    0  0.43567174234E+02 -0.58173460254E+02  0.82376150999E+02  0.13597942157E+03  0.80139395353E+02 0.  0.
         23    2    1    2    0    0 -0.62492293280E+02  0.84460785760E+02 -0.26352323001E+03  0.29748069652E+03  0.89506206480E+02 0.  0.
        -11    1    3    3    0    0  0.29622454869E+02 -0.24200625852E+02  0.90602250659E+02  0.98345960509E+02  0.00000000000E+00 0.  1.
         12    1    3    3    0    0  0.13944719365E+02 -0.33972834403E+02 -0.82260996600E+01  0.37633461057E+02  0.00000000000E+00 0. -1.
        -13    1    4    4    0    0 -0.32859049472E+02  0.77331771751E+01 -0.17399657633E+02  0.37977193777E+02  0.00000000000E+00 0.  1.
         13    1    4    4    0    0 -0.29633243807E+02  0.76727608585E+02 -0.24612357237E+03  0.25950350274E+03  0.00000000000E+00 0. -1.
         21    1    1    2  502  501  0.18925119045E+02 -0.26287325506E+02  0.11580440751E+02  0.34398985757E+02  0.00000000000E+00 0.  1.
<scales pt_clust_5="13000.00000" pt_clust_6="13000.00000" pt_clust_7="13000.00000" pt_clust_8="13000.00000" pt_clust_9="32.39110"></scales>
<clustering>
<clus scale="   32.391">  1  9  2 -1</clus>
<clus scale="   80.139">  5  6 -1 -1</clus>
<clus scale="   89.506">  7  8 -1 -1</clus>
<clus scale="  128.702">  1  5  2 -1</clus>
<clus scale="  134.734">  2  5  1 -1</clus>
</clustering>
</event>
<event>
 9    2  0.5608219E-005  0.1073357E+03  0.7546771E-02  0.1277602E+00
         -1   -1    0    0    0  501 -0.00000000000E+00  0.00000000000E+00  0.51186150937E+02  0.51186150937E+02  0.00000000000E+00 0.  1.
          2   -1    0    0  502    0  0.00000000000E+00 -0.00000000000E+00 -0.29063551371E+03  0.29063551371E+03  0.00000000000E+00 0. -1.
         24    2    1    2    0    0  0.25904094085E+02 -0.34701102906E+02 -0.11559185381E+03  0.14706128569E+03  0.79939705089E+02 0.  0.
         23    2    1    2    0    0 -0.14931031957E+02  0.30218315707E+01 -0.12286248583E+03  0.16121974097E+03  0.10326929492E+03 0.  0.
        -13    1    3    3    0    0 -0.88589121530E+01 -0.51490693999E+02 -0.69161497715E+02  0.86678051773E+02  0.00000000000E+00 0.  1.
         14    1    3    3    0    0  0.34763006237E+02  0.16789591093E+02 -0.46430356093E+02  0.60383233920E+02  0.00000000000E+00 0. -1.
        -11    1    4    4    0    0 -0.35288608674E+02 -0.15052842999E+01  0.12739726285E+01  0.35343666890E+02  0.00000000000E+00 0.  1.
         11    1    4    4    0    0  0.20357576717E+02  0.45271158705E+01 -0.12413645846E+03  0.12587607408E+03  0.00000000000E+00 0. -1.
         21    1    1    2  502  501 -0.10973062128E+02  0.31679271336E+02 -0.99502313056E+00  0.33540637976E+02  0.00000000000E+00 0. -1.
<scales pt_clust_5="13000.00000" pt_clust_6="13000.00000" pt_clust_7="13000.00000" pt_clust_8="13000.00000" pt_clust_9="33.52588"></scales>
<clustering>
<clus scale="   33.526">  1  9  2 -1</clus>
<clus scale="   79.940">  5  6 -1 -1</clus>
<clus scale="   85.128">  1  5  2 -1</clus>
<clus scale="  103.269">  7  8 -1 -1</clus>
<clus scale="  107.336">  2  5  1 -1</clus>
</clustering>
</event>
<event>
 9    2  0.5608219E-005  0.2283781E+03  0.7546771E-02  0.1158449E+00
         -1   -1    0    0    0  501 -0.00000000000E+00  0.00000000000E+00  0.51347856425E+03  0.51347856425E+03  0.00000000000E+00 0.  1.
          2   -1    0    0  502    0  0.00000000000E+00 -0.00000000000E+00 -0.38493788400E+03  0.38493788400E+03  0.00000000000E+00 0. -1.
         23    2    1    2    0    0  0.29484016517E+02  0.26577079992E+03  0.26267760097E+02  0.28443223428E+03  0.93318140540E+02 0.  0.
         24    2    1    2    0    0  0.55284722435E+01 -0.73072590012E+02 -0.21493003895E+03  0.24118910707E+03  0.81284047069E+02 0.  0.
        -11    1    4    4    0    0  0.17811550459E+01 -0.90392469493E+02 -0.19189501812E+03  0.21212654014E+03  0.00000000000E+00 0.  1.
         12    1    4    4    0    0  0.37473171976E+01  0.17319879482E+02 -0.23035020831E+02  0.29062566923E+02  0.00000000000E+00 0. -1.
        -11    1    3    3    0    0 -0.21093342510E+02  0.16840675283E+03 -0.67438126647E+01  0.16985653507E+03  0.00000000000E+00 0. -1.
         11    1    3    3    0    0  0.50577359027E+02  0.97364047093E+02  0.33011572762E+02  0.11457569921E+03  0.00000000000E+00 0.  1.
         21    1    1    2  502  501 -0.35012488761E+02 -0.19269820991E+03  0.31720295910E+03  0.37279510691E+03  0.00000000000E+00 0.  1.
<scales pt_clust_5="13000.00000" pt_clust_6="13000.00000" pt_clust_7="13000.00000" pt_clust_8="13000.00000" pt_clust_9="208.44248"></scales>
<clustering>
<clus scale="   81.284">  5  6 -1 -1</clus>
<clus scale="   93.318">  7  8 -1 -1</clus>
<clus scale="  109.441">  2  5  1 -1</clus>
<clus scale="  208.442">  1  9  2 -1</clus>
<clus scale="  109.441">  2  5  1 -1</clus>
</clustering>
</event>
<event>
 9    2  0.5608219E-005  0.1262053E+03  0.7546771E-02  0.1235699E+00
          2   -1    0    0  502    0  0.00000000000E+00  0.00000000000E+00  0.23540848455E+03  0.23540848455E+03  0.00000000000E+00 0. -1.
         -1   -1    0    0    0  501 -0.00000000000E+00 -0.00000000000E+00 -0.28266451145E+03  0.28266451145E+03  0.00000000000E+00 0.  1.
         23    2    1    2    0    0  0.43843421248E+02 -0.95444959451E+02 -0.19490876694E+03  0.23922304383E+03  0.90588362379E+02 0.  0.
         24    2    1    2    0    0 -0.58115299759E+02  0.64557170648E+02  0.19015510002E+03  0.22440555284E+03  0.81571280099E+02 0.  0.
        -13    1    4    4    0    0 -0.90459907517E+01  0.63235925168E+02  0.70843634600E+02  0.95390946866E+02  0.00000000000E+00 0.  1.
         14    1    4    4    0    0 -0.49069309007E+02  0.13212454800E+01  0.11931146542E+03  0.12901460598E+03  0.00000000000E+00 0. -1.
        -13    1    3    3    0    0 -0.15608689733E+02 -0.26033177080E+02 -0.83505385594E+01  0.31481566007E+02  0.00000000000E+00 0. -1.
         13    1    3    3    0    0  0.59452110981E+02 -0.69411782372E+02 -0.18655822838E+03  0.20774147782E+03  0.00000000000E+00 0.  1.
         21    1    1    2  502  501  0.14271878511E+02  0.30887788803E+02 -0.42502359989E+02  0.54444399327E+02  0.00000000000E+00 0.  1.
<scales pt_clust_5="13000.00000" pt_clust_6="13000.00000" pt_clust_7="13000.00000" pt_clust_8="13000.00000" pt_clust_9="34.02561"></scales>
<clustering>
<clus scale="   34.026">  2  9  1 -1</clus>
<clus scale="   81.571">  5  6 -1 -1</clus>
<clus scale="   90.588">  7  8 -1 -1</clus>
<clus scale="  119.897">  1  5  2 -1</clus>
<clus scale="  119.897">  1  5  2 -1</clus>
</clustering>
</event>
<event>
 9    2  0.5608219E-005  0.2787528E+03  0.7546771E-02  0.1096887E+00
         -1   -1    0    0    0  501 -0.00000000000E+00  0.00000000000E+00  0.33897123718E+03  0.33897123718E+03  0.00000000000E+00 0.  1.
          2   -1    0    0  502    0  0.00000000000E+00 -0.00000000000E+00 -0.11566692200E+04  0.11566692200E+04  0.00000000000E+00 0. -1.
         23    2    1    2    0    0  0.14853737664E+03 -0.26502595993E+03 -0.37630184484E+03  0.49201885306E+03  0.90428765590E+02 0.  0.
         24    2    1    2    0    0 -0.12011457993E+03  0.21633618441E+03 -0.69602356341E+03  0.74282728792E+03  0.78196687029E+02 0.  0.
        -11    1    4    4    0    0 -0.73179883236E+02  0.57896312572E+02 -0.28237656452E+03  0.29739502771E+03  0.00000000000E+00 0.  1.
         12    1    4    4    0    0 -0.46934696698E+02  0.15843987184E+03 -0.41364699890E+03  0.44543226021E+03  0.00000000000E+00 0. -1.
        -11    1    3    3    0    0  0.93751410264E+02 -0.10984742723E+03 -0.12166962999E+03  0.18883665708E+03  0.00000000000E+00 0. -1.
         11    1    3    3    0    0  0.54785966372E+02 -0.15517853269E+03 -0.25463221485E+03  0.30318219598E+03  0.00000000000E+00 0.  1.
         21    1    1    2  502  501 -0.28422796702E+02  0.48689775516E+02  0.25462742539E+03  0.26079431622E+03  0.00000000000E+00 0.  1.
<scales pt_clust_5="13000.00000" pt_clust_6="13000.00000" pt_clust_7="13000.00000" pt_clust_8="13000.00000" pt_clust_9="56.37863"></scales>
<clustering>
<clus scale="   56.379">  1  9  2 -1</clus>
<clus scale="   78.197">  5  6 -1 -1</clus>
<clus scale="   90.429">  7  8 -1 -1</clus>
<clus scale="  275.028">  2  5  1 -1</clus>
<clus scale="  275.028">  2  5  1 -1</clus>
</clustering>
</event>
<event>
 9    2  0.5608219E-005  0.1237233E+03  0.7546771E-02  0.1253291E+00
          2   -1    0    0  502    0  0.00000000000E+00  0.00000000000E+00  0.40004714162E+03  0.40004714162E+03  0.00000000000E+00 0. -1.
         -1   -1    0    0    0  501 -0.00000000000E+00 -0.00000000000E+00 -0.19042880176E+03  0.19042880176E+03  0.00000000000E+00 0.  1.
         24    2    1    2    0    0  0.21037546621E+02 -0.29408901969E+02 -0.66478010247E+02  0.11129584816E+03  0.81608688803E+02 0.  0.
         23    2    1    2    0    0  0.84536993744E+01 -0.79441120014E+02  0.33184091638E+03  0.35338058192E+03  0.91526418662E+02 0.  0.
        -13    1    3    3    0    0 -0.21388998054E+02  0.16136998417E+02 -0.23670059742E+02  0.35751415131E+02  0.00000000000E+00 0.  1.
         14    1    3    3    0    0  0.42426544675E+02 -0.45545900386E+02 -0.42807950505E+02  0.75544433028E+02  0.00000000000E+00 0. -1.
        -13    1    4    4    0    0 -0.58712747080E+01 -0.28264664199E+02  0.15812547519E+02  0.32915038630E+02  0.00000000000E+00 0.  1.
         13    1    4    4    0    0  0.14324974082E+02 -0.51176455815E+02  0.31602836886E+03  0.32046554329E+03  0.00000000000E+00 0. -1.
         21    1    1    2  502  501 -0.29491245996E+02  0.10885002198E+03 -0.55744566272E+02  0.12579951329E+03  0.00000000000E+00 0.  1.
<scales pt_clust_5="13000.00000" pt_clust_6="13000.00000" pt_clust_7="13000.00000" pt_clust_8="13000.00000" pt_clust_9="83.24887"></scales>
<clustering>
<clus scale="   81.609">  5  6 -1 -1</clus>
<clus scale="   89.261">  2  5  1 -1</clus>
<clus scale="   83.249">  2  9  1 -1</clus>
<clus scale="   91.526">  7  8 -1 -1</clus>
<clus scale="  123.723">  1  5  2 -1</clus>
</clustering>
</event>
<event>
 9    2  0.5608219E-005  0.1193464E+03  0.7546771E-02  0.1252462E+00
          2   -1    0    0  502    0  0.00000000000E+00  0.00000000000E+00  0.42264840139E+03  0.42264840139E+03  0.00000000000E+00 0. -1.
         -1   -1    0    0    0  501 -0.00000000000E+00 -0.00000000000E+00 -0.37527401067E+02  0.37527401067E+02  0.00000000000E+00 0.  1.
         23    2    1    2    0    0  0.46873874842E+01 -0.52552202484E+02  0.15122672617E+03  0.19050480129E+03  0.10314480606E+03 0.  0.
         24    2    1    2    0    0 -0.30396590122E+02  0.59016091732E+02  0.20586415288E+03  0.23109079040E+03  0.81339118459E+02 0.  0.
        -13    1    4    4    0    0 -0.52025094890E+02  0.17141514388E+02  0.13793084371E+03  0.14840943252E+03  0.00000000000E+00 0.  1.
         14    1    4    4    0    0  0.21628504768E+02  0.41874577344E+02  0.67933309175E+02  0.82681357885E+02  0.00000000000E+00 0. -1.
        -13    1    3    3    0    0 -0.32228649060E+02  0.20322416769E+01  0.86413196971E+01  0.33428853294E+02  0.00000000000E+00 0.  1.
         13    1    3    3    0    0  0.36916036544E+02 -0.54584444161E+02  0.14258540647E+03  0.15707594799E+03  0.00000000000E+00 0. -1.
         21    1    1    2  502  501  0.25709202638E+02 -0.64638892479E+01  0.28030121267E+02  0.38580210766E+02  0.00000000000E+00 0. -1.
<scales pt_clust_5="13000.00000" pt_clust_6="13000.00000" pt_clust_7="13000.00000" pt_clust_8="13000.00000" pt_clust_9="26.50934"></scales>
<clustering>
<clus scale="   26.509">  2  9  1 -1</clus>
<clus scale="   81.339">  5  6 -1 -1</clus>
<clus scale="  101.098">  1  5  2 -1</clus>
<clus scale="  103.145">  7  8 -1 -1</clus>
<clus scale="  101.098">  1  5  2 -1</clus>
</clustering>
</event>
<event>
 9    2  0.5608219E-005  0.2994790E+03  0.7546771E-02  0.1107633E+00
          2   -1    0    0  502    0  0.00000000000E+00  0.00000000000E+00  0.27131286862E+04  0.27131286862E+04  0.00000000000E+00 0. -1.
         -1   -1    0    0    0  501 -0.00000000000E+00 -0.00000000000E+00 -0.18468869066E+03  0.18468869066E+03  0.00000000000E+00 0.  1.
         24    2    1    2    0    0  0.95608053980E+02 -0.11254754186E+03  0.22630717289E+03  0.28185731638E+03  0.80129652018E+02 0.  0.
         23    2    1    2    0    0  0.17263968724E+03 -0.55714805786E+01 -0.83742526559E+02  0.21214847550E+03  0.90325311506E+02 0.  0.
        -11    1    3    3    0    0  0.92353863374E+02 -0.83846771607E+02  0.12531027409E+03  0.17681114779E+03  0.00000000000E+00 0.  1.
         12    1    3    3    0    0  0.32541906067E+01 -0.28700770253E+02  0.10099689880E+03  0.10504616860E+03  0.00000000000E+00 0. -1.
        -11    1    4    4    0    0  0.10614116855E+03  0.25911912442E+01 -0.97046657830E+02  0.14384267701E+03  0.00000000000E+00 0.  1.
         11    1    4    4    0    0  0.66498518690E+02 -0.81626718228E+01  0.13304131272E+02  0.68305798496E+02  0.00000000000E+00 0. -1.
         21    1    1    2  502  501 -0.26824774122E+03  0.11811902244E+03  0.23858753492E+04  0.24038115850E+04  0.00000000000E+00 0. -1.
<scales pt_clust_5="13000.00000" pt_clust_6="13000.00000" pt_clust_7="13000.00000" pt_clust_8="13000.00000" pt_clust_9="285.53287"></scales>
<clustering>
<clus scale="   80.130">  5  6 -1 -1</clus>
<clus scale="   90.325">  7  8 -1 -1</clus>
<clus scale="  168.014">  2  5  1 -1</clus>
<clus scale="  285.533">  1  9  2 -1</clus>
<clus scale="  285.533">  1  5  2 -1</clus>
</clustering>
</event>
<event>
 9    2  0.5608219E-005  0.2527711E+03  0.7546771E-02  0.1126996E+00
          2   -1    0    0  502    0  0.00000000000E+00  0.00000000000E+00  0.84295675527E+03  0.84295675527E+03  0.00000000000E+00 0. -1.
         -1   -1    0    0    0  501 -0.00000000000E+00 -0.00000000000E+00 -0.41251893169E+03  0.41251893169E+03  0.00000000000E+00 0.  1.
         23    2    1    2    0    0  0.14148537530E+03 -0.36386170410E+02 -0.30909622905E+03  0.35360912302E+03  0.90315382110E+02 0.  0.
         24    2    1    2    0    0  0.46334454229E+02 -0.19531593439E+03  0.27240701504E+03  0.34763752917E+03  0.79693625648E+02 0.  0.
        -11    1    4    4    0    0  0.68462313215E+02 -0.16088920176E+03  0.21467227438E+03  0.27686929942E+03  0.00000000000E+00 0.  1.
         12    1    4    4    0    0 -0.22127858986E+02 -0.34426732630E+02  0.57734740654E+02  0.70768229746E+02  0.00000000000E+00 0. -1.
        -11    1    3    3    0    0  0.22552078679E+02 -0.83517469853E+01 -0.32634798885E+01  0.24269285762E+02  0.00000000000E+00 0. -1.
         11    1    3    3    0    0  0.11893329662E+03 -0.28034423425E+02 -0.30583274916E+03  0.32933983726E+03  0.00000000000E+00 0.  1.
         21    1    1    2  502  501 -0.18781982953E+03  0.23170210480E+03  0.46712703760E+03  0.55422903478E+03  0.00000000000E+00 0. -1.
<scales pt_clust_5="13000.00000" pt_clust_6="13000.00000" pt_clust_7="13000.00000" pt_clust_8="13000.00000" pt_clust_9="239.87949"></scales>
<clustering>
<clus scale="   79.694">  5  6 -1 -1</clus>
<clus scale="   90.315">  7  8 -1 -1</clus>
<clus scale="  171.753">  2  7  1 -1</clus>
<clus scale="  239.879">  2  9  1 -1</clus>
<clus scale="  252.771">  1  5  2 -1</clus>
</clustering>
</event>
<event>
 9    2  0.5608219E-005  0.9634151E+02  0.7546771E-02  0.1297505E+00
          2   -1    0    0  502    0  0.00000000000E+00  0.00000000000E+00  0.18715675590E+03  0.18715675590E+03  0.00000000000E+00 0. -1.
         -1   -1    0    0    0  501 -0.00000000000E+00 -0.00000000000E+00 -0.87116998939E+02  0.87116998939E+02  0.00000000000E+00 0.  1.
         23    2    1    2    0    0 -0.20402645111E+02  0.10723306368E+02 -0.27102618280E+02  0.10230005384E+03  0.95913981629E+02 0.  0.
         24    2    1    2    0    0  0.64100686017E+01  0.54621066405E+01  0.12699906251E+03  0.15057789930E+03  0.80461284413E+02 0.  0.
        -13    1    4    4    0    0 -0.27652684441E+02  0.27884503388E+02  0.73206957195E+02  0.83075117019E+02  0.00000000000E+00 0.  1.
         14    1    4    4    0    0  0.34062753043E+02 -0.22422396748E+02  0.53792105315E+02  0.67502782276E+02  0.00000000000E+00 0. -1.
        -11    1    3    3    0    0  0.34352081172E+02 -0.11856689332E+02 -0.22833187064E+02  0.42918539051E+02  0.00000000000E+00 0.  1.
         11    1    3    3    0    0 -0.54754726283E+02  0.22579995701E+02 -0.42694312158E+01  0.59381514793E+02  0.00000000000E+00 0. -1.
         21    1    1    2  502  501  0.13992576510E+02 -0.16185413009E+02  0.14331272656E+00  0.21395801695E+02  0.00000000000E+00 0. -1.
<scales pt_clust_5="13000.00000" pt_clust_6="13000.00000" pt_clust_7="13000.00000" pt_clust_8="13000.00000" pt_clust_9="21.39532"></scales>
<clustering>
<clus scale="   21.395">  2  9  1 -1</clus>
<clus scale="   80.461">  5  6 -1 -1</clus>
<clus scale="   80.970">  1  5  2 -1</clus>
<clus scale="   95.914">  7  8 -1 -1</clus>
<clus scale="   80.970">  1  5  2 -1</clus>
</clustering>
</event>
<event>
 9    2  0.5608219E-005  0.1539424E+03  0.7546771E-02  0.1197298E+00
         -1   -1    0    0    0  501 -0.00000000000E+00  0.00000000000E+00  0.18750594572E+03  0.18750594572E+03  0.00000000000E+00 0.  1.
          2   -1    0    0  502    0  0.00000000000E+00 -0.00000000000E+00 -0.28389532640E+03  0.28389532640E+03  0.00000000000E+00 0. -1.
         24    2    1    2    0    0 -0.81516351403E+02 -0.12108931594E+03  0.87446613182E+02  0.18834804961E+03  0.80749858539E+02 0.  0.
         23    2    1    2    0    0  0.67992347017E+02  0.10011829455E+03 -0.20205687494E+03  0.25215527857E+03  0.90048162894E+02 0.  0.
        -11    1    3    3    0    0 -0.18119517729E+02 -0.97263570470E+02  0.55876196668E+02  0.11362512230E+03  0.00000000000E+00 0.  1.
         12    1    3    3    0    0 -0.63396833673E+02 -0.23825745468E+02  0.31570416514E+02  0.74722927310E+02  0.00000000000E+00 0. -1.
        -11    1    4    4    0    0  0.38107333724E+02  0.75983076879E+02 -0.19550740751E+03  0.21318710854E+03  0.00000000000E+00 0.  1.
         11    1    4    4    0    0  0.29885013293E+02  0.24135217669E+02 -0.65494674304E+01  0.38968170025E+02  0.00000000000E+00 0. -1.
         21    1    1    2  502  501  0.13524004386E+02  0.20971021390E+02  0.18220881076E+02  0.30897943944E+02  0.00000000000E+00 0.  1.
<scales pt_clust_5="13000.00000" pt_clust_6="13000.00000" pt_clust_7="13000.00000" pt_clust_8="13000.00000" pt_clust_9="24.95361"></scales>
<clustering>
<clus scale="   24.954">  1  9  2 -1</clus>
<clus scale="   80.750">  5  6 -1 -1</clus>
<clus scale="   90.048">  7  8 -1 -1</clus>
<clus scale="  148.695">  1  5  2 -1</clus>
<clus scale="  153.942">  2  5  1 -1</clus>
</clustering>
</event>
<event>
 9    2  0.5608219E-005  0.1098382E+03  0.7546771E-02  0.1276144E+00
         -1   -1    0    0    0  501 -0.00000000000E+00  0.00000000000E+00  0.27105868265E+03  0.27105868265E+03  0.00000000000E+00 0.  1.
          2   -1    0    0  502    0  0.00000000000E+00 -0.00000000000E+00 -0.20393088747E+03  0.20393088747E+03  0.00000000000E+00 0. -1.
         23    2    1    2    0    0  0.53741600323E+02  0.35115782381E+01  0.12285908104E+03  0.16223209988E+03  0.91238202805E+02 0.  0.
         24    2    1    2    0    0 -0.59597172875E+02  0.16386775907E+02 -0.17413441144E+03  0.19255126252E+03  0.54155756948E+02 0.  0.
        -11    1    4    4    0    0 -0.12017116622E+02 -0.19038921648E+02 -0.40369829243E+02  0.46223530183E+02  0.00000000000E+00 0.  1.
         12    1    4    4    0    0 -0.47580056254E+02  0.35425697555E+02 -0.13376458220E+03  0.14632773234E+03  0.00000000000E+00 0. -1.
        -13    1    3    3    0    0  0.67468718868E+02  0.31064466607E+02  0.76880484558E+02  0.10690013104E+03  0.00000000000E+00 0.  1.
         13    1    3    3    0    0 -0.13727118545E+02 -0.27552888369E+02  0.45978596480E+02  0.55331968836E+02  0.00000000000E+00 0. -1.
         21    1    1    2  502  501  0.58555725525E+01 -0.19898354145E+02  0.11840312558E+03  0.12020620772E+03  0.00000000000E+00 0.  1.
<scales pt_clust_5="13000.00000" pt_clust_6="13000.00000" pt_clust_7="13000.00000" pt_clust_8="13000.00000" pt_clust_9="20.74204"></scales>
<clustering>
<clus scale="   20.742">  1  9  2 -1</clus>
<clus scale="   54.156">  5  6 -1 -1</clus>
<clus scale="   81.688">  2  5  1 -1</clus>
<clus scale="   91.238">  7  8 -1 -1</clus>
<clus scale="   81.688">  2  5  1 -1</clus>
</clustering>
</event>
<event>
 9    2  0.5608219E-005  0.9683975E+02  0.7546771E-02  0.1292910E+00
         -1   -1    0    0    0  501 -0.00000000000E+00  0.00000000000E+00  0.16276263791E+03  0.16276263791E+03  0.00000000000E+00 0.  1.
          2   -1    0    0  502    0  0.00000000000E+00 -0.00000000000E+00 -0.28507709671E+03  0.28507709671E+03  0.00000000000E+00 0. -1.
         23    2    1    2    0    0  0.39175808140E+02 -0.89158718409E+01  0.65009967014E+01  0.99987912239E+02  0.91329529298E+02 0.  0.
         24    2    1    2    0    0 -0.10053355902E+02  0.32112371102E+02 -0.22679046292E+03  0.24304105537E+03  0.80639730784E+02 0.  0.
        -11    1    4    4    0    0 -0.18536325178E+02  0.23962037161E+02 -0.20876525152E+02  0.36791356029E+02  0.00000000000E+00 0.  1.
         12    1    4    4    0    0  0.84829692767E+01  0.81503339408E+01 -0.20591393776E+03  0.20624969934E+03  0.00000000000E+00 0. -1.
        -11    1    3    3    0    0 -0.27106651642E+02 -0.79734528430E+01  0.16846879530E+02  0.32896259109E+02  0.00000000000E+00 0.  1.
         11    1    3    3    0    0  0.66282459782E+02 -0.94241899786E+00 -0.10345882828E+02  0.67091653131E+02  0.00000000000E+00 0. -1.
         21    1    1    2  502  501 -0.29122452239E+02 -0.23196499261E+02  0.97975007415E+02  0.10481076701E+03  0.00000000000E+00 0.  1.
<scales pt_clust_5="13000.00000" pt_clust_6="13000.00000" pt_clust_7="13000.00000" pt_clust_8="13000.00000" pt_clust_9="37.23164"></scales>
<clustering>
<clus scale="   37.232">  1  9  2 -1</clus>
<clus scale="   80.640">  5  6 -1 -1</clus>
<clus scale="   86.831">  2  5  1 -1</clus>
<clus scale="   91.330">  7  8 -1 -1</clus>
<clus scale="   86.831">  2  5  1 -1</clus>
</clustering>
</event>
<event>
 9    2  0.5608219E-005  0.9169928E+02  0.7546771E-02  0.1305826E+00
         -1   -1    0    0    0  501 -0.00000000000E+00  0.00000000000E+00  0.23479877166E+03  0.23479877166E+03  0.00000000000E+00 0.  1.
          2   -1    0    0  502    0  0.00000000000E+00 -0.00000000000E+00 -0.16364524953E+03  0.16364524953E+03  0.00000000000E+00 0. -1.
         24    2    1    2    0    0 -0.48290114153E+01  0.28981313515E+02  0.51241165748E+02  0.99744509148E+02  0.80374586492E+02 0.  0.
         23    2    1    2    0    0  0.43090023157E+01  0.10386979496E+02 -0.12114807911E+03  0.15224754256E+03  0.91520491146E+02 0.  0.
        -13    1    3    3    0    0  0.32804223885E+02  0.34146822967E+02  0.24712661518E+02  0.53411967412E+02  0.00000000000E+00 0.  1.
         14    1    3    3    0    0 -0.37633235301E+02 -0.51655094523E+01  0.26528504230E+02  0.46332541737E+02  0.00000000000E+00 0. -1.
        -13    1    4    4    0    0  0.34249546282E+02  0.37121360226E+02 -0.53407161050E+02  0.73507493884E+02  0.00000000000E+00 0.  1.
         13    1    4    4    0    0 -0.29940543967E+02 -0.26734380730E+02 -0.67740918060E+02  0.78740048677E+02  0.00000000000E+00 0. -1.
         21    1    1    2  502  501  0.52000909957E+00 -0.39368293011E+02  0.14106043549E+03  0.14645196948E+03  0.00000000000E+00 0.  1.
<scales pt_clust_5="13000.00000" pt_clust_6="13000.00000" pt_clust_7="13000.00000" pt_clust_8="13000.00000" pt_clust_9="39.37173"></scales>
<clustering>
<clus scale="   39.372">  1  9  2 -1</clus>
<clus scale="   80.375">  5  6 -1 -1</clus>
<clus scale="   80.578">  1  5  2 -1</clus>
<clus scale="   91.520">  7  8 -1 -1</clus>
<clus scale="   91.699">  2  5  1 -1</clus>
</clustering>
</event>
<event>
 9    2  0.5608219E-005  0.1038684E+03  0.7546771E-02  0.1274410E+00
         -1   -1    0    0    0  501 -0.00000000000E+00  0.00000000000E+00  0.13620075452E+03  0.13620075452E+03  0.00000000000E+00 0.  1.
          2   -1    0    0  502    0  0.00000000000E+00 -0.00000000000E+00 -0.39467256003E+03  0.39467256003E+03  0.00000000000E+00 0. -1.
         23    2    1    2    0    0 -0.12651579761E+01 -0.51479252167E+02  0.10004601518E+03  0.14425082529E+03  0.90262846259E+02 0.  0.
         24    2    1    2    0    0  0.39096764928E+02  0.48120143786E+02 -0.28280158130E+03  0.30191438455E+03  0.85623921576E+02 0.  0.
        -11    1    4    4    0    0  0.50007977633E+02  0.43052808493E+02 -0.10706621481E+03  0.12576770849E+03  0.00000000000E+00 0.  1.
         12    1    4    4    0    0 -0.10911212705E+02  0.50673352925E+01 -0.17573536650E+03  0.17614667606E+03  0.00000000000E+00 0. -1.
        -11    1    3    3    0    0 -0.39241549020E+02 -0.52146226998E+02  0.70985636573E+02  0.96426597779E+02  0.00000000000E+00 0.  1.
         11    1    3    3    0    0  0.37976391044E+02  0.66697483046E+00  0.29060378612E+02  0.47824227513E+02  0.00000000000E+00 0. -1.
         21    1    1    2  502  501 -0.37831606952E+02  0.33591083819E+01 -0.75716239392E+02  0.84708104697E+02  0.00000000000E+00 0.  1.
<scales pt_clust_5="13000.00000" pt_clust_6="13000.00000" pt_clust_7="13000.00000" pt_clust_8="13000.00000" pt_clust_9="37.98044"></scales>
<clustering>
<clus scale="   37.980">  2  9  1 -1</clus>
<clus scale="   85.624">  5  6 -1 -1</clus>
<clus scale="   90.263">  7  8 -1 -1</clus>
<clus scale="   99.863">  2  5  1 -1</clus>
<clus scale="   37.980">  2  5  1 -1</clus>
</clustering>
</event>
<event>
 9    2  0.5608219E-005  0.9514914E+02  0.7546771E-02  0.1296509E+00
          2   -1    0    0  502    0  0.00000000000E+00  0.00000000000E+00  0.59844608103E+02  0.59844608103E+02  0.00000000000E+00 0. -1.
         -1   -1    0    0    0  501 -0.00000000000E+00 -0.00000000000E+00 -0.25235912471E+03  0.25235912471E+03  0.00000000000E+00 0.  1.
         23    2    1    2    0    0  0.23617011058E+02  0.74613554349E+02 -0.96692564859E+02  0.14055214768E+03  0.65425594501E+02 0.  0.
         24    2    1    2    0    0  0.41132856788E+01 -0.44605801862E+02 -0.30403663692E+02  0.94521908747E+02  0.77481686794E+02 0.  0.
        -11    1    4    4    0    0  0.58015000927E+01 -0.30529817674E+02 -0.56694195603E+02  0.64652602311E+02  0.00000000000E+00 0.  1.
         12    1    4    4    0    0 -0.16882144139E+01 -0.14075984187E+02  0.26290531911E+02  0.29869306435E+02  0.00000000000E+00 0. -1.
        -11    1    3    3    0    0 -0.80392622099E+01  0.62210380156E+02 -0.82670812107E+02  0.10377487321E+03  0.00000000000E+00 0.  1.
         11    1    3    3    0    0  0.31656273268E+02  0.12403174193E+02 -0.14021752752E+02  0.36777274471E+02  0.00000000000E+00 0. -1.
         21    1    1    2  502  501 -0.27730296737E+02 -0.30007752487E+02 -0.65418288055E+02  0.77129676380E+02  0.00000000000E+00 0. -1.
<scales pt_clust_5="13000.00000" pt_clust_6="13000.00000" pt_clust_7="13000.00000" pt_clust_8="13000.00000" pt_clust_9="40.85871"></scales>
<clustering>
<clus scale="   40.859">  2  9  1 -1</clus>
<clus scale="   65.426">  7  8 -1 -1</clus>
<clus scale="   77.482">  5  6 -1 -1</clus>
<clus scale="   85.618">  2  7  1 -1</clus>
<clus scale="   95.149">  1  5  2 -1</clus>
</clustering>
</event>
<event>
 9    2  0.5608219E-005  0.9488471E+02  0.7546771E-02  0.1297393E+00
         -1   -1    0    0    0  501 -0.00000000000E+00  0.00000000000E+00  0.10422806050E+03  0.10422806050E+03  0.00000000000E+00 0.  1.
          2   -1    0    0  502    0  0.00000000000E+00 -0.00000000000E+00 -0.84218884059E+03  0.84218884059E+03  0.00000000000E+00 0. -1.
         23    2    1    2    0    0  0.37488096223E+02 -0.10610739615E+02  0.49165756034E+02  0.11055518350E+03  0.91034234649E+02 0.  0.
         24    2    1    2    0    0 -0.18408643522E+02  0.19143023713E+02 -0.80432780065E+03  0.80879312161E+03  0.80608741169E+02 0.  0.
        -13    1    4    4    0    0 -0.19505394568E+02 -0.91489719610E+01 -0.57102903618E+02  0.61032005594E+02  0.00000000000E+00 0.  1.
         14    1    4    4    0    0  0.10967510462E+01  0.28291995674E+02 -0.74722489703E+03  0.74776111602E+03  0.00000000000E+00 0. -1.
        -13    1    3    3    0    0  0.23530057609E+02  0.23304111256E+02 -0.15227517126E+02  0.36450274215E+02  0.00000000000E+00 0. -1.
         13    1    3    3    0    0  0.13958038614E+02 -0.33914850871E+02  0.64393273160E+02  0.74104909282E+02  0.00000000000E+00 0.  1.
         21    1    1    2  502  501 -0.19079452701E+02 -0.85322840978E+01  0.17201264529E+02  0.27068595987E+02  0.00000000000E+00 0. -1.
<scales pt_clust_5="13000.00000" pt_clust_6="13000.00000" pt_clust_7="13000.00000" pt_clust_8="13000.00000" pt_clust_9="20.90037"></scales>
<clustering>
<clus scale="   20.900">  1  9  2 -1</clus>
<clus scale="   80.609">  5  6 -1 -1</clus>
<clus scale="   84.933">  2  5  1 -1</clus>
<clus scale="   91.034">  7  8 -1 -1</clus>
<clus scale="   84.933">  2  5  1 -1</clus>
</clustering>
</event>
<event>
 9    2  0.5608219E-005  0.1127656E+03  0.7546771E-02  0.1260977E+00
          2   -1    0    0  502    0  0.00000000000E+00  0.00000000000E+00  0.24736810573E+03  0.24736810573E+03  0.00000000000E+00 0. -1.
         -1   -1    0    0    0  501 -0.00000000000E+00 -0.00000000000E+00 -0.93538856542E+02  0.93538856542E+02  0.00000000000E+00 0.  1.
         23    2    1    2    0    0  0.37086292658E+02  0.25211899425E+02  0.32165225223E+02  0.10789876205E+03  0.92717356324E+02 0.  0.
         24    2    1    2    0    0 -0.67410855049E+02 -0.28145242204E+02  0.15463385589E+03  0.18811729466E+03  0.78358848419E+02 0.  0.
        -13    1    4    4    0    0 -0.25529580191E+02  0.25542441700E+02  0.75697643719E+02  0.83870787867E+02  0.00000000000E+00 0.  1.
         14    1    4    4    0    0 -0.41881274857E+02 -0.53687683904E+02  0.78936212173E+02  0.10424650680E+03  0.00000000000E+00 0. -1.
        -13    1    3    3    0    0 -0.12478543099E+02  0.21728959645E+02 -0.22748112322E+02  0.33842847684E+02  0.00000000000E+00 0.  1.
         13    1    3    3    0    0  0.49564835756E+02  0.34829397799E+01  0.54913337545E+02  0.74055914371E+02  0.00000000000E+00 0. -1.
         21    1    1    2  502  501  0.30324562391E+02  0.29333427792E+01 -0.32969831929E+02  0.44890905554E+02  0.00000000000E+00 0.  1.
<scales pt_clust_5="13000.00000" pt_clust_6="13000.00000" pt_clust_7="13000.00000" pt_clust_8="13000.00000" pt_clust_9="30.46611"></scales>
<clustering>
<clus scale="   30.466">  2  9  1 -1</clus>
<clus scale="   78.359">  5  6 -1 -1</clus>
<clus scale="   92.717">  7  8 -1 -1</clus>
<clus scale="  101.290">  1  5  2 -1</clus>
<clus scale="  101.290">  1  5  2 -1</clus>
</clustering>
</event>
<event>
 9    2  0.5608219E-005  0.2179471E+03  0.7546771E-02  0.1164103E+00
          2   -1    0    0  502    0  0.00000000000E+00  0.00000000000E+00  0.72551236791E+03  0.72551236791E+03  0.00000000000E+00 0. -1.
         -1   -1    0    0    0  501 -0.00000000000E+00 -0.00000000000E+00 -0.12820514375E+03  0.12820514375E+03  0.00000000000E+00 0.  1.
         24    2    1    2    0    0 -0.16107891179E+03 -0.62838159244E+02  0.13545872371E+03  0.23484518867E+03  0.83115261736E+02 0.  0.
         23    2    1    2    0    0 -0.47505150269E+02 -0.37284447934E+02  0.33978880106E+03  0.35728024049E+03  0.92443883305E+02 0.  0.
        -13    1    3    3    0    0 -0.94743468803E+02 -0.70669929191E+02  0.55271547949E+02  0.13048182933E+03  0.00000000000E+00 0.  1.
         14    1    3    3    0    0 -0.66335442983E+02  0.78317699466E+01  0.80187175766E+02  0.10436335934E+03  0.00000000000E+00 0. -1.
        -11    1    4    4    0    0 -0.20796792794E+02 -0.67182437525E+02  0.21764306277E+03  0.22872360891E+03  0.00000000000E+00 0.  1.
         11    1    4    4    0    0 -0.26708357474E+02  0.29897989591E+02  0.12214573829E+03  0.12855663158E+03  0.00000000000E+00 0. -1.
         21    1    1    2  502  501  0.20858406205E+03  0.10012260718E+03  0.12205969939E+03  0.26159208250E+03  0.00000000000E+00 0. -1.
<scales pt_clust_5="13000.00000" pt_clust_6="13000.00000" pt_clust_7="13000.00000" pt_clust_8="13000.00000" pt_clust_9="201.47652"></scales>
<clustering>
<clus scale="   83.115">  5  6 -1 -1</clus>
<clus scale="   92.444">  7  8 -1 -1</clus>
<clus scale="  110.421">  1  7  2 -1</clus>
<clus scale="  201.477">  1  9  2 -1</clus>
<clus scale="  110.421">  1  5  2 -1</clus>
</clustering>
</event>
<event>
 9    2  0.5608219E-005  0.1177621E+03  0.7546771E-02  0.1247290E+00
          4   -1    0    0  502    0  0.00000000000E+00  0.00000000000E+00  0.82275433971E+02  0.82275433971E+02  0.00000000000E+00 0. -1.
         -3   -1    0    0    0  501 -0.00000000000E+00 -0.00000000000E+00 -0.20697523542E+03  0.20697523542E+03  0.00000000000E+00 0.  1.
         24    2    1    2    0    0 -0.59929323913E+02 -0.19241047696E+02 -0.60401363394E+02  0.12519747245E+03  0.89801673859E+02 0.  0.
         23    2    1    2    0    0  0.78382755633E+02  0.34966158865E+02 -0.45007155466E+02  0.13306994586E+03  0.91189241699E+02 0.  0.
        -13    1    3    3    0    0 -0.53354542881E+02  0.12985527097E+02 -0.71797016288E+02  0.90388841722E+02  0.00000000000E+00 0.  1.
         14    1    3    3    0    0 -0.65747810327E+01 -0.32226574793E+02  0.11395652894E+02  0.34808630732E+02  0.00000000000E+00 0. -1.
        -11    1    4    4    0    0  0.97182102410E+02  0.17998782522E+02 -0.42623354150E+02  0.10763395152E+03  0.00000000000E+00 0.  1.
         11    1    4    4    0    0 -0.18799346778E+02  0.16967376343E+02 -0.23838013157E+01  0.25435994338E+02  0.00000000000E+00 0. -1.
         21    1    1    2  502  501 -0.18453431719E+02 -0.15725111168E+02 -0.19291282592E+02  0.30983251080E+02  0.00000000000E+00 0.  1.
<scales pt_clust_5="13000.00000" pt_clust_6="13000.00000" pt_clust_7="13000.00000" pt_clust_8="13000.00000" pt_clust_9="24.24476"></scales>
<clustering>
<clus scale="   24.245">  2  9  1 -1</clus>
<clus scale="   89.802">  5  6 -1 -1</clus>
<clus scale="   91.189">  7  8 -1 -1</clus>
<clus scale="  116.691">  2  5  1 -1</clus>
<clus scale="  117.762">  1  5  2 -1</clus>
</clustering>
</event>
<event>
 9    2  0.5608219E-005  0.1833639E+03  0.7546771E-02  0.1165948E+00
         -1   -1    0    0    0  501 -0.00000000000E+00  0.00000000000E+00  0.18166831937E+03  0.18166831937E+03  0.00000000000E+00 0.  1.
          2   -1    0    0  502    0  0.00000000000E+00 -0.00000000000E+00 -0.30019519298E+03  0.30019519298E+03  0.00000000000E+00 0. -1.
         23    2    1    2    0    0  0.31217307791E+00 -0.17783391466E+03 -0.55582595538E+02  0.20807722831E+03  0.92637515940E+02 0.  0.
         24    2    1    2    0    0 -0.51273694116E+02  0.14073323723E+03 -0.10314700907E+03  0.19902134257E+03  0.80841533556E+02 0.  0.
        -13    1    4    4    0    0 -0.35470116970E+02  0.38368145235E+02  0.82905660311E+00  0.52258311315E+02  0.00000000000E+00 0.  1.
         14    1    4    4    0    0 -0.15803577146E+02  0.10236509200E+03 -0.10397606567E+03  0.14676303125E+03  0.00000000000E+00 0. -1.
        -11    1    3    3    0    0  0.17846520789E+02 -0.87705805929E+02  0.16915939548E+02  0.91087626540E+02  0.00000000000E+00 0.  1.
         11    1    3    3    0    0 -0.17534347711E+02 -0.90128108734E+02 -0.72498535085E+02  0.11698960177E+03  0.00000000000E+00 0. -1.
         21    1    1    2  502  501  0.50961521038E+02  0.37100677428E+02  0.40202731000E+02  0.74764941463E+02  0.00000000000E+00 0.  1.
<scales pt_clust_5="13000.00000" pt_clust_6="13000.00000" pt_clust_7="13000.00000" pt_clust_8="13000.00000" pt_clust_9="63.03600"></scales>
<clustering>
<clus scale="   63.036">  1  9  2 -1</clus>
<clus scale="   80.842">  5  6 -1 -1</clus>
<clus scale="   92.638">  7  8 -1 -1</clus>
<clus scale="  177.696">  2  5  1 -1</clus>
<clus scale="  177.696">  2  5  1 -1</clus>
</clustering>
</event>
<event>
 9    2  0.5608219E-005  0.1285123E+03  0.7546771E-02  0.1232958E+00
         -1   -1    0    0    0  501 -0.00000000000E+00  0.00000000000E+00  0.74965980754E+02  0.74965980754E+02  0.00000000000E+00 0.  1.
          2   -1    0    0  502    0  0.00000000000E+00 -0.00000000000E+00 -0.48577978747E+03  0.48577978747E+03  0.00000000000E+00 0. -1.
         23    2    1    2    0    0  0.76761496311E+02  0.40200693155E+02 -0.59719041117E+01  0.12741701982E+03  0.93225587990E+02 0.  0.
         24    2    1    2    0    0 -0.66638345192E+02 -0.59090369239E+02 -0.38730375813E+03  0.40563606773E+03  0.81265476030E+02 0.  0.
        -13    1    4    4    0    0  0.26058363779E+01 -0.23221040789E+02 -0.21974016988E+02  0.32075918399E+02  0.00000000000E+00 0.  1.
         14    1    4    4    0    0 -0.69244181570E+02 -0.35869328450E+02 -0.36532974114E+03  0.37356014933E+03  0.00000000000E+00 0. -1.
        -11    1    3    3    0    0 -0.19547059934E+02  0.21678946341E+02 -0.21488381420E+01  0.29269126599E+02  0.00000000000E+00 0. -1.
         11    1    3    3    0    0  0.96308556245E+02  0.18521746813E+02 -0.38230659697E+01  0.98147893225E+02  0.00000000000E+00 0.  1.
         21    1    1    2  502  501 -0.10123151119E+02  0.18889676084E+02 -0.17538144476E+02  0.27692680672E+02  0.00000000000E+00 0.  1.
<scales pt_clust_5="13000.00000" pt_clust_6="13000.00000" pt_clust_7="13000.00000" pt_clust_8="13000.00000" pt_clust_9="21.43124"></scales>
<clustering>
<clus scale="   21.431">  1  9  2 -1</clus>
<clus scale="   81.265">  5  6 -1 -1</clus>
<clus scale="   93.226">  7  8 -1 -1</clus>
<clus scale="  120.119">  2  5  1 -1</clus>
<clus scale="  120.119">  2  5  1 -1</clus>
</clustering>
</event>
<event>
 9    2  0.5608219E-005  0.1038872E+03  0.7546771E-02  0.1274412E+00
         -1   -1    0    0    0  501 -0.00000000000E+00  0.00000000000E+00  0.20613487558E+03  0.20613487558E+03  0.00000000000E+00 0.  1.
          2   -1    0    0  502    0  0.00000000000E+00 -0.00000000000E+00 -0.36400869701E+03  0.36400869701E+03  0.00000000000E+00 0. -1.
         23    2    1    2    0    0 -0.18069530356E+02 -0.23013227119E+02 -0.15553645514E+02  0.92880280641E+02  0.86768162903E+02 0.  0.
         24    2    1    2    0    0 -0.19505981361E+02  0.63499255062E+02 -0.29586808522E+03  0.31408241688E+03  0.81836434652E+02 0.  0.
        -11    1    4    4    0    0 -0.39353292881E+02  0.38320337119E+01 -0.15227094190E+03  0.15732071030E+03  0.00000000000E+00 0.  1.
         12    1    4    4    0    0  0.19847311520E+02  0.59667221350E+02 -0.14359714332E+03  0.15676170658E+03  0.00000000000E+00 0. -1.
        -11    1    3    3    0    0 -0.29260105734E+02 -0.49265977850E+02  0.52854809501E+01  0.57543259119E+02  0.00000000000E+00 0.  1.
         11    1    3    3    0    0  0.11190575378E+02  0.26252750732E+02 -0.20839126464E+02  0.35337021523E+02  0.00000000000E+00 0. -1.
         21    1    1    2  502  501  0.37575511717E+02 -0.40486027944E+02  0.15354790930E+03  0.16318087508E+03  0.00000000000E+00 0.  1.
<scales pt_clust_5="13000.00000" pt_clust_6="13000.00000" pt_clust_7="13000.00000" pt_clust_8="13000.00000" pt_clust_9="55.23620"></scales>
<clustering>
<clus scale="   55.236">  1  9  2 -1</clus>
<clus scale="   81.836">  5  6 -1 -1</clus>
<clus scale="   86.768">  7  8 -1 -1</clus>
<clus scale="   99.805">  2  5  1 -1</clus>
<clus scale="   99.805">  2  5  1 -1</clus>
</clustering>
</event>
<event>
 9    2  0.5608219E-005  0.1149888E+03  0.7546771E-02  0.1256010E+00
          2   -1    0    0  502    0  0.00000000000E+00  0.00000000000E+00  0.60953163709E+03  0.60953163709E+03  0.00000000000E+00 0. -1.
         -1   -1    0    0    0  501 -0.00000000000E+00 -0.00000000000E+00 -0.41809216320E+02  0.41809216320E+02  0.00000000000E+00 0.  1.
         23    2    1    2    0    0  0.14553912928E+02 -0.35412933298E+02  0.16033378608E+03  0.18881021650E+03  0.92067815611E+02 0.  0.
         24    2    1    2    0    0 -0.95210055940E+01  0.88463561347E+02  0.38775835038E+03  0.40574113652E+03  0.79704958063E+02 0.  0.
        -11    1    4    4    0    0  0.15809575039E+02  0.12876538500E+02  0.17112474247E+02  0.26619253963E+02  0.00000000000E+00 0.  1.
         12    1    4    4    0    0 -0.25330580633E+02  0.75587022847E+02  0.37064587613E+03  0.37912188255E+03  0.00000000000E+00 0. -1.
        -11    1    3    3    0    0 -0.22345362641E+02 -0.33472104860E+02  0.14193918285E+03  0.14753449991E+03  0.00000000000E+00 0. -1.
         11    1    3    3    0    0  0.36899275569E+02 -0.19408284375E+01  0.18394603232E+02  0.41275716597E+02  0.00000000000E+00 0.  1.
         21    1    1    2  502  501 -0.50329073338E+01 -0.53050628049E+02  0.19630284315E+02  0.56789500394E+02  0.00000000000E+00 0.  1.
<scales pt_clust_5="13000.00000" pt_clust_6="13000.00000" pt_clust_7="13000.00000" pt_clust_8="13000.00000" pt_clust_9="53.28883"></scales>
<clustering>
<clus scale="   53.289">  2  9  1 -1</clus>
<clus scale="   79.705">  5  6 -1 -1</clus>
<clus scale="   92.068">  7  8 -1 -1</clus>
<clus scale="  105.351">  1  5  2 -1</clus>
<clus scale="  105.351">  1  5  2 -1</clus>
</clustering>
</event>
<event>
 9    2  0.5608219E-005  0.1043442E+03  0.7546771E-02  0.1273032E+00
         -1   -1    0    0    0  501 -0.00000000000E+00  0.00000000000E+00  0.39968137704E+02  0.39968137704E+02  0.00000000000E+00 0.  1.
          2   -1    0    0  502    0  0.00000000000E+00 -0.00000000000E+00 -0.62943585310E+03  0.62943585310E+03  0.00000000000E+00 0. -1.
         24    2    1    2    0    0 -0.57550545581E+00  0.15398593804E+02 -0.50493480882E+02  0.10171276326E+03  0.86939327700E+02 0.  0.
         23    2    1    2    0    0 -0.10512999293E+02 -0.59387856064E+02 -0.48554265096E+03  0.49759882958E+03  0.90639333036E+02 0.  0.
        -11    1    3    3    0    0  0.12309263128E+01  0.50951446124E+02 -0.19691684106E+02  0.54638150268E+02  0.00000000000E+00 0.  1.
         12    1    3    3    0    0 -0.18064317687E+01 -0.35552852320E+02 -0.30801796776E+02  0.47074612993E+02  0.00000000000E+00 0. -1.
        -11    1    4    4    0    0  0.21250889640E+02 -0.71606026395E+02 -0.34524796978E+03  0.35323530962E+03  0.00000000000E+00 0. -1.
         11    1    4    4    0    0 -0.31763888933E+02  0.12218170331E+02 -0.14029468118E+03  0.14436351996E+03  0.00000000000E+00 0.  1.
         21    1    1    2  502  501  0.11088504749E+02  0.43989262260E+02 -0.53431583560E+02  0.70092397972E+02  0.00000000000E+00 0.  1.
<scales pt_clust_5="13000.00000" pt_clust_6="13000.00000" pt_clust_7="13000.00000" pt_clust_8="13000.00000" pt_clust_9="45.36530"></scales>
<clustering>
<clus scale="   45.365">  1  9  2 -1</clus>
<clus scale="   86.939">  5  6 -1 -1</clus>
<clus scale="   90.639">  7  8 -1 -1</clus>
<clus scale="  101.147">  1  5  2 -1</clus>
<clus scale="  104.344">  2  5  1 -1</clus>
</clustering>
</event>
<event>
 9    2  0.5608219E-005  0.1581493E+03  0.7546771E-02  0.1211147E+00
         -1   -1    0    0    0  501 -0.00000000000E+00  0.00000000000E+00  0.16854145063E+03  0.16854145063E+03  0.00000000000E+00 0.  1.
          2   -1    0    0  502    0  0.00000000000E+00 -0.00000000000E+00 -0.27465212221E+03  0.27465212221E+03  0.00000000000E+00 0. -1.
         23    2    1    2    0    0 -0.39421593229E+02  0.84594596717E+02 -0.25500518653E+02  0.13434729128E+03  0.93212715954E+02 0.  0.
         24    2    1    2    0    0 -0.21144366068E+02  0.58454437971E+02 -0.11098939158E+03  0.15056122260E+03  0.80535899900E+02 0.  0.
        -11    1    4    4    0    0  0.16818471523E+02  0.38896573952E+02 -0.14071705880E+02  0.44652181984E+02  0.00000000000E+00 0.  1.
         12    1    4    4    0    0 -0.37962837592E+02  0.19557864019E+02 -0.96917685695E+02  0.10590904061E+03  0.00000000000E+00 0. -1.
        -11    1    3    3    0    0 -0.66215716770E+02  0.54343954843E+02 -0.35487451321E+02  0.92720794736E+02  0.00000000000E+00 0.  1.
         11    1    3    3    0    0  0.26794123541E+02  0.30250641873E+02  0.99869326680E+01  0.41626496540E+02  0.00000000000E+00 0. -1.
         21    1    1    2  502  501  0.60565959297E+02 -0.14304903469E+03  0.30379238644E+02  0.15828505896E+03  0.00000000000E+00 0.  1.
<scales pt_clust_5="13000.00000" pt_clust_6="13000.00000" pt_clust_7="13000.00000" pt_clust_8="13000.00000" pt_clust_9="127.75987"></scales>
<clustering>
<clus scale="   80.536">  5  6 -1 -1</clus>
<clus scale="   93.213">  7  8 -1 -1</clus>
<clus scale="  101.735">  2  5  1 -1</clus>
<clus scale="  127.760">  1  9  2 -1</clus>
<clus scale="  101.735">  2  5  1 -1</clus>
</clustering>
</event>
<event>
 9    2  0.5608219E-005  0.9367915E+02  0.7546771E-02  0.1302171E+00
         -1   -1    0    0    0  501 -0.00000000000E+00  0.00000000000E+00  0.28938574190E+02  0.28938574190E+02  0.00000000000E+00 0.  1.
          2   -1    0    0  502    0  0.00000000000E+00 -0.00000000000E+00 -0.82554564934E+03  0.82554564934E+03  0.00000000000E+00 0. -1.
         23    2    1    2    0    0  0.93451304364E+01 -0.29968303468E+02 -0.79507320132E+02  0.12639851575E+03  0.93111439440E+02 0.  0.
         24    2    1    2    0    0  0.74787441228E+01  0.61766034876E+01 -0.64915048576E+03  0.65415201494E+03  0.80152501195E+02 0.  0.
        -13    1    4    4    0    0 -0.28662946519E+02 -0.93760059789E+01 -0.12742713715E+03  0.13094712396E+03  0.00000000000E+00 0.  1.
         14    1    4    4    0    0  0.36141690642E+02  0.15552609467E+02 -0.52172334861E+03  0.52320489099E+03  0.00000000000E+00 0. -1.
        -11    1    3    3    0    0  0.47736151549E+02 -0.25929882485E+02 -0.25494179765E+02  0.60008767461E+02  0.00000000000E+00 0. -1.
         11    1    3    3    0    0 -0.38391021112E+02 -0.40384209831E+01 -0.54013140367E+02  0.66389748293E+02  0.00000000000E+00 0.  1.
         21    1    1    2  502  501 -0.16823874559E+02  0.23791699980E+02 -0.67949269261E+02  0.73933692835E+02  0.00000000000E+00 0.  1.
<scales pt_clust_5="13000.00000" pt_clust_6="13000.00000" pt_clust_7="13000.00000" pt_clust_8="13000.00000" pt_clust_9="29.13911"></scales>
<clustering>
<clus scale="   29.139">  1  9  2 -1</clus>
<clus scale="   80.153">  5  6 -1 -1</clus>
<clus scale="   80.811">  2  5  1 -1</clus>
<clus scale="   93.111">  7  8 -1 -1</clus>
<clus scale="   80.811">  2  5  1 -1</clus>
</clustering>
</event>
<event>
 9    2  0.5608219E-005  0.1019850E+03  0.7546771E-02  0.1279292E+00
          2   -1    0    0  502    0  0.00000000000E+00  0.00000000000E+00  0.28682174859E+03  0.28682174859E+03  0.00000000000E+00 0. -1.
         -1   -1    0    0    0  501 -0.00000000000E+00 -0.00000000000E+00 -0.22063889965E+03  0.22063889965E+03  0.00000000000E+00 0.  1.
         24    2    1    2    0    0  0.50090913771E+02  0.43935947778E+01 -0.12419402613E+03  0.15595336651E+03  0.79805344946E+02 0.  0.
         23    2    1    2    0    0 -0.40802763020E+02  0.36623433488E+02  0.25472223308E+03  0.27463731717E+03  0.86810705587E+02 0.  0.
        -11    1    3    3    0    0  0.59287708547E+02  0.26183678331E+02 -0.11185814091E+03  0.12927823128E+03  0.00000000000E+00 0.  1.
         12    1    3    3    0    0 -0.91967947761E+01 -0.21790083553E+02 -0.12335885227E+02  0.26675135234E+02  0.00000000000E+00 0. -1.
        -13    1    4    4    0    0  0.25944403564E+02 -0.27766572853E+00  0.76550801908E+02  0.80828302267E+02  0.00000000000E+00 0.  1.
         13    1    4    4    0    0 -0.66747166585E+02  0.36901099217E+02  0.17817143118E+03  0.19380901490E+03  0.00000000000E+00 0. -1.
         21    1    1    2  502  501 -0.92881507503E+01 -0.41017028266E+02 -0.64345358015E+02  0.76869964552E+02  0.00000000000E+00 0. -1.
<scales pt_clust_5="13000.00000" pt_clust_6="13000.00000" pt_clust_7="13000.00000" pt_clust_8="13000.00000" pt_clust_9="42.05552"></scales>
<clustering>
<clus scale="   42.056">  2  9  1 -1</clus>
<clus scale="   79.805">  5  6 -1 -1</clus>
<clus scale="   86.811">  7  8 -1 -1</clus>
<clus scale="   96.092">  2  5  1 -1</clus>
<clus scale="  101.985">  1  5  2 -1</clus>
</clustering>
</event>
<event>
 9    2  0.5608219E-005  0.1117036E+03  0.7546771E-02  0.1261966E+00
         -1   -1    0    0    0  501 -0.00000000000E+00  0.00000000000E+00  0.45386577924E+03  0.45386577924E+03  0.00000000000E+00 0.  1.
          2   -1    0    0  502    0  0.00000000000E+00 -0.00000000000E+00 -0.10610041706E+03  0.10610041706E+03  0.00000000000E+00 0. -1.
         24    2    1    2    0    0  0.12063810900E+03  0.15736650387E+02  0.31385857035E+03  0.34607444238E+03  0.80368662930E+02 0.  0.
         23    2    1    2    0    0 -0.50159328317E+02 -0.26989176336E+02 -0.35835619252E+02  0.11410256728E+03  0.92145702001E+02 0.  0.
        -11    1    3    3    0    0  0.73263334439E+02  0.48536872383E+02  0.20037712634E+03  0.21880204961E+03  0.00000000000E+00 0.  1.
         12    1    3    3    0    0  0.47374774561E+02 -0.32800221996E+02  0.11348144401E+03  0.12727239277E+03  0.00000000000E+00 0. -1.
        -11    1    4    4    0    0 -0.30201949088E+02 -0.29752511453E+02 -0.65631810329E+02  0.78133886333E+02  0.00000000000E+00 0. -1.
         11    1    4    4    0    0 -0.19957379229E+02  0.27633351168E+01  0.29796191077E+02  0.35968680951E+02  0.00000000000E+00 0.  1.
         21    1    1    2  502  501 -0.70478780683E+02  0.11252525949E+02  0.69742411085E+02  0.99789186642E+02  0.00000000000E+00 0.  1.
<scales pt_clust_5="13000.00000" pt_clust_6="13000.00000" pt_clust_7="13000.00000" pt_clust_8="13000.00000" pt_clust_9="71.37141"></scales>
<clustering>
<clus scale="   71.371">  1  9  2 -1</clus>
<clus scale="   80.369">  5  6 -1 -1</clus>
<clus scale="   92.146">  7  8 -1 -1</clus>
<clus scale="  102.206">  1  5  2 -1</clus>
<clus scale="  111.704">  2  5  1 -1</clus>
</clustering>
</event>
<event>
 9    2  0.5608219E-005  0.1195556E+03  0.7546771E-02  0.1245609E+00
         -1   -1    0    0    0  501 -0.00000000000E+00  0.00000000000E+00  0.23457292253E+02  0.23457292253E+02  0.00000000000E+00 0.  1.
          2   -1    0    0  502    0  0.00000000000E+00 -0.00000000000E+00 -0.84274976382E+03  0.84274976382E+03  0.00000000000E+00 0. -1.
         23    2    1    2    0    0 -0.25514382776E+02 -0.73122577165E+02 -0.34369650798E+03  0.36285072875E+03  0.86807066149E+02 0.  0.
         24    2    1    2    0    0  0.10128821696E+02  0.86154133709E+02 -0.46630141966E+03  0.48115440168E+03  0.80916107743E+02 0.  0.
        -11    1    4    4    0    0  0.11736179715E+02  0.44404314612E+02 -0.77297567905E+02  0.89913264174E+02  0.00000000000E+00 0.  1.
         12    1    4    4    0    0 -0.16073580190E+01  0.41749819098E+02 -0.38900385176E+03  0.39124113750E+03  0.00000000000E+00 0. -1.
        -13    1    3    3    0    0  0.14563667668E+02 -0.68547239414E+02 -0.26877178802E+03  0.27775726540E+03  0.00000000000E+00 0.  1.
         13    1    3    3    0    0 -0.40078050445E+02 -0.45753377507E+01 -0.74924719968E+02  0.85093463352E+02  0.00000000000E+00 0. -1.
         21    1    1    2  502  501  0.15385561081E+02 -0.13031556544E+02 -0.92945439229E+01  0.22201925648E+02  0.00000000000E+00 0.  1.
<scales pt_clust_5="13000.00000" pt_clust_6="13000.00000" pt_clust_7="13000.00000" pt_clust_8="13000.00000" pt_clust_9="20.16276"></scales>
<clustering>
<clus scale="   20.163">  1  9  2 -1</clus>
<clus scale="   80.916">  5  6 -1 -1</clus>
<clus scale="   86.807">  7  8 -1 -1</clus>
<clus scale="  115.349">  2  5  1 -1</clus>
<clus scale="  115.349">  2  5  1 -1</clus>
</clustering>
</event>
<event>
 9    2  0.5608219E-005  0.9142945E+02  0.7546771E-02  0.1305684E+00
         -1   -1    0    0    0  501 -0.00000000000E+00  0.00000000000E+00  0.14988859197E+03  0.14988859197E+03  0.00000000000E+00 0.  1.
          2   -1    0    0  502    0  0.00000000000E+00 -0.00000000000E+00 -0.73173723471E+02  0.73173723471E+02  0.00000000000E+00 0. -1.
         23    2    1    2    0    0  0.14617752545E+02 -0.39814694610E+01  0.71673582538E+02  0.11703822081E+03  0.91276020439E+02 0.  0.
         24    2    1    2    0    0  0.27086939350E+01 -0.83145950228E+01 -0.61084867781E+01  0.82030004081E+02  0.81333501373E+02 0.  0.
        -11    1    4    4    0    0  0.10115354360E+02 -0.35566473033E+02  0.21302397605E+02  0.42674190579E+02  0.00000000000E+00 0.  1.
         12    1    4    4    0    0 -0.74066604254E+01  0.27251878010E+02 -0.27410884383E+02  0.39355813502E+02  0.00000000000E+00 0. -1.
        -11    1    3    3    0    0 -0.73646747614E+01 -0.24514961586E+02  0.81474623283E+02  0.85401030527E+02  0.00000000000E+00 0.  1.
         11    1    3    3    0    0  0.21982427306E+02  0.20533492125E+02 -0.98010407452E+01  0.31637190280E+02  0.00000000000E+00 0. -1.
         21    1    1    2  502  501 -0.17326446480E+02  0.12296064484E+02  0.11149772741E+02  0.23994090555E+02  0.00000000000E+00 0.  1.
<scales pt_clust_5="13000.00000" pt_clust_6="13000.00000" pt_clust_7="13000.00000" pt_clust_8="13000.00000" pt_clust_9="21.24615"></scales>
<clustering>
<clus scale="   21.246">  1  9  2 -1</clus>
<clus scale="   81.334">  5  6 -1 -1</clus>
<clus scale="   81.506">  2  5  1 -1</clus>
<clus scale="   91.276">  7  8 -1 -1</clus>
<clus scale="   81.506">  2  5  1 -1</clus>
</clustering>
</event>
<event>
 9    2  0.5608219E-005  0.1032919E+03  0.7546771E-02  0.1276918E+00
         -1   -1    0    0    0  501 -0.00000000000E+00  0.00000000000E+00  0.19992084814E+03  0.19992084814E+03  0.00000000000E+00 0.  1.
          2   -1    0    0  502    0  0.00000000000E+00 -0.00000000000E+00 -0.13202994086E+03  0.13202994086E+03  0.00000000000E+00 0. -1.
         23    2    1    2    0    0  0.38691962745E+02  0.47819288156E+02  0.13703261783E+03  0.17563065191E+03  0.91018872992E+02 0.  0.
         24    2    1    2    0    0 -0.15596773778E+02 -0.44872750961E+02 -0.84869991661E+02  0.12822300802E+03  0.83554779460E+02 0.  0.
        -13    1    4    4    0    0 -0.16869494406E+02 -0.63489406234E+02 -0.33856148338E+02  0.73903473029E+02  0.00000000000E+00 0.  1.
         14    1    4    4    0    0  0.12727206279E+01  0.18616655273E+02 -0.51013843322E+02  0.54319534993E+02  0.00000000000E+00 0. -1.
        -11    1    3    3    0    0  0.34991043669E+02  0.69052576585E+02  0.67077873179E+02  0.10243081831E+03  0.00000000000E+00 0. -1.
         11    1    3    3    0    0  0.37009190758E+01 -0.21233288430E+02  0.69954744653E+02  0.73199833599E+02  0.00000000000E+00 0.  1.
         21    1    1    2  502  501 -0.23095188967E+02 -0.29465371946E+01  0.15728281110E+02  0.28097129063E+02  0.00000000000E+00 0. -1.
<scales pt_clust_5="13000.00000" pt_clust_6="13000.00000" pt_clust_7="13000.00000" pt_clust_8="13000.00000" pt_clust_9="23.28239"></scales>
<clustering>
<clus scale="   23.282">  1  9  2 -1</clus>
<clus scale="   83.555">  5  6 -1 -1</clus>
<clus scale="   91.019">  7  8 -1 -1</clus>
<clus scale="   96.779">  2  5  1 -1</clus>
<clus scale="   96.779">  2  5  1 -1</clus>
</clustering>
</event>
<event>
 9    2  0.5608219E-005  0.1306831E+03  0.7546771E-02  0.1238778E+00
          2   -1    0    0  502    0  0.00000000000E+00  0.00000000000E+00  0.45461026781E+03  0.45461026781E+03  0.00000000000E+00 0. -1.
         -1   -1    0    0    0  501 -0.00000000000E+00 -0.00000000000E+00 -0.39701239707E+03  0.39701239707E+03  0.00000000000E+00 0.  1.
         24    2    1    2    0    0 -0.14213784641E+02  0.12771231406E+01 -0.57350532547E+02  0.99703806652E+02  0.80300079453E+02 0.  0.
         23    2    1    2    0    0 -0.26780203460E+02  0.66017843155E+02  0.41770123111E+03  0.43907961147E+03  0.11506976936E+03 0.  0.
        -11    1    3    3    0    0 -0.23224675854E+02 -0.18210790360E+02  0.82784500705E+01  0.30652099270E+02  0.00000000000E+00 0.  1.
         12    1    3    3    0    0  0.90108912131E+01  0.19487913500E+02 -0.65628982618E+02  0.69051707383E+02  0.00000000000E+00 0. -1.
        -13    1    4    4    0    0 -0.15351510252E+02  0.84422488025E+02  0.40494996620E+03  0.41394117997E+03  0.00000000000E+00 0. -1.
         13    1    4    4    0    0 -0.11428693208E+02 -0.18404644870E+02  0.12751264917E+02  0.25138431498E+02  0.00000000000E+00 0.  1.
         21    1    1    2  502  501  0.40993988102E+02 -0.67294966296E+02 -0.30275282784E+03  0.31283924676E+03  0.00000000000E+00 0.  1.
<scales pt_clust_5="13000.00000" pt_clust_6="13000.00000" pt_clust_7="13000.00000" pt_clust_8="13000.00000" pt_clust_9="78.79797"></scales>
<clustering>
<clus scale="   78.798">  2  9  1 -1</clus>
<clus scale="   80.300">  5  6 -1 -1</clus>
<clus scale="  101.416">  2  5  1 -1</clus>
<clus scale="  115.070">  7  8 -1 -1</clus>
<clus scale="  130.683">  1  5  2 -1</clus>
</clustering>
</event>
<event>
 9    2  0.5608219E-005  0.1162882E+03  0.7546771E-02  0.1254128E+00
         -1   -1    0    0    0  501 -0.00000000000E+00  0.00000000000E+00  0.13186942702E+03  0.13186942702E+03  0.00000000000E+00 0.  1.
          2   -1    0    0  502    0  0.00000000000E+00 -0.00000000000E+00 -0.30184211771E+03  0.30184211771E+03  0.00000000000E+00 0. -1.
         24    2    1    2    0    0 -0.22304663652E+02 -0.61317491895E+02  0.81195059478E+02  0.12985991799E+03  0.77547583989E+02 0.  0.
         23    2    1    2    0    0  0.36003325893E+01  0.72894483667E+02 -0.25588262119E+03  0.28135476590E+03  0.91422209146E+02 0.  0.
        -13    1    3    3    0    0  0.25854308399E+02 -0.38312882747E+02  0.49780512230E+02  0.67929534409E+02  0.00000000000E+00 0.  1.
         14    1    3    3    0    0 -0.48158972051E+02 -0.23004609148E+02  0.31414547248E+02  0.61930383576E+02  0.00000000000E+00 0. -1.
        -11    1    4    4    0    0 -0.20760427584E+02  0.65258440133E+02 -0.24356504110E+03  0.25300906823E+03  0.00000000000E+00 0. -1.
         11    1    4    4    0    0  0.24360760174E+02  0.76360435337E+01 -0.12317580090E+02  0.28345697669E+02  0.00000000000E+00 0.  1.
         21    1    1    2  502  501  0.18704331062E+02 -0.11576991772E+02  0.47148710195E+01  0.22496860841E+02  0.00000000000E+00 0.  1.
<scales pt_clust_5="13000.00000" pt_clust_6="13000.00000" pt_clust_7="13000.00000" pt_clust_8="13000.00000" pt_clust_9="21.99724"></scales>
<clustering>
<clus scale="   21.997">  1  9  2 -1</clus>
<clus scale="   77.548">  5  6 -1 -1</clus>
<clus scale="   91.422">  7  8 -1 -1</clus>
<clus scale="  105.729">  1  5  2 -1</clus>
<clus scale="  116.288">  2  5  1 -1</clus>
</clustering>
</event>
<event>
 9    2  0.5608219E-005  0.9247617E+02  0.7546771E-02  0.1307546E+00
         -1   -1    0    0    0  501 -0.00000000000E+00  0.00000000000E+00  0.28371909819E+03  0.28371909819E+03  0.00000000000E+00 0.  1.
          2   -1    0    0  502    0  0.00000000000E+00 -0.00000000000E+00 -0.48142360547E+02  0.48142360547E+02  0.00000000000E+00 0. -1.
         23    2    1    2    0    0 -0.14580851930E+02 -0.41364648242E+02  0.14336974961E+03  0.17566070759E+03  0.91532309723E+02 0.  0.
         24    2    1    2    0    0  0.81564862888E+01 -0.33593850316E+01  0.34782585864E+02  0.83131786520E+02  0.74988345189E+02 0.  0.
        -13    1    4    4    0    0 -0.39830972284E+01 -0.31912050754E+02 -0.51428856278E+01  0.32568287020E+02  0.00000000000E+00 0.  1.
         14    1    4    4    0    0  0.12139583517E+02  0.28552665722E+02  0.39925471492E+02  0.50563499500E+02  0.00000000000E+00 0. -1.
        -13    1    3    3    0    0 -0.11795249387E+02 -0.63204566471E+02  0.13908999016E+03  0.15323175419E+03  0.00000000000E+00 0.  1.
         13    1    3    3    0    0 -0.27856025429E+01  0.21839918229E+02  0.42797594495E+01  0.22428953403E+02  0.00000000000E+00 0. -1.
         21    1    1    2  502  501  0.64243656409E+01  0.44724033273E+02  0.57424402169E+02  0.73068964620E+02  0.00000000000E+00 0. -1.
<scales pt_clust_5="13000.00000" pt_clust_6="13000.00000" pt_clust_7="13000.00000" pt_clust_8="13000.00000" pt_clust_9="45.18309"></scales>
<clustering>
<clus scale="   45.183">  1  9  2 -1</clus>
<clus scale="   74.988">  5  6 -1 -1</clus>
<clus scale="   76.138">  2  5  1 -1</clus>
<clus scale="   91.532">  7  8 -1 -1</clus>
<clus scale="   76.138">  2  5  1 -1</clus>
</clustering>
</event>
<event>
 9    2  0.5608219E-005  0.4135079E+03  0.7546771E-02  0.1043440E+00
          2   -1    0    0  502    0  0.00000000000E+00  0.00000000000E+00  0.77696028591E+03  0.77696028591E+03  0.00000000000E+00 0. -1.
         -1   -1    0    0    0  501 -0.00000000000E+00 -0.00000000000E+00 -0.11495116878E+04  0.11495116878E+04  0.00000000000E+00 0.  1.
         23    2    1    2    0    0  0.29662094508E+03  0.23484156751E+03 -0.67419879412E+03  0.77837574912E+03  0.90499977608E+02 0.  0.
         24    2    1    2    0    0  0.10134246221E+03  0.34209776457E+03 -0.41025490961E+02  0.36793049137E+03  0.79928595605E+02 0.  0.
        -13    1    4    4    0    0  0.98836915934E+02  0.34563805100E+03 -0.44681470142E+02  0.36225796337E+03  0.00000000000E+00 0.  1.
         14    1    4    4    0    0  0.25055462797E+01 -0.35402864252E+01  0.36559791805E+01  0.56725279991E+01  0.00000000000E+00 0. -1.
        -11    1    3    3    0    0  0.21320231989E+03  0.16916366987E+03 -0.55887844885E+03  0.62162424100E+03  0.00000000000E+00 0.  1.
         11    1    3    3    0    0  0.83418625193E+02  0.65677897635E+02 -0.11532034527E+03  0.15675150812E+03  0.00000000000E+00 0. -1.
         21    1    1    2  502  501 -0.39796340730E+03 -0.57693933208E+03  0.34267288318E+03  0.78016573323E+03  0.00000000000E+00 0. -1.
<scales pt_clust_5="13000.00000" pt_clust_6="13000.00000" pt_clust_7="13000.00000" pt_clust_8="13000.00000" pt_clust_9="403.48303"></scales>
<clustering>
<clus scale="   79.929">  5  6 -1 -1</clus>
<clus scale="   90.500">  7  8 -1 -1</clus>
<clus scale="  365.636">  1  5  2 -1</clus>
<clus scale="  403.483">  1  9  2 -1</clus>
<clus scale="  365.636">  1  5  2 -1</clus>
</clustering>
</event>
<event>
 9    2  0.5608219E-005  0.1614901E+03  0.7546771E-02  0.1189488E+00
         -1   -1    0    0    0  501 -0.00000000000E+00  0.00000000000E+00  0.53172058331E+02  0.53172058331E+02  0.00000000000E+00 0.  1.
          2   -1    0    0  502    0  0.00000000000E+00 -0.00000000000E+00 -0.84181419173E+03  0.84181419173E+03  0.00000000000E+00 0. -1.
         23    2    1    2    0    0  0.13568903870E+03 -0.60161661574E+02 -0.27993327355E+03  0.32974770240E+03  0.91323429912E+02 0.  0.
         24    2    1    2    0    0 -0.12213401727E+03  0.35586539958E+02 -0.51559305769E+03  0.53634101509E+03  0.75115666300E+02 0.  0.
        -11    1    4    4    0    0 -0.29205482819E+02  0.40343242460E+02 -0.11946845259E+03  0.12943434089E+03  0.00000000000E+00 0.  1.
         12    1    4    4    0    0 -0.92928534451E+02 -0.47567025020E+01 -0.39612460511E+03  0.40690667419E+03  0.00000000000E+00 0. -1.
        -11    1    3    3    0    0  0.23909769785E+02 -0.46303805029E+02 -0.43600066427E+02  0.67946193740E+02  0.00000000000E+00 0.  1.
         11    1    3    3    0    0  0.11177926892E+03 -0.13857856545E+02 -0.23633320713E+03  0.26180150866E+03  0.00000000000E+00 0. -1.
         21    1    1    2  502  501 -0.13555021435E+02  0.24575121616E+02  0.68841978468E+01  0.28897532568E+02  0.00000000000E+00 0. -1.
<scales pt_clust_5="13000.00000" pt_clust_6="13000.00000" pt_clust_7="13000.00000" pt_clust_8="13000.00000" pt_clust_9="28.06555"></scales>
<clustering>
<clus scale="   28.066">  1  9  2 -1</clus>
<clus scale="   75.116">  5  6 -1 -1</clus>
<clus scale="   91.323">  7  8 -1 -1</clus>
<clus scale="  152.910">  2  5  1 -1</clus>
<clus scale="  152.910">  2  5  1 -1</clus>
</clustering>
</event>
<event>
 9    2  0.5608219E-005  0.1067931E+03  0.7546771E-02  0.1271594E+00
         -1   -1    0    0    0  501 -0.00000000000E+00  0.00000000000E+00  0.35262367788E+03  0.35262367788E+03  0.00000000000E+00 0.  1.
          2   -1    0    0  502    0  0.00000000000E+00 -0.00000000000E+00 -0.11930347852E+03  0.11930347852E+03  0.00000000000E+00 0. -1.
         24    2    1    2    0    0  0.10459723046E+01  0.21231795475E+02  0.21839067394E+03  0.23370228848E+03  0.80438734337E+02 0.  0.
         23    2    1    2    0    0  0.25324940865E+02 -0.52783163635E+02 -0.79679604171E+02  0.13506576121E+03  0.92013616043E+02 0.  0.
        -11    1    3    3    0    0 -0.11047429684E+02  0.43910485007E+02  0.71866021174E+02  0.84940575673E+02  0.00000000000E+00 0.  1.
         12    1    3    3    0    0  0.12093401988E+02 -0.22678689533E+02  0.14652465276E+03  0.14876171281E+03  0.00000000000E+00 0. -1.
        -11    1    4    4    0    0 -0.20737708150E+02 -0.36556639213E+01 -0.61943556843E+02  0.65424923786E+02  0.00000000000E+00 0. -1.
         11    1    4    4    0    0  0.46062649015E+02 -0.49127499713E+02 -0.17736047328E+02  0.69640837424E+02  0.00000000000E+00 0.  1.
         21    1    1    2  502  501 -0.26370913169E+02  0.31551368160E+02  0.94609129600E+02  0.10315910671E+03  0.00000000000E+00 0.  1.
<scales pt_clust_5="13000.00000" pt_clust_6="13000.00000" pt_clust_7="13000.00000" pt_clust_8="13000.00000" pt_clust_9="41.12072"></scales>
<clustering>
<clus scale="   41.121">  1  9  2 -1</clus>
<clus scale="   80.439">  5  6 -1 -1</clus>
<clus scale="   92.014">  7  8 -1 -1</clus>
<clus scale="   96.998">  1  5  2 -1</clus>
<clus scale="  106.793">  2  5  1 -1</clus>
</clustering>
</event>
<event>
 9    2  0.5608219E-005  0.4186975E+03  0.7546771E-02  0.1037747E+00
         -1   -1    0    0    0  501 -0.00000000000E+00  0.00000000000E+00  0.31762385444E+03  0.31762385444E+03  0.00000000000E+00 0.  1.
          2   -1    0    0  502    0  0.00000000000E+00 -0.00000000000E+00 -0.19285483921E+04  0.19285483921E+04  0.00000000000E+00 0. -1.
         23    2    1    2    0    0  0.38090412818E+03  0.12275747311E+03  0.62873381575E+02  0.41603317955E+03  0.94726935472E+02 0.  0.
         24    2    1    2    0    0 -0.40879315840E+03 -0.28505484477E+02 -0.16805361043E+04  0.17316167928E+04  0.79816730051E+02 0.  0.
        -13    1    4    4    0    0 -0.99329518593E+02  0.16114309114E+02 -0.31233515994E+03  0.32814520621E+03  0.00000000000E+00 0.  1.
         14    1    4    4    0    0 -0.30946363980E+03 -0.44619793591E+02 -0.13682009443E+04  0.14034715866E+04  0.00000000000E+00 0. -1.
        -11    1    3    3    0    0  0.15107265257E+03  0.97793580810E+02  0.22770864974E+02  0.18139747268E+03  0.00000000000E+00 0.  1.
         11    1    3    3    0    0  0.22983147561E+03  0.24963892298E+02  0.40102516601E+02  0.23463570687E+03  0.00000000000E+00 0. -1.
         21    1    1    2  502  501  0.27889030213E+02 -0.94251988632E+02  0.67381850654E+01  0.98522274158E+02  0.00000000000E+00 0. -1.
<scales pt_clust_5="13000.00000" pt_clust_6="13000.00000" pt_clust_7="13000.00000" pt_clust_8="13000.00000" pt_clust_9="98.29158"></scales>
<clustering>
<clus scale="   79.817">  5  6 -1 -1</clus>
<clus scale="   94.727">  7  8 -1 -1</clus>
<clus scale="   98.292">  1  9  2 -1</clus>
<clus scale="  415.578">  2  5  1 -1</clus>
<clus scale="  415.578">  2  5  1 -1</clus>
</clustering>
</event>
<event>
 9    2  0.5608219E-005  0.1874580E+03  0.7546771E-02  0.1164332E+00
          2   -1    0    0  502    0  0.00000000000E+00  0.00000000000E+00  0.52071125410E+03  0.52071125410E+03  0.00000000000E+00 0. -1.
         -1   -1    0    0    0  501 -0.00000000000E+00 -0.00000000000E+00 -0.13196663799E+03  0.13196663799E+03  0.00000000000E+00 0.  1.
         24    2    1    2    0    0 -0.11666914826E+03 -0.92339576543E+02 -0.23445084111E+02  0.16289554167E+03  0.62024172497E+02 0.  0.
         23    2    1    2    0    0  0.14160786819E+03  0.82845740377E+02  0.42082500023E+03  0.46173522788E+03  0.95862061362E+02 0.  0.
        -11    1    3    3    0    0 -0.51766259495E+02 -0.62440793907E+02 -0.38635291626E+02  0.89840325716E+02  0.00000000000E+00 0.  1.
         12    1    3    3    0    0 -0.64902888764E+02 -0.29898782636E+02  0.15190207515E+02  0.73055215949E+02  0.00000000000E+00 0. -1.
        -11    1    4    4    0    0  0.93002379737E+02  0.17869202557E+02  0.13705753107E+03  0.16659387102E+03  0.00000000000E+00 0.  1.
         11    1    4    4    0    0  0.48605488454E+02  0.64976537820E+02  0.28376746916E+03  0.29514135686E+03  0.00000000000E+00 0. -1.
         21    1    1    2  502  501 -0.24938719933E+02  0.94938361661E+01 -0.86353000056E+01  0.28047122548E+02  0.00000000000E+00 0. -1.
<scales pt_clust_5="13000.00000" pt_clust_6="13000.00000" pt_clust_7="13000.00000" pt_clust_8="13000.00000" pt_clust_9="26.68469"></scales>
<clustering>
<clus scale="   26.685">  2  9  1 -1</clus>
<clus scale="   62.024">  5  6 -1 -1</clus>
<clus scale="   95.862">  7  8 -1 -1</clus>
<clus scale="  172.621">  2  5  1 -1</clus>
<clus scale="  187.458">  1  5  2 -1</clus>
</clustering>
</event>
<event>
 9    2  0.5608219E-005  0.8986740E+02  0.7546771E-02  0.1307787E+00
         -1   -1    0    0    0  501 -0.00000000000E+00  0.00000000000E+00  0.17113020542E+03  0.17113020542E+03  0.00000000000E+00 0.  1.
          2   -1    0    0  502    0  0.00000000000E+00 -0.00000000000E+00 -0.21179765707E+03  0.21179765707E+03  0.00000000000E+00 0. -1.
         23    2    1    2    0    0 -0.10088020981E+02  0.55693774643E+01  0.13854564404E+03  0.16522453756E+03  0.89283067797E+02 0.  0.
         24    2    1    2    0    0 -0.18258877865E+01  0.13550094750E+02 -0.17641071740E+03  0.19500203061E+03  0.81964088437E+02 0.  0.
        -11    1    4    4    0    0  0.30590668042E+02 -0.19506879273E+02 -0.88414427747E+02  0.95568919341E+02  0.00000000000E+00 0.  1.
         12    1    4    4    0    0 -0.32416555828E+02  0.33056974022E+02 -0.87996289657E+02  0.99433111269E+02  0.00000000000E+00 0. -1.
        -11    1    3    3    0    0  0.14099064498E+02 -0.27631889926E+02  0.13914969685E+02  0.33998990307E+02  0.00000000000E+00 0. -1.
         11    1    3    3    0    0 -0.24187085479E+02  0.33201267390E+02  0.12463067436E+03  0.13122554725E+03  0.00000000000E+00 0.  1.
         21    1    1    2  502  501  0.11913908767E+02 -0.19119472214E+02 -0.28023782905E+01  0.22701294323E+02  0.00000000000E+00 0. -1.
<scales pt_clust_5="13000.00000" pt_clust_6="13000.00000" pt_clust_7="13000.00000" pt_clust_8="13000.00000" pt_clust_9="22.52766"></scales>
<clustering>
<clus scale="   22.528">  2  9  1 -1</clus>
<clus scale="   81.964">  5  6 -1 -1</clus>
<clus scale="   82.600">  2  5  1 -1</clus>
<clus scale="   89.283">  7  8 -1 -1</clus>
<clus scale="   22.528">  2  5  1 -1</clus>
</clustering>
</event>
<event>
 9    2  0.5608219E-005  0.1440893E+03  0.7546771E-02  0.1209754E+00
         -1   -1    0    0    0  501 -0.00000000000E+00  0.00000000000E+00  0.19747366431E+03  0.19747366431E+03  0.00000000000E+00 0.  1.
          2   -1    0    0  502    0  0.00000000000E+00 -0.00000000000E+00 -0.19984371856E+03  0.19984371856E+03  0.00000000000E+00 0. -1.
         24    2    1    2    0    0  0.10721315938E+03 -0.41506323519E+02  0.12447307801E+03  0.18792001066E+03  0.81258518447E+02 0.  0.
         23    2    1    2    0    0 -0.10058818232E+03  0.14516006138E+02 -0.11853421187E+03  0.18039037803E+03  0.90341752509E+02 0.  0.
        -11    1    3    3    0    0  0.31457874823E+02 -0.46263920502E+02  0.86579771345E+02  0.10308251566E+03  0.00000000000E+00 0.  1.
         12    1    3    3    0    0  0.75755284559E+02  0.47575969829E+01  0.37893306662E+02  0.84837494997E+02  0.00000000000E+00 0. -1.
        -13    1    4    4    0    0 -0.82568691691E+02  0.49743215909E+02 -0.85283394511E+02  0.12870599736E+03  0.00000000000E+00 0.  1.
         13    1    4    4    0    0 -0.18019490633E+02 -0.35227209771E+02 -0.33250817358E+02  0.51684380676E+02  0.00000000000E+00 0. -1.
         21    1    1    2  502  501 -0.66249770579E+01  0.26990317382E+02 -0.83089203873E+01  0.29006994180E+02  0.00000000000E+00 0.  1.
<scales pt_clust_5="13000.00000" pt_clust_6="13000.00000" pt_clust_7="13000.00000" pt_clust_8="13000.00000" pt_clust_9="27.79150"></scales>
<clustering>
<clus scale="   27.792">  2  9  1 -1</clus>
<clus scale="   81.259">  5  6 -1 -1</clus>
<clus scale="   90.342">  7  8 -1 -1</clus>
<clus scale="  138.575">  1  5  2 -1</clus>
<clus scale="   27.792">  2  5  1 -1</clus>
</clustering>
</event>
<event>
 9    2  0.5608219E-005  0.1321712E+03  0.7546771E-02  0.1227682E+00
         -3   -1    0    0    0  501 -0.00000000000E+00  0.00000000000E+00  0.48996719673E+03  0.48996719673E+03  0.00000000000E+00 0.  1.
          4   -1    0    0  502    0  0.00000000000E+00 -0.00000000000E+00 -0.77552685304E+02  0.77552685304E+02  0.00000000000E+00 0. -1.
         24    2    1    2    0    0 -0.14456318397E+02  0.89073567190E+02  0.38539977173E+03  0.40359557712E+03  0.78824617400E+02 0.  0.
         23    2    1    2    0    0 -0.45219300711E+01 -0.95510071529E+02  0.34112959505E+01  0.13296101924E+03  0.92327536966E+02 0.  0.
        -13    1    3    3    0    0 -0.13009786394E+02  0.10382741621E+03  0.32645456353E+03  0.34281477353E+03  0.00000000000E+00 0.  1.
         14    1    3    3    0    0 -0.14465320031E+01 -0.14753849020E+02  0.58945208198E+02  0.60780803592E+02  0.00000000000E+00 0. -1.
        -11    1    4    4    0    0  0.29509080072E+02  0.13363340148E+01  0.65690610833E+01  0.30260934533E+02  0.00000000000E+00 0.  1.
         11    1    4    4    0    0 -0.34031010143E+02 -0.96846405544E+02 -0.31577651328E+01  0.10270008471E+03  0.00000000000E+00 0. -1.
         21    1    1    2  502  501  0.18978248468E+02  0.64365043392E+01  0.23603443742E+02  0.30963285670E+02  0.00000000000E+00 0.  1.
<scales pt_clust_5="13000.00000" pt_clust_6="13000.00000" pt_clust_7="13000.00000" pt_clust_8="13000.00000" pt_clust_9="20.04002"></scales>
<clustering>
<clus scale="   20.040">  1  9  2 -1</clus>
<clus scale="   78.825">  5  6 -1 -1</clus>
<clus scale="   92.328">  7  8 -1 -1</clus>
<clus scale="  123.119">  1  5  2 -1</clus>
<clus scale="  132.171">  2  5  1 -1</clus>
</clustering>
</event>
<event>
 9    2  0.5608219E-005  0.9808972E+02  0.7546771E-02  0.1286626E+00
         -1   -1    0    0    0  501 -0.00000000000E+00  0.00000000000E+00  0.50710026453E+02  0.50710026453E+02  0.00000000000E+00 0.  1.
          2   -1    0    0  502    0  0.00000000000E+00 -0.00000000000E+00 -0.72453300387E+03  0.72453300387E+03  0.00000000000E+00 0. -1.
         23    2    1    2    0    0 -0.13421211859E+02 -0.36318351312E+02 -0.13437568764E+02  0.94062636157E+02  0.84664394504E+02 0.  0.
         24    2    1    2    0    0  0.35956198733E+02  0.35801811799E+02 -0.64911793096E+03  0.65598022552E+03  0.79883352611E+02 0.  0.
        -11    1    4    4    0    0 -0.20187580674E+02  0.20062992509E+02 -0.10646616949E+03  0.11020484258E+03  0.00000000000E+00 0.  1.
         12    1    4    4    0    0  0.56143779406E+02  0.15738819290E+02 -0.54265176146E+03  0.54577538294E+03  0.00000000000E+00 0. -1.
        -13    1    3    3    0    0 -0.36497904542E+02  0.77402377160E+01  0.10650866777E+02  0.38800119574E+02  0.00000000000E+00 0.  1.
         13    1    3    3    0    0  0.23076692682E+02 -0.44058589028E+02 -0.24088435541E+02  0.55262516583E+02  0.00000000000E+00 0. -1.
         21    1    1    2  502  501 -0.22534986874E+02  0.51653951290E+00 -0.11267477702E+02  0.25200168655E+02  0.00000000000E+00 0.  1.
<scales pt_clust_5="13000.00000" pt_clust_6="13000.00000" pt_clust_7="13000.00000" pt_clust_8="13000.00000" pt_clust_9="22.54091"></scales>
<clustering>
<clus scale="   22.541">  1  9  2 -1</clus>
<clus scale="   79.883">  5  6 -1 -1</clus>
<clus scale="   84.664">  7  8 -1 -1</clus>
<clus scale="   93.994">  2  5  1 -1</clus>
<clus scale="   93.994">  2  5  1 -1</clus>
</clustering>
</event>
<event>
 9    2  0.5608219E-005  0.1474946E+03  0.7546771E-02  0.1206217E+00
          2   -1    0    0  502    0  0.00000000000E+00  0.00000000000E+00  0.99522016758E+03  0.99522016758E+03  0.00000000000E+00 0. -1.
         -1   -1    0    0    0  501 -0.00000000000E+00 -0.00000000000E+00 -0.61510113719E+02  0.61510113719E+02  0.00000000000E+00 0.  1.
         24    2    1    2    0    0  0.78227982066E+02 -0.90623054237E+02  0.43507134288E+02  0.14759191774E+03  0.74554331276E+02 0.  0.
         23    2    1    2    0    0 -0.38073338985E+02  0.10366642505E+03  0.65236551623E+03  0.66758266540E+03  0.88823091316E+02 0.  0.
        -11    1    3    3    0    0  0.21894531240E+01 -0.51665375161E+02 -0.66401979531E-02  0.51711746631E+02  0.00000000000E+00 0.  1.
         12    1    3    3    0    0  0.76038528942E+02 -0.38957679076E+02  0.43513774486E+02  0.95880171113E+02  0.00000000000E+00 0. -1.
        -11    1    4    4    0    0 -0.47517922151E+01  0.10309386714E+03  0.55901441777E+03  0.56846111938E+03  0.00000000000E+00 0. -1.
         11    1    4    4    0    0 -0.33321546770E+02  0.57255791283E+00  0.93351098456E+02  0.99121546017E+02  0.00000000000E+00 0.  1.
         21    1    1    2  502  501 -0.40154643081E+02 -0.13043370811E+02  0.23783740334E+03  0.24155569815E+03  0.00000000000E+00 0.  1.
<scales pt_clust_5="13000.00000" pt_clust_6="13000.00000" pt_clust_7="13000.00000" pt_clust_8="13000.00000" pt_clust_9="42.21996"></scales>
<clustering>
<clus scale="   42.220">  1  9  2 -1</clus>
<clus scale="   74.554">  5  6 -1 -1</clus>
<clus scale="   88.823">  7  8 -1 -1</clus>
<clus scale="  139.368">  2  5  1 -1</clus>
<clus scale="   42.220">  1  5  2 -1</clus>
</clustering>
</event>
<event>
 9    2  0.5608219E-005  0.1289286E+03  0.7546771E-02  0.1239941E+00
          2   -1    0    0  502    0  0.00000000000E+00  0.00000000000E+00  0.30394247003E+03  0.30394247003E+03  0.00000000000E+00 0. -1.
         -1   -1    0    0    0  501 -0.00000000000E+00 -0.00000000000E+00 -0.24926065004E+03  0.24926065004E+03  0.00000000000E+00 0.  1.
         24    2    1    2    0    0 -0.56349126277E+02  0.32423003711E+02 -0.10623342429E+03  0.14806852124E+03  0.80076659181E+02 0.  0.
         23    2    1    2    0    0 -0.61663383307E+02  0.41393377515E+02  0.22123880093E+03  0.25342849466E+03  0.98810982810E+02 0.  0.
        -11    1    3    3    0    0  0.19970682975E+02  0.44958802216E+01 -0.12396391179E+02  0.23931394270E+02  0.00000000000E+00 0.  1.
         12    1    3    3    0    0 -0.76319809252E+02  0.27927123489E+02 -0.93837033106E+02  0.12413712697E+03  0.00000000000E+00 0. -1.
        -13    1    4    4    0    0 -0.59171090495E+02  0.66527463156E+02  0.20473632832E+03  0.22325788998E+03  0.00000000000E+00 0. -1.
         13    1    4    4    0    0 -0.24922928123E+01 -0.25134085641E+02  0.16502472617E+02  0.30170604683E+02  0.00000000000E+00 0.  1.
         21    1    1    2  502  501  0.11801250958E+03 -0.73816381226E+02 -0.60323556653E+02  0.15170610417E+03  0.00000000000E+00 0.  1.
<scales pt_clust_5="13000.00000" pt_clust_6="13000.00000" pt_clust_7="13000.00000" pt_clust_8="13000.00000" pt_clust_9="82.81893"></scales>
<clustering>
<clus scale="   80.077">  5  6 -1 -1</clus>
<clus scale="   98.811">  7  8 -1 -1</clus>
<clus scale="  103.144">  2  5  1 -1</clus>
<clus scale="   82.819">  2  9  1 -1</clus>
<clus scale="  128.929">  1  5  2 -1</clus>
</clustering>
</event>
<event>
 9    2  0.5608219E-005  0.1022621E+03  0.7546771E-02  0.1281593E+00
         -1   -1    0    0    0  501 -0.00000000000E+00  0.00000000000E+00  0.38648783751E+02  0.38648783751E+02  0.00000000000E+00 0.  1.
          2   -1    0    0  502    0  0.00000000000E+00 -0.00000000000E+00 -0.50037993384E+03  0.50037993384E+03  0.00000000000E+00 0. -1.
         23    2    1    2    0    0  0.14026217347E+01 -0.19036601328E+02 -0.74062726277E+02  0.12080880775E+03  0.93515352047E+02 0.  0.
         24    2    1    2    0    0 -0.14972817699E+02  0.44593438196E+02 -0.37508048931E+03  0.38666427288E+03  0.81308833822E+02 0.  0.
        -11    1    4    4    0    0  0.18547602203E+02 -0.14913255868E+02 -0.13395057172E+03  0.13604842672E+03  0.00000000000E+00 0.  1.
         12    1    4    4    0    0 -0.33520419903E+02  0.59506694063E+02 -0.24112991759E+03  0.25061584615E+03  0.00000000000E+00 0. -1.
        -13    1    3    3    0    0 -0.66213400357E+01 -0.42672343166E+02 -0.56330959327E+00  0.43186668462E+02  0.00000000000E+00 0.  1.
         13    1    3    3    0    0  0.80239617703E+01  0.23635741838E+02 -0.73499416684E+02  0.77622139288E+02  0.00000000000E+00 0. -1.
         21    1    1    2  502  501  0.13570195965E+02 -0.25556836868E+02 -0.12587934500E+02  0.31555636964E+02  0.00000000000E+00 0. -1.
<scales pt_clust_5="13000.00000" pt_clust_6="13000.00000" pt_clust_7="13000.00000" pt_clust_8="13000.00000" pt_clust_9="28.93617"></scales>
<clustering>
<clus scale="   28.936">  1  9  2 -1</clus>
<clus scale="   81.309">  5  6 -1 -1</clus>
<clus scale="   91.234">  2  5  1 -1</clus>
<clus scale="   93.515">  7  8 -1 -1</clus>
<clus scale="   91.234">  2  5  1 -1</clus>
</clustering>
</event>
<event>
 9    2  0.5608219E-005  0.9619881E+02  0.7546771E-02  0.1293775E+00
         -1   -1    0    0    0  501 -0.00000000000E+00  0.00000000000E+00  0.14243454342E+03  0.14243454342E+03  0.00000000000E+00 0.  1.
          2   -1    0    0  502    0  0.00000000000E+00 -0.00000000000E+00 -0.39499654070E+03  0.39499654070E+03  0.00000000000E+00 0. -1.
         24    2    1    2    0    0  0.28784731176E+02  0.46736301046E+02  0.10231606121E+03  0.13972546680E+03  0.77728933533E+02 0.  0.
         23    2    1    2    0    0 -0.33660932723E+02 -0.19592102876E+02 -0.35734657771E+03  0.37001665881E+03  0.87743047069E+02 0.  0.
        -11    1    3    3    0    0  0.31912300211E+02  0.58257297925E+02  0.10777326390E+03  0.12659930520E+03  0.00000000000E+00 0.  1.
         12    1    3    3    0    0 -0.31275690341E+01 -0.11520996879E+02 -0.54572026927E+01  0.13126161601E+02  0.00000000000E+00 0. -1.
        -11    1    4    4    0    0  0.72205779292E+01 -0.45931443961E+02 -0.19959676494E+03  0.20494073013E+03  0.00000000000E+00 0. -1.
         11    1    4    4    0    0 -0.40881510652E+02  0.26339341085E+02 -0.15774981277E+03  0.16507592868E+03  0.00000000000E+00 0.  1.
         21    1    1    2  502  501  0.48762015465E+01 -0.27144198170E+02  0.24685192280E+01  0.27688958503E+02  0.00000000000E+00 0.  1.
<scales pt_clust_5="13000.00000" pt_clust_6="13000.00000" pt_clust_7="13000.00000" pt_clust_8="13000.00000" pt_clust_9="27.57870"></scales>
<clustering>
<clus scale="   27.579">  1  9  2 -1</clus>
<clus scale="   77.729">  5  6 -1 -1</clus>
<clus scale="   87.162">  1  5  2 -1</clus>
<clus scale="   87.743">  7  8 -1 -1</clus>
<clus scale="   96.199">  2  5  1 -1</clus>
</clustering>
</event>
<event>
 9    2  0.5608219E-005  0.1260938E+03  0.7546771E-02  0.1235728E+00
          2   -1    0    0  502    0  0.00000000000E+00  0.00000000000E+00  0.49015629168E+03  0.49015629168E+03  0.00000000000E+00 0. -1.
         -1   -1    0    0    0  501 -0.00000000000E+00 -0.00000000000E+00 -0.64821254791E+02  0.64821254791E+02  0.00000000000E+00 0.  1.
         23    2    1    2    0    0  0.79390962956E+02  0.34130928052E+02  0.28441841030E+02  0.13054390510E+03  0.93621191990E+02 0.  0.
         24    2    1    2    0    0 -0.80210030269E+02 -0.32432792150E+01  0.34068870847E+03  0.36029580445E+03  0.85440639092E+02 0.  0.
        -13    1    4    4    0    0 -0.82602334852E+02  0.26234147288E+02  0.27303863536E+03  0.28646373699E+03  0.00000000000E+00 0.  1.
         14    1    4    4    0    0  0.23923045832E+01 -0.29477426503E+02  0.67650073105E+02  0.73832067461E+02  0.00000000000E+00 0. -1.
        -11    1    3    3    0    0  0.23793777652E+02  0.59879038249E+02  0.39310030970E+01  0.64553046883E+02  0.00000000000E+00 0.  1.
         11    1    3    3    0    0  0.55597185304E+02 -0.25748110197E+02  0.24510837933E+02  0.65990858220E+02  0.00000000000E+00 0. -1.
         21    1    1    2  502  501  0.81906731267E+00 -0.30887648837E+02  0.56204487390E+02  0.64137836919E+02  0.00000000000E+00 0. -1.
<scales pt_clust_5="13000.00000" pt_clust_6="13000.00000" pt_clust_7="13000.00000" pt_clust_8="13000.00000" pt_clust_9="30.89851"></scales>
<clustering>
<clus scale="   30.899">  1  9  2 -1</clus>
<clus scale="   85.441">  5  6 -1 -1</clus>
<clus scale="   93.621">  7  8 -1 -1</clus>
<clus scale="  120.145">  1  5  2 -1</clus>
<clus scale="   30.899">  1  5  2 -1</clus>
</clustering>
</event>
<event>
 9    2  0.5608219E-005  0.1053843E+03  0.7546771E-02  0.1274305E+00
         -1   -1    0    0    0  501 -0.00000000000E+00  0.00000000000E+00  0.31671537505E+03  0.31671537505E+03  0.00000000000E+00 0.  1.
          2   -1    0    0  502    0  0.00000000000E+00 -0.00000000000E+00 -0.19978376469E+03  0.19978376469E+03  0.00000000000E+00 0. -1.
         23    2    1    2    0    0 -0.34760914598E+02  0.18048263242E+02  0.15942289283E+03  0.18783461562E+03  0.91280463824E+02 0.  0.
         24    2    1    2    0    0  0.60144090851E+01 -0.54595722648E+02 -0.16843943611E+03  0.19440724956E+03  0.80034173918E+02 0.  0.
        -11    1    4    4    0    0  0.33932176029E+02 -0.29397970516E+02 -0.38525591213E+02  0.59159567433E+02  0.00000000000E+00 0.  1.
         12    1    4    4    0    0 -0.27917766944E+02 -0.25197752132E+02 -0.12991384490E+03  0.13524768213E+03  0.00000000000E+00 0. -1.
        -11    1    3    3    0    0 -0.42214560873E+02  0.48291888298E+02  0.13011414751E+03  0.14506504405E+03  0.00000000000E+00 0.  1.
         11    1    3    3    0    0  0.74536462750E+01 -0.30243625056E+02  0.29308745327E+02  0.42769571566E+02  0.00000000000E+00 0. -1.
         21    1    1    2  502  501  0.28746505513E+02  0.36547459405E+02  0.12594815363E+03  0.13425727456E+03  0.00000000000E+00 0.  1.
<scales pt_clust_5="13000.00000" pt_clust_6="13000.00000" pt_clust_7="13000.00000" pt_clust_8="13000.00000" pt_clust_9="46.49815"></scales>
<clustering>
<clus scale="   46.498">  1  9  2 -1</clus>
<clus scale="   80.034">  5  6 -1 -1</clus>
<clus scale="   91.280">  7  8 -1 -1</clus>
<clus scale="   95.808">  2  5  1 -1</clus>
<clus scale="   95.808">  2  5  1 -1</clus>
</clustering>
</event>
<event>
 9    2  0.5608219E-005  0.1426869E+03  0.7546771E-02  0.1211342E+00
          2   -1    0    0  502    0  0.00000000000E+00  0.00000000000E+00  0.10813625622E+04  0.10813625622E+04  0.00000000000E+00 0. -1.
         -1   -1    0    0    0  501 -0.00000000000E+00 -0.00000000000E+00 -0.33147498592E+03  0.33147498592E+03  0.00000000000E+00 0.  1.
         23    2    1    2    0    0  0.86049890097E+01  0.16389014748E+03 -0.25492413664E+03  0.31696079022E+03  0.92432682623E+02 0.  0.
         24    2    1    2    0    0  0.59106555880E+02 -0.90734171862E+02  0.98459233297E+03  0.99416405755E+03  0.84934305734E+02 0.  0.
        -13    1    4    4    0    0  0.51744398063E+02 -0.79964866585E+02  0.47764351529E+03  0.48704742101E+03  0.00000000000E+00 0.  1.
         14    1    4    4    0    0  0.73621578171E+01 -0.10769305277E+02  0.50694881768E+03  0.50711663654E+03  0.00000000000E+00 0. -1.
        -11    1    3    3    0    0 -0.38680281685E+02  0.82706346519E+02 -0.15433510295E+03  0.17932046160E+03  0.00000000000E+00 0. -1.
         11    1    3    3    0    0  0.47285270694E+02  0.81183800966E+02 -0.10058903368E+03  0.13764032862E+03  0.00000000000E+00 0.  1.
         21    1    1    2  502  501 -0.67711544890E+02 -0.73155975622E+02  0.20219379897E+02  0.10171270031E+03  0.00000000000E+00 0. -1.
<scales pt_clust_5="13000.00000" pt_clust_6="13000.00000" pt_clust_7="13000.00000" pt_clust_8="13000.00000" pt_clust_9="99.68275"></scales>
<clustering>
<clus scale="   84.934">  5  6 -1 -1</clus>
<clus scale="   92.433">  7  8 -1 -1</clus>
<clus scale="   99.683">  2  9  1 -1</clus>
<clus scale="  137.948">  1  5  2 -1</clus>
<clus scale="  137.948">  1  5  2 -1</clus>
</clustering>
</event>
<event>
 9    2  0.5608219E-005  0.1228005E+03  0.7546771E-02  0.1253120E+00
         -1   -1    0    0    0  501 -0.00000000000E+00  0.00000000000E+00  0.18290100382E+03  0.18290100382E+03  0.00000000000E+00 0.  1.
          2   -1    0    0  502    0  0.00000000000E+00 -0.00000000000E+00 -0.30027353620E+03  0.30027353620E+03  0.00000000000E+00 0. -1.
         23    2    1    2    0    0  0.13429778919E+02 -0.11759391679E+01  0.11220669867E+03  0.14484738445E+03  0.90601764671E+02 0.  0.
         24    2    1    2    0    0 -0.45176594601E+01  0.94127711461E+02 -0.44845318319E+02  0.13133421761E+03  0.79731667665E+02 0.  0.
        -13    1    4    4    0    0 -0.26468408392E+02  0.39166151866E+01  0.29358158084E+01  0.26917197695E+02  0.00000000000E+00 0.  1.
         14    1    4    4    0    0  0.21950748931E+02  0.90211096275E+02 -0.47781134127E+02  0.10441701992E+03  0.00000000000E+00 0. -1.
        -11    1    3    3    0    0 -0.54569579077E+01 -0.30807553081E+02  0.10421638087E+03  0.10881147806E+03  0.00000000000E+00 0.  1.
         11    1    3    3    0    0  0.18886736827E+02  0.29631613913E+02  0.79903178053E+01  0.36035906395E+02  0.00000000000E+00 0. -1.
         21    1    1    2  502  501 -0.89121194588E+01 -0.92951772293E+02 -0.18473391274E+03  0.20699293795E+03  0.00000000000E+00 0. -1.
<scales pt_clust_5="13000.00000" pt_clust_6="13000.00000" pt_clust_7="13000.00000" pt_clust_8="13000.00000" pt_clust_9="93.39605"></scales>
<clustering>
<clus scale="   79.732">  5  6 -1 -1</clus>
<clus scale="   90.602">  7  8 -1 -1</clus>
<clus scale="   91.599">  1  7  2 -1</clus>
<clus scale="   93.396">  2  9  1 -1</clus>
<clus scale="   93.396">  2  5  1 -1</clus>
</clustering>
</event>
<event>
 9    2  0.5608219E-005  0.1128682E+03  0.7546771E-02  0.1259669E+00
          2   -1    0    0  502    0  0.00000000000E+00  0.00000000000E+00  0.37558233787E+03  0.37558233787E+03  0.00000000000E+00 0. -1.
         -1   -1    0    0    0  501 -0.00000000000E+00 -0.00000000000E+00 -0.36869558266E+03  0.36869558266E+03  0.00000000000E+00 0.  1.
         23    2    1    2    0    0 -0.20824879589E+02  0.62495415966E+02 -0.34476085027E+03  0.36275695448E+03  0.91614472220E+02 0.  0.
         24    2    1    2    0    0  0.41823500326E+02 -0.57529924906E+02  0.34111210743E+03  0.35750857563E+03  0.79975085988E+02 0.  0.
        -11    1    4    4    0    0 -0.18937562927E+02 -0.36798490136E+02  0.16325708488E+03  0.16842100798E+03  0.00000000000E+00 0.  1.
         12    1    4    4    0    0  0.60761063254E+02 -0.20731434770E+02  0.17785502255E+03  0.18908756766E+03  0.00000000000E+00 0. -1.
        -13    1    3    3    0    0 -0.25655797181E+02 -0.12855593740E+02 -0.43021682406E+02  0.51714131303E+02  0.00000000000E+00 0. -1.
         13    1    3    3    0    0  0.48309175917E+01  0.75351009705E+02 -0.30173916786E+03  0.31104282318E+03  0.00000000000E+00 0.  1.
         21    1    1    2  502  501 -0.20998620737E+02 -0.49654910594E+01  0.10535498042E+02  0.24012390413E+02  0.00000000000E+00 0. -1.
<scales pt_clust_5="13000.00000" pt_clust_6="13000.00000" pt_clust_7="13000.00000" pt_clust_8="13000.00000" pt_clust_9="21.57772"></scales>
<clustering>
<clus scale="   21.578">  1  9  2 -1</clus>
<clus scale="   79.975">  5  6 -1 -1</clus>
<clus scale="   91.614">  7  8 -1 -1</clus>
<clus scale="  103.644">  1  5  2 -1</clus>
<clus scale="   21.578">  1  5  2 -1</clus>
</clustering>
</event>
<event>
 9    2  0.5608219E-005  0.1326573E+03  0.7546771E-02  0.1232864E+00
         -1   -1    0    0    0  501 -0.00000000000E+00  0.00000000000E+00  0.11798322791E+03  0.11798322791E+03  0.00000000000E+00 0.  1.
          2   -1    0    0  502    0  0.00000000000E+00 -0.00000000000E+00 -0.45638483997E+03  0.45638483997E+03  0.00000000000E+00 0. -1.
         24    2    1    2    0    0  0.37674589030E+02 -0.92368236110E+02 -0.75715717772E+02  0.14259537538E+03  0.68185815694E+02 0.  0.
         23    2    1    2    0    0  0.64186730134E+02  0.18202669975E+02 -0.28366547390E+03  0.30403701893E+03  0.86724473335E+02 0.  0.
        -13    1    3    3    0    0  0.38881101913E+02 -0.46084200843E+02 -0.75076646837E+02  0.96291207042E+02  0.00000000000E+00 0.  1.
         14    1    3    3    0    0 -0.12065128835E+01 -0.46284035267E+02 -0.63907093490E+00  0.46304168339E+02  0.00000000000E+00 0. -1.
        -11    1    4    4    0    0  0.52964159564E+02 -0.28826896681E+02 -0.17508286762E+03  0.18517613968E+03  0.00000000000E+00 0. -1.
         11    1    4    4    0    0  0.11222570569E+02  0.47029566656E+02 -0.10858260628E+03  0.11886087925E+03  0.00000000000E+00 0.  1.
         21    1    1    2  502  501 -0.10186131916E+03  0.74165566135E+02  0.20979579615E+02  0.12773567357E+03  0.00000000000E+00 0.  1.
<scales pt_clust_5="13000.00000" pt_clust_6="13000.00000" pt_clust_7="13000.00000" pt_clust_8="13000.00000" pt_clust_9="113.79216"></scales>
<clustering>
<clus scale="   68.186">  5  6 -1 -1</clus>
<clus scale="   86.724">  7  8 -1 -1</clus>
<clus scale="  109.418">  2  7  1 -1</clus>
<clus scale="  113.792">  1  9  2 -1</clus>
<clus scale="  109.418">  2  5  1 -1</clus>
</clustering>
</event>
<event>
 9    2  0.9895113E-005  0.9415692E+02  0.7546771E-02  0.1296316E+00
         -1   -1    0    0    0  501 -0.00000000000E+00  0.00000000000E+00  0.39130545639E+03  0.39130545639E+03  0.00000000000E+00 0.  1.
          2   -1    0    0  502    0  0.00000000000E+00 -0.00000000000E+00 -0.42390784589E+03  0.42390784589E+03  0.00000000000E+00 0. -1.
         23    2    1    2    0    0  0.32221764042E+02 -0.24141125809E+02  0.34134248367E+03  0.35616489292E+03  0.93368644402E+02 0.  0.
         24    2    1    2    0    0 -0.75129846306E+01 -0.97478628657E+01 -0.39997288518E+03  0.40968805338E+03  0.87832376911E+02 0.  0.
        -13    1    4    4    0    0 -0.97038544317E+01 -0.23029174829E+02 -0.28231822607E+02  0.37703361811E+02  0.00000000000E+00 0.  1.
         14    1    4    4    0    0  0.21908698011E+01  0.13281311964E+02 -0.37174106257E+03  0.37198469157E+03  0.00000000000E+00 0. -1.
        -13    1    3    3    0    0 -0.30957963333E+02 -0.13359549198E+02  0.75190151945E+02  0.82404077557E+02  0.00000000000E+00 0. -1.
         13    1    3    3    0    0  0.63179727376E+02 -0.10781576610E+02  0.26615233172E+03  0.27376081536E+03  0.00000000000E+00 0.  1.
         21    1    1    2  502  501 -0.24708779411E+02  0.33888988674E+02  0.26028012016E+02  0.49360355984E+02  0.00000000000E+00 0.  1.
<scales pt_clust_5="13000.00000" pt_clust_6="13000.00000" pt_clust_7="13000.00000" pt_clust_8="13000.00000" pt_clust_9="41.94028"></scales>
<clustering>
<clus scale="   41.940">  1  9  2 -1</clus>
<clus scale="   87.832">  5  6 -1 -1</clus>
<clus scale="   88.670">  2  5  1 -1</clus>
<clus scale="   93.369">  7  8 -1 -1</clus>
<clus scale="   88.670">  2  5  1 -1</clus>
</clustering>
</event>
<event>
 9    2  0.5608219E-005  0.1410032E+03  0.7546771E-02  0.1215966E+00
          2   -1    0    0  502    0  0.00000000000E+00  0.00000000000E+00  0.45599775934E+03  0.45599775934E+03  0.00000000000E+00 0. -1.
         -1   -1    0    0    0  501 -0.00000000000E+00 -0.00000000000E+00 -0.31274822248E+03  0.31274822248E+03  0.00000000000E+00 0.  1.
         23    2    1    2    0    0 -0.53850549744E+02 -0.93561004863E+02 -0.24803340228E+03  0.28736089272E+03  0.96964790934E+02 0.  0.
         24    2    1    2    0    0  0.69034378251E+02  0.75438857863E+02  0.42268516195E+03  0.44207783204E+03  0.79456257108E+02 0.  0.
        -11    1    4    4    0    0 -0.23640604332E+01  0.53564249109E+02  0.14756855177E+03  0.15700699040E+03  0.00000000000E+00 0.  1.
         12    1    4    4    0    0  0.71398438684E+02  0.21874608754E+02  0.27511661019E+03  0.28507084164E+03  0.00000000000E+00 0. -1.
        -13    1    3    3    0    0 -0.70308292643E+02 -0.40750842811E+02 -0.97147253741E+02  0.12665494903E+03  0.00000000000E+00 0. -1.
         13    1    3    3    0    0  0.16457742899E+02 -0.52810162052E+02 -0.15088614854E+03  0.16070594370E+03  0.00000000000E+00 0.  1.
         21    1    1    2  502  501 -0.15183828507E+02  0.18122147000E+02 -0.31402222809E+02  0.39307257058E+02  0.00000000000E+00 0. -1.
<scales pt_clust_5="13000.00000" pt_clust_6="13000.00000" pt_clust_7="13000.00000" pt_clust_8="13000.00000" pt_clust_9="23.64235"></scales>
<clustering>
<clus scale="   23.642">  2  9  1 -1</clus>
<clus scale="   79.456">  5  6 -1 -1</clus>
<clus scale="   96.965">  7  8 -1 -1</clus>
<clus scale="  129.588">  1  5  2 -1</clus>
<clus scale="  129.588">  1  5  2 -1</clus>
</clustering>
</event>
<event>
 9    2  0.5608219E-005  0.1085427E+03  0.7546771E-02  0.1266979E+00
          2   -1    0    0  502    0  0.00000000000E+00  0.00000000000E+00  0.41124096100E+03  0.41124096100E+03  0.00000000000E+00 0. -1.
         -1   -1    0    0    0  501 -0.00000000000E+00 -0.00000000000E+00 -0.51863394782E+02  0.51863394782E+02  0.00000000000E+00 0.  1.
         23    2    1    2    0    0 -0.58392393048E+01 -0.36547101082E+02  0.10617515764E+03  0.14506660552E+03  0.91658980052E+02 0.  0.
         24    2    1    2    0    0  0.46648791527E+01  0.69696726528E+02  0.26222296297E+03  0.28366265476E+03  0.82608865190E+02 0.  0.
        -13    1    4    4    0    0  0.44235814015E+01  0.80708710042E+02  0.14569117860E+03  0.16661147460E+03  0.00000000000E+00 0.  1.
         14    1    4    4    0    0  0.24129775119E+00 -0.11011983513E+02  0.11653178438E+03  0.11705118015E+03  0.00000000000E+00 0. -1.
        -11    1    3    3    0    0 -0.42556215107E+02 -0.34131568975E+02  0.89163564032E+02  0.10452816174E+03  0.00000000000E+00 0.  1.
         11    1    3    3    0    0  0.36716975802E+02 -0.24155321066E+01  0.17011593610E+02  0.40538443786E+02  0.00000000000E+00 0. -1.
         21    1    1    2  502  501  0.11743601522E+01 -0.33149625446E+02 -0.90205543985E+01  0.34375095500E+02  0.00000000000E+00 0.  1.
<scales pt_clust_5="13000.00000" pt_clust_6="13000.00000" pt_clust_7="13000.00000" pt_clust_8="13000.00000" pt_clust_9="33.17042"></scales>
<clustering>
<clus scale="   33.170">  2  9  1 -1</clus>
<clus scale="   82.609">  5  6 -1 -1</clus>
<clus scale="   91.659">  7  8 -1 -1</clus>
<clus scale="  101.017">  1  5  2 -1</clus>
<clus scale="  101.017">  1  5  2 -1</clus>
</clustering>
</event>
<event>
 9    2  0.5608219E-005  0.1139652E+03  0.7546771E-02  0.1256329E+00
         -1   -1    0    0    0  501 -0.00000000000E+00  0.00000000000E+00  0.18675454670E+03  0.18675454670E+03  0.00000000000E+00 0.  1.
          2   -1    0    0  502    0  0.00000000000E+00 -0.00000000000E+00 -0.27978095649E+03  0.27978095649E+03  0.00000000000E+00 0. -1.
         24    2    1    2    0    0 -0.95599052628E+01  0.43392737618E+02  0.13970354247E+03  0.16764391569E+03  0.81320853551E+02 0.  0.
         23    2    1    2    0    0  0.45049193138E+02 -0.57453217591E+02 -0.23366721579E+03  0.26070696869E+03  0.89651847576E+02 0.  0.
        -13    1    3    3    0    0 -0.14225151376E+02 -0.15196190760E+02  0.84443350126E+02  0.86971021184E+02  0.00000000000E+00 0.  1.
         14    1    3    3    0    0  0.46652461134E+01  0.58588928379E+02  0.55260192341E+02  0.80672894502E+02  0.00000000000E+00 0. -1.
        -11    1    4    4    0    0  0.22922475319E+02 -0.63924749856E+02 -0.22665560030E+03  0.23661059712E+03  0.00000000000E+00 0. -1.
         11    1    4    4    0    0  0.22126717819E+02  0.64715322649E+01 -0.70116154895E+01  0.24096371575E+02  0.00000000000E+00 0.  1.
         21    1    1    2  502  501 -0.35489287875E+02  0.14060479973E+02  0.93726353910E+00  0.38184618813E+02  0.00000000000E+00 0.  1.
<scales pt_clust_5="13000.00000" pt_clust_6="13000.00000" pt_clust_7="13000.00000" pt_clust_8="13000.00000" pt_clust_9="38.17311"></scales>
<clustering>
<clus scale="   38.173">  1  9  2 -1</clus>
<clus scale="   81.321">  5  6 -1 -1</clus>
<clus scale="   89.652">  7  8 -1 -1</clus>
<clus scale="  107.535">  1  5  2 -1</clus>
<clus scale="  113.965">  2  5  1 -1</clus>
</clustering>
</event>
<event>
 9    2  0.5608219E-005  0.1035296E+03  0.7546771E-02  0.1273394E+00
          2   -1    0    0  502    0  0.00000000000E+00  0.00000000000E+00  0.23203780706E+03  0.23203780706E+03  0.00000000000E+00 0. -1.
         -1   -1    0    0    0  501 -0.00000000000E+00 -0.00000000000E+00 -0.57067402624E+03  0.57067402624E+03  0.00000000000E+00 0.  1.
         23    2    1    2    0    0 -0.34043202385E+02 -0.47390719483E+02 -0.39455157283E+03  0.40868396422E+03  0.89144932950E+02 0.  0.
         24    2    1    2    0    0  0.44994484340E+02  0.27265970855E+02  0.21234607541E+03  0.23592819548E+03  0.88336407523E+02 0.  0.
        -11    1    4    4    0    0  0.15830449117E+02  0.43564338867E+02  0.42693715319E+02  0.63017521911E+02  0.00000000000E+00 0.  1.
         12    1    4    4    0    0  0.29164035223E+02 -0.16298368011E+02  0.16965236009E+03  0.17291067357E+03  0.00000000000E+00 0. -1.
        -13    1    3    3    0    0  0.12615060655E+02 -0.56928032924E+02 -0.23870876778E+03  0.24572711796E+03  0.00000000000E+00 0. -1.
         13    1    3    3    0    0 -0.46658263040E+02  0.95373134416E+01 -0.15584280505E+03  0.16295684626E+03  0.00000000000E+00 0.  1.
         21    1    1    2  502  501 -0.10951281955E+02  0.20124748627E+02 -0.15643072175E+03  0.15809967360E+03  0.00000000000E+00 0.  1.
<scales pt_clust_5="13000.00000" pt_clust_6="13000.00000" pt_clust_7="13000.00000" pt_clust_8="13000.00000" pt_clust_9="22.91148"></scales>
<clustering>
<clus scale="   22.911">  2  9  1 -1</clus>
<clus scale="   88.336">  5  6 -1 -1</clus>
<clus scale="   89.145">  7  8 -1 -1</clus>
<clus scale="  102.834">  1  5  2 -1</clus>
<clus scale="  102.834">  1  5  2 -1</clus>
</clustering>
</event>
<event>
 9    2  0.5608219E-005  0.1329959E+03  0.7546771E-02  0.1224087E+00
         -1   -1    0    0    0  501 -0.00000000000E+00  0.00000000000E+00  0.23150276641E+02  0.23150276641E+02  0.00000000000E+00 0.  1.
          2   -1    0    0  502    0  0.00000000000E+00 -0.00000000000E+00 -0.10649612515E+04  0.10649612515E+04  0.00000000000E+00 0. -1.
         24    2    1    2    0    0  0.93256783112E+02 -0.51624276570E+02 -0.32219855518E+03  0.35013859489E+03  0.86158186763E+02 0.  0.
         23    2    1    2    0    0 -0.56684927533E+02  0.64403109656E+02 -0.56700657094E+03  0.58052661140E+03  0.90298136778E+02 0.  0.
        -11    1    3    3    0    0 -0.15285752700E+02 -0.17516974363E+02 -0.51749079014E+02  0.56731523911E+02  0.00000000000E+00 0.  1.
         12    1    3    3    0    0  0.10854253581E+03 -0.34107302207E+02 -0.27044947617E+03  0.29340707098E+03  0.00000000000E+00 0. -1.
        -13    1    4    4    0    0  0.17969144362E+02  0.27433507426E+02 -0.80243016777E+02  0.86685807490E+02  0.00000000000E+00 0. -1.
         13    1    4    4    0    0 -0.74654071895E+02  0.36969602230E+02 -0.48676355417E+03  0.49384080391E+03  0.00000000000E+00 0.  1.
         21    1    1    2  502  501 -0.36571855579E+02 -0.12778833086E+02 -0.15260584874E+03  0.15744632185E+03  0.00000000000E+00 0. -1.
<scales pt_clust_5="13000.00000" pt_clust_6="13000.00000" pt_clust_7="13000.00000" pt_clust_8="13000.00000" pt_clust_9="38.74015"></scales>
<clustering>
<clus scale="   38.740">  2  9  1 -1</clus>
<clus scale="   86.158">  5  6 -1 -1</clus>
<clus scale="   90.298">  7  8 -1 -1</clus>
<clus scale="  130.221">  1  5  2 -1</clus>
<clus scale="   38.740">  2  5  1 -1</clus>
</clustering>
</event>
<event>
 9    2  0.5608219E-005  0.1104235E+03  0.7546771E-02  0.1263017E+00
         -1   -1    0    0    0  501 -0.00000000000E+00  0.00000000000E+00  0.19136018174E+02  0.19136018174E+02  0.00000000000E+00 0.  1.
          2   -1    0    0  502    0  0.00000000000E+00 -0.00000000000E+00 -0.13846121934E+04  0.13846121934E+04  0.00000000000E+00 0. -1.
         23    2    1    2    0    0 -0.39738485602E+02 -0.42049105320E+02 -0.18845320451E+03  0.21718568261E+03  0.91146782418E+02 0.  0.
         24    2    1    2    0    0  0.62108852168E+02  0.58631689891E+02 -0.10366946038E+04  0.10434979772E+04  0.82807863678E+02 0.  0.
        -11    1    4    4    0    0  0.28878503523E+01  0.20116186241E+02 -0.46016031287E+02  0.50303834485E+02  0.00000000000E+00 0.  1.
         12    1    4    4    0    0  0.59221001816E+02  0.38515503649E+02 -0.99067857252E+03  0.99319414272E+03  0.00000000000E+00 0. -1.
        -11    1    3    3    0    0 -0.67395518844E+02 -0.14545276286E+02 -0.12149234076E+03  0.13969291280E+03  0.00000000000E+00 0.  1.
         11    1    3    3    0    0  0.27657033242E+02 -0.27503829035E+02 -0.66960863750E+02  0.77492769814E+02  0.00000000000E+00 0. -1.
         21    1    1    2  502  501 -0.22370366566E+02 -0.16582584570E+02 -0.14032836693E+03  0.14306455179E+03  0.00000000000E+00 0.  1.
<scales pt_clust_5="13000.00000" pt_clust_6="13000.00000" pt_clust_7="13000.00000" pt_clust_8="13000.00000" pt_clust_9="27.84628"></scales>
<clustering>
<clus scale="   27.846">  2  9  1 -1</clus>
<clus scale="   82.808">  5  6 -1 -1</clus>
<clus scale="   91.147">  7  8 -1 -1</clus>
<clus scale="  103.647">  2  5  1 -1</clus>
<clus scale="   27.846">  2  5  1 -1</clus>
</clustering>
</event>
<event>
 9    2  0.5608219E-005  0.2675071E+03  0.7546771E-02  0.1103284E+00
          2   -1    0    0  502    0  0.00000000000E+00  0.00000000000E+00  0.23977693500E+03  0.23977693500E+03  0.00000000000E+00 0. -1.
         -1   -1    0    0    0  501 -0.00000000000E+00 -0.00000000000E+00 -0.34922377161E+03  0.34922377161E+03  0.00000000000E+00 0.  1.
         24    2    1    2    0    0  0.13173079133E+03  0.19813375033E+03 -0.81307937169E+02  0.26383937222E+03  0.79939034761E+02 0.  0.
         23    2    1    2    0    0 -0.13657330892E+03 -0.23194727578E+03 -0.43407244461E+02  0.28774573820E+03  0.91987029122E+02 0.  0.
        -13    1    3    3    0    0  0.95197330259E+02  0.80719246804E+02 -0.62008835547E+02  0.13936722778E+03  0.00000000000E+00 0.  1.
         14    1    3    3    0    0  0.36533461071E+02  0.11741450353E+03 -0.19299101622E+02  0.12447214444E+03  0.00000000000E+00 0. -1.
        -11    1    4    4    0    0 -0.47286791040E+02 -0.16414134482E+03 -0.40697792286E+02  0.17559821179E+03  0.00000000000E+00 0.  1.
         11    1    4    4    0    0 -0.89286517877E+02 -0.67805930962E+02 -0.27094521750E+01  0.11214752641E+03  0.00000000000E+00 0. -1.
         21    1    1    2  502  501  0.48425175852E+01  0.33813525450E+02  0.15268345020E+02  0.37415596207E+02  0.00000000000E+00 0. -1.
<scales pt_clust_5="13000.00000" pt_clust_6="13000.00000" pt_clust_7="13000.00000" pt_clust_8="13000.00000" pt_clust_9="34.15852"></scales>
<clustering>
<clus scale="   34.159">  1  9  2 -1</clus>
<clus scale="   79.939">  5  6 -1 -1</clus>
<clus scale="   91.987">  7  8 -1 -1</clus>
<clus scale="  263.607">  2  5  1 -1</clus>
<clus scale="   34.159">  1  5  2 -1</clus>
</clustering>
</event>
<event>
 9    2  0.5608219E-005  0.9181519E+02  0.7546771E-02  0.1306277E+00
         -3   -1    0    0    0  501 -0.00000000000E+00  0.00000000000E+00  0.26760294815E+03  0.26760294815E+03  0.00000000000E+00 0.  1.
          4   -1    0    0  502    0  0.00000000000E+00 -0.00000000000E+00 -0.57479589703E+02  0.57479589703E+02  0.00000000000E+00 0. -1.
         23    2    1    2    0    0 -0.12913430094E+02  0.20664033290E+02  0.12644343640E+03  0.15789674091E+03  0.91376579238E+02 0.  0.
         24    2    1    2    0    0  0.66961290229E+01  0.61768014234E+00 -0.12559586784E+01  0.79403851225E+02  0.79108624590E+02 0.  0.
        -13    1    4    4    0    0  0.14557002517E+02 -0.28710394533E+02  0.23803522613E+02  0.40034994259E+02  0.00000000000E+00 0.  1.
         14    1    4    4    0    0 -0.78608734944E+01  0.29328074675E+02 -0.25059481291E+02  0.39368856966E+02  0.00000000000E+00 0. -1.
        -13    1    3    3    0    0 -0.29242073354E+02 -0.20845673371E+01  0.12654288051E+03  0.12989436047E+03  0.00000000000E+00 0.  1.
         13    1    3    3    0    0  0.16328643260E+02  0.22748600627E+02 -0.99444106729E-01  0.28002380440E+02  0.00000000000E+00 0. -1.
         21    1    1    2  502  501  0.62173010710E+01 -0.21281713432E+02  0.84935880724E+02  0.87781945715E+02  0.00000000000E+00 0.  1.
<scales pt_clust_5="13000.00000" pt_clust_6="13000.00000" pt_clust_7="13000.00000" pt_clust_8="13000.00000" pt_clust_9="22.17129"></scales>
<clustering>
<clus scale="   22.171">  1  9  2 -1</clus>
<clus scale="   79.109">  5  6 -1 -1</clus>
<clus scale="   79.615">  2  5  1 -1</clus>
<clus scale="   91.377">  7  8 -1 -1</clus>
<clus scale="   79.615">  2  5  1 -1</clus>
</clustering>
</event>
<event>
 9    2  0.5608219E-005  0.1274006E+03  0.7546771E-02  0.1246831E+00
         -1   -1    0    0    0  501 -0.00000000000E+00  0.00000000000E+00  0.16797510276E+03  0.16797510276E+03  0.00000000000E+00 0.  1.
          2   -1    0    0  502    0  0.00000000000E+00 -0.00000000000E+00 -0.18985303520E+03  0.18985303520E+03  0.00000000000E+00 0. -1.
         24    2    1    2    0    0 -0.43693928976E+02 -0.12585676959E+02  0.27328607835E+02  0.96944928349E+02  0.81141281925E+02 0.  0.
         23    2    1    2    0    0 -0.74683081601E+02  0.45121779407E+01 -0.73954962607E+02  0.13967767167E+03  0.91883584175E+02 0.  0.
        -13    1    3    3    0    0 -0.67261006430E+02 -0.53643378410E+01  0.25833914642E+02  0.72251022499E+02  0.00000000000E+00 0.  1.
         14    1    3    3    0    0  0.23567077454E+02 -0.72213391177E+01  0.14946931929E+01  0.24693905849E+02  0.00000000000E+00 0. -1.
        -11    1    4    4    0    0 -0.56182435223E+02 -0.38918318848E+02 -0.58624202632E+02  0.90043870995E+02  0.00000000000E+00 0. -1.
         11    1    4    4    0    0 -0.18500646378E+02  0.43430496789E+02 -0.15330759974E+02  0.49633800671E+02  0.00000000000E+00 0.  1.
         21    1    1    2  502  501  0.11837701058E+03  0.80734990180E+01  0.24748422338E+02  0.12120553794E+03  0.00000000000E+00 0.  1.
<scales pt_clust_5="13000.00000" pt_clust_6="13000.00000" pt_clust_7="13000.00000" pt_clust_8="13000.00000" pt_clust_9="88.25152"></scales>
<clustering>
<clus scale="   81.141">  5  6 -1 -1</clus>
<clus scale="   91.884">  7  8 -1 -1</clus>
<clus scale="   93.013">  1  5  2 -1</clus>
<clus scale="   88.252">  1  9  2 -1</clus>
<clus scale="  127.401">  2  5  1 -1</clus>
</clustering>
</event>
<event>
 9    2  0.5608219E-005  0.9805337E+02  0.7546771E-02  0.1285772E+00
         -1   -1    0    0    0  501 -0.00000000000E+00  0.00000000000E+00  0.12600685687E+02  0.12600685687E+02  0.00000000000E+00 0.  1.
          2   -1    0    0  502    0  0.00000000000E+00 -0.00000000000E+00 -0.14866399499E+04  0.14866399499E+04  0.00000000000E+00 0. -1.
         23    2    1    2    0    0 -0.58566670476E+02  0.63982595200E+01 -0.54348332727E+03  0.55370395259E+03  0.87994019580E+02 0.  0.
         24    2    1    2    0    0  0.36103263436E+02  0.54718317535E+01 -0.90413565818E+03  0.90888242196E+03  0.85279434718E+02 0.  0.
        -11    1    4    4    0    0  0.37711580642E+02  0.22307389229E+01 -0.14823331846E+03  0.15297142287E+03  0.00000000000E+00 0.  1.
         12    1    4    4    0    0 -0.16083172068E+01  0.32410928306E+01 -0.75590233971E+03  0.75591099909E+03  0.00000000000E+00 0. -1.
        -11    1    3    3    0    0 -0.58809730336E+02  0.40725734792E+02 -0.36070081414E+03  0.36772577715E+03  0.00000000000E+00 0.  1.
         11    1    3    3    0    0  0.24305985964E+00 -0.34327475272E+02 -0.18278251312E+03  0.18597817544E+03  0.00000000000E+00 0. -1.
         21    1    1    2  502  501  0.22463407041E+02 -0.11870091274E+02 -0.26420278809E+02  0.36654261076E+02  0.00000000000E+00 0. -1.
<scales pt_clust_5="13000.00000" pt_clust_6="13000.00000" pt_clust_7="13000.00000" pt_clust_8="13000.00000" pt_clust_9="25.40677"></scales>
<clustering>
<clus scale="   25.407">  1  9  2 -1</clus>
<clus scale="   85.279">  5  6 -1 -1</clus>
<clus scale="   87.994">  7  8 -1 -1</clus>
<clus scale="   95.625">  2  5  1 -1</clus>
<clus scale="   95.625">  2  5  1 -1</clus>
</clustering>
</event>
<event>
 9    2  0.5608219E-005  0.1079406E+03  0.7546771E-02  0.1267781E+00
         -1   -1    0    0    0  501 -0.00000000000E+00  0.00000000000E+00  0.96947526546E+01  0.96947526546E+01  0.00000000000E+00 0.  1.
          2   -1    0    0  502    0  0.00000000000E+00 -0.00000000000E+00 -0.18587932423E+04  0.18587932423E+04  0.00000000000E+00 0. -1.
         23    2    1    2    0    0  0.58243875564E+02 -0.22352954406E+02 -0.44689909246E+03  0.46002953853E+03  0.89534204993E+02 0.  0.
         24    2    1    2    0    0 -0.42506371119E+02  0.43780437300E+02 -0.12337932976E+04  0.12379667545E+04  0.81192768270E+02 0.  0.
        -11    1    4    4    0    0  0.15653892979E+02  0.22119959906E+02 -0.15214776968E+03  0.15454216515E+03  0.00000000000E+00 0.  1.
         12    1    4    4    0    0 -0.58160264098E+02  0.21660477394E+02 -0.10816455279E+04  0.10834245893E+04  0.00000000000E+00 0. -1.
        -13    1    3    3    0    0  0.97628368086E+01  0.29878917281E+02 -0.74283938172E+02  0.80660809262E+02  0.00000000000E+00 0. -1.
         13    1    3    3    0    0  0.48481038755E+02 -0.52231871686E+02 -0.37261515429E+03  0.37936872927E+03  0.00000000000E+00 0.  1.
         21    1    1    2  502  501 -0.15737504445E+02 -0.21427482895E+02 -0.16840609956E+03  0.17049170196E+03  0.00000000000E+00 0.  1.
<scales pt_clust_5="13000.00000" pt_clust_6="13000.00000" pt_clust_7="13000.00000" pt_clust_8="13000.00000" pt_clust_9="26.58582"></scales>
<clustering>
<clus scale="   26.586">  1  9  2 -1</clus>
<clus scale="   81.193">  5  6 -1 -1</clus>
<clus scale="   89.534">  7  8 -1 -1</clus>
<clus scale="  101.129">  2  5  1 -1</clus>
<clus scale="  101.129">  2  5  1 -1</clus>
</clustering>
</event>
<event>
 9    2  0.5608219E-005  0.1041806E+03  0.7546771E-02  0.1274148E+00
         -1   -1    0    0    0  501 -0.00000000000E+00  0.00000000000E+00  0.10747869301E+03  0.10747869301E+03  0.00000000000E+00 0.  1.
          2   -1    0    0  502    0  0.00000000000E+00 -0.00000000000E+00 -0.39696430412E+03  0.39696430412E+03  0.00000000000E+00 0. -1.
         23    2    1    2    0    0  0.22704322501E+02 -0.53978653418E+02 -0.52054746636E+02  0.11697239207E+03  0.86854260547E+02 0.  0.
         24    2    1    2    0    0 -0.41147960929E+00  0.58157126419E+02 -0.30250765750E+03  0.31855457302E+03  0.81140079345E+02 0.  0.
        -11    1    4    4    0    0  0.18294899042E+02 -0.10316927011E+02 -0.27906294888E+02  0.34927118523E+02  0.00000000000E+00 0.  1.
         12    1    4    4    0    0 -0.18706378652E+02  0.68474053431E+02 -0.27460136262E+03  0.28362745450E+03  0.00000000000E+00 0. -1.
        -11    1    3    3    0    0  0.18165703063E+01 -0.73624568817E+02 -0.25632482381E+02  0.77980133458E+02  0.00000000000E+00 0.  1.
         11    1    3    3    0    0  0.20887752195E+02  0.19645915399E+02 -0.26422264255E+02  0.38992258616E+02  0.00000000000E+00 0. -1.
         21    1    1    2  502  501 -0.22292842892E+02 -0.41784730017E+01  0.65076793028E+02  0.68916032036E+02  0.00000000000E+00 0.  1.
<scales pt_clust_5="13000.00000" pt_clust_6="13000.00000" pt_clust_7="13000.00000" pt_clust_8="13000.00000" pt_clust_9="22.68106"></scales>
<clustering>
<clus scale="   22.681">  1  9  2 -1</clus>
<clus scale="   81.140">  5  6 -1 -1</clus>
<clus scale="   86.854">  7  8 -1 -1</clus>
<clus scale="   99.467">  2  5  1 -1</clus>
<clus scale="   99.467">  2  5  1 -1</clus>
</clustering>
</event>
<event>
 9    2  0.5608219E-005  0.1089349E+03  0.7546771E-02  0.1266110E+00
          2   -1    0    0  502    0  0.00000000000E+00  0.00000000000E+00  0.36440108784E+03  0.36440108784E+03  0.00000000000E+00 0. -1.
         -1   -1    0    0    0  501 -0.00000000000E+00 -0.00000000000E+00 -0.10023686911E+03  0.10023686911E+03  0.00000000000E+00 0.  1.
         24    2    1    2    0    0  0.38223551436E+02  0.27673636006E+02  0.19388002237E+02  0.97594812855E+02  0.83198454621E+02 0.  0.
         23    2    1    2    0    0  0.32130988846E+01 -0.66730838523E+02  0.27853886318E+03  0.30084361714E+03  0.91976382057E+02 0.  0.
        -11    1    3    3    0    0 -0.26510943391E+02  0.99573117025E+01  0.27791115016E+01  0.28455256747E+02  0.00000000000E+00 0.  1.
         12    1    3    3    0    0  0.64734494827E+02  0.17716324304E+02  0.16608890735E+02  0.69139556107E+02  0.00000000000E+00 0. -1.
        -13    1    4    4    0    0 -0.42463293936E+02 -0.25248670613E+02  0.92896031581E+02  0.10521549022E+03  0.00000000000E+00 0.  1.
         13    1    4    4    0    0  0.45676392820E+02 -0.41482167910E+02  0.18564283160E+03  0.19562812692E+03  0.00000000000E+00 0. -1.
         21    1    1    2  502  501 -0.41436650320E+02  0.39057202516E+02 -0.33762646684E+02  0.66199526956E+02  0.00000000000E+00 0.  1.
<scales pt_clust_5="13000.00000" pt_clust_6="13000.00000" pt_clust_7="13000.00000" pt_clust_8="13000.00000" pt_clust_9="56.94261"></scales>
<clustering>
<clus scale="   56.943">  2  9  1 -1</clus>
<clus scale="   83.198">  5  6 -1 -1</clus>
<clus scale="   91.976">  7  8 -1 -1</clus>
<clus scale="  101.632">  2  5  1 -1</clus>
<clus scale="  108.935">  1  5  2 -1</clus>
</clustering>
</event>
<event>
 9    2  0.5608219E-005  0.1323770E+03  0.7546771E-02  0.1234746E+00
          4   -1    0    0  502    0  0.00000000000E+00  0.00000000000E+00  0.25686770895E+03  0.25686770895E+03  0.00000000000E+00 0. -1.
         -3   -1    0    0    0  501 -0.00000000000E+00 -0.00000000000E+00 -0.16812294159E+03  0.16812294159E+03  0.00000000000E+00 0.  1.
         24    2    1    2    0    0 -0.10386299366E+01 -0.52103172452E+02 -0.11806262302E+03  0.15164648324E+03  0.79637011445E+02 0.  0.
         23    2    1    2    0    0 -0.77484107025E+01  0.72054143079E+02  0.21224001222E+03  0.25087715388E+03  0.11243525315E+03 0.  0.
        -13    1    3    3    0    0 -0.20103253236E+02 -0.32299498071E+02 -0.11818465992E+03  0.12415720763E+03  0.00000000000E+00 0.  1.
         14    1    3    3    0    0  0.19064623300E+02 -0.19803674381E+02  0.12203689574E+00  0.27489275610E+02  0.00000000000E+00 0. -1.
        -11    1    4    4    0    0  0.30511933725E+02  0.20889696433E+02  0.93154835917E+01  0.38133131936E+02  0.00000000000E+00 0.  1.
         11    1    4    4    0    0 -0.38260344427E+02  0.51164446647E+02  0.20292452862E+03  0.21274402195E+03  0.00000000000E+00 0. -1.
         21    1    1    2  502  501  0.87870406391E+01 -0.19950970627E+02 -0.54326218419E+01  0.22467013425E+02  0.00000000000E+00 0.  1.
<scales pt_clust_5="13000.00000" pt_clust_6="13000.00000" pt_clust_7="13000.00000" pt_clust_8="13000.00000" pt_clust_9="21.80031"></scales>
<clustering>
<clus scale="   21.800">  2  9  1 -1</clus>
<clus scale="   79.637">  5  6 -1 -1</clus>
<clus scale="  105.944">  2  5  1 -1</clus>
<clus scale="  112.435">  7  8 -1 -1</clus>
<clus scale="  132.377">  1  5  2 -1</clus>
</clustering>
</event>
<event>
 9    2  0.5608219E-005  0.1099063E+03  0.7546771E-02  0.1262052E+00
         -1   -1    0    0    0  501 -0.00000000000E+00  0.00000000000E+00  0.40290231752E+03  0.40290231752E+03  0.00000000000E+00 0.  1.
          2   -1    0    0  502    0  0.00000000000E+00 -0.00000000000E+00 -0.36988601874E+03  0.36988601874E+03  0.00000000000E+00 0. -1.
         23    2    1    2    0    0 -0.48642151815E+02  0.78712829836E+02  0.29220467490E+03  0.31982978688E+03  0.91355087585E+02 0.  0.
         24    2    1    2    0    0  0.15804822666E+02 -0.52684648361E+02 -0.34257866344E+03  0.35963279498E+03  0.94605190049E+02 0.  0.
        -11    1    4    4    0    0 -0.29985947931E+02 -0.55965041412E+02 -0.19445101102E+03  0.20455424371E+03  0.00000000000E+00 0.  1.
         12    1    4    4    0    0  0.45790770596E+02  0.32803930510E+01 -0.14812765243E+03  0.15507855127E+03  0.00000000000E+00 0. -1.
        -11    1    3    3    0    0 -0.43705223995E+02  0.18803282200E+00  0.57086034508E+02  0.71895739072E+02  0.00000000000E+00 0.  1.
         11    1    3    3    0    0 -0.49369278200E+01  0.78524797014E+02  0.23511864039E+03  0.24793404781E+03  0.00000000000E+00 0. -1.
         21    1    1    2  502  501  0.32837329149E+02 -0.26028181474E+02  0.83390287313E+02  0.93325754402E+02  0.00000000000E+00 0. -1.
<scales pt_clust_5="13000.00000" pt_clust_6="13000.00000" pt_clust_7="13000.00000" pt_clust_8="13000.00000" pt_clust_9="41.90175"></scales>
<clustering>
<clus scale="   41.902">  1  9  2 -1</clus>
<clus scale="   91.355">  7  8 -1 -1</clus>
<clus scale="   94.605">  5  6 -1 -1</clus>
<clus scale="  107.121">  1  7  2 -1</clus>
<clus scale="  109.906">  2  5  1 -1</clus>
</clustering>
</event>
<event>
 9    2  0.5608219E-005  0.1298574E+03  0.7546771E-02  0.1232251E+00
         -1   -1    0    0    0  501 -0.00000000000E+00  0.00000000000E+00  0.95054176355E+02  0.95054176355E+02  0.00000000000E+00 0.  1.
          2   -1    0    0  502    0  0.00000000000E+00 -0.00000000000E+00 -0.38400554008E+03  0.38400554008E+03  0.00000000000E+00 0. -1.
         23    2    1    2    0    0 -0.12196792188E+02  0.92701821484E+02  0.19921146245E+02  0.13584739945E+03  0.96515669321E+02 0.  0.
         24    2    1    2    0    0  0.62428833358E+01 -0.54154991680E+02 -0.27499722763E+03  0.29155148199E+03  0.80044079904E+02 0.  0.
        -11    1    4    4    0    0  0.44003909392E+01 -0.62119048737E+02 -0.11041183233E+03  0.12676321381E+03  0.00000000000E+00 0.  1.
         12    1    4    4    0    0  0.18424923966E+01  0.79640570574E+01 -0.16458539530E+03  0.16478826818E+03  0.00000000000E+00 0. -1.
        -13    1    3    3    0    0 -0.33967022322E+02 -0.42043136177E+01  0.11764250409E+02  0.36191607399E+02  0.00000000000E+00 0.  1.
         13    1    3    3    0    0  0.21770230134E+02  0.96906135101E+02  0.81568958363E+01  0.99655792055E+02  0.00000000000E+00 0. -1.
         21    1    1    2  502  501  0.59539088524E+01 -0.38546829804E+02 -0.33875282334E+02  0.51660834989E+02  0.00000000000E+00 0.  1.
<scales pt_clust_5="13000.00000" pt_clust_6="13000.00000" pt_clust_7="13000.00000" pt_clust_8="13000.00000" pt_clust_9="39.00394"></scales>
<clustering>
<clus scale="   39.004">  2  9  1 -1</clus>
<clus scale="   80.044">  5  6 -1 -1</clus>
<clus scale="   96.516">  7  8 -1 -1</clus>
<clus scale="  118.130">  2  5  1 -1</clus>
<clus scale="   39.004">  2  5  1 -1</clus>
</clustering>
</event>
<event>
 9    2  0.5608219E-005  0.1030405E+03  0.7546771E-02  0.1281320E+00
         -1   -1    0    0    0  501 -0.00000000000E+00  0.00000000000E+00  0.11328088533E+03  0.11328088533E+03  0.00000000000E+00 0.  1.
          2   -1    0    0  502    0  0.00000000000E+00 -0.00000000000E+00 -0.44402920343E+03  0.44402920343E+03  0.00000000000E+00 0. -1.
         23    2    1    2    0    0  0.14281436722E+02  0.39285525610E+02  0.75604287375E+02  0.12659679766E+03  0.92538796998E+02 0.  0.
         24    2    1    2    0    0  0.92610091712E+01 -0.44849989018E+02 -0.39286395185E+03  0.40301574990E+03  0.77345473045E+02 0.  0.
        -11    1    4    4    0    0  0.38324947013E+02 -0.10238395098E+02 -0.11874400751E+03  0.12519491051E+03  0.00000000000E+00 0.  1.
         12    1    4    4    0    0 -0.29063937842E+02 -0.34611593920E+02 -0.27411994434E+03  0.27782083939E+03  0.00000000000E+00 0. -1.
        -13    1    3    3    0    0 -0.23286247930E+02 -0.20410864495E+02  0.21384205324E+02  0.37631595361E+02  0.00000000000E+00 0. -1.
         13    1    3    3    0    0  0.37567684652E+02  0.59696390105E+02  0.54220082051E+02  0.88965202295E+02  0.00000000000E+00 0.  1.
         21    1    1    2  502  501 -0.23542445893E+02  0.55644634073E+01 -0.13488653630E+02  0.27697541198E+02  0.00000000000E+00 0. -1.
<scales pt_clust_5="13000.00000" pt_clust_6="13000.00000" pt_clust_7="13000.00000" pt_clust_8="13000.00000" pt_clust_9="24.19111"></scales>
<clustering>
<clus scale="   24.191">  1  9  2 -1</clus>
<clus scale="   77.345">  5  6 -1 -1</clus>
<clus scale="   89.645">  2  5  1 -1</clus>
<clus scale="   92.539">  7  8 -1 -1</clus>
<clus scale="   89.645">  2  5  1 -1</clus>
</clustering>
</event>
<event>
 9    2  0.5608219E-005  0.1718324E+03  0.7546771E-02  0.1176624E+00
          2   -1    0    0  502    0  0.00000000000E+00  0.00000000000E+00  0.10135784292E+04  0.10135784292E+04  0.00000000000E+00 0. -1.
         -1   -1    0    0    0  501 -0.00000000000E+00 -0.00000000000E+00 -0.11933677794E+03  0.11933677794E+03  0.00000000000E+00 0.  1.
         24    2    1    2    0    0 -0.16182358194E+03  0.10671016672E+03  0.30356802267E+02  0.21421455649E+03  0.85979121957E+02 0.  0.
         23    2    1    2    0    0  0.10862633512E+03 -0.90705702720E+02  0.84256414973E+03  0.85919718724E+03  0.90984916153E+02 0.  0.
        -13    1    3    3    0    0 -0.14497081541E+03  0.57014381365E+02  0.48165893967E+01  0.15585370235E+03  0.00000000000E+00 0.  1.
         14    1    3    3    0    0 -0.16852766532E+02  0.49695785356E+02  0.25540212870E+02  0.58360854135E+02  0.00000000000E+00 0. -1.
        -11    1    4    4    0    0  0.55827186884E+02 -0.98339788827E+02  0.62803940568E+03  0.63813860873E+03  0.00000000000E+00 0. -1.
         11    1    4    4    0    0  0.52799148236E+02  0.76340861074E+01  0.21452474405E+03  0.22105857851E+03  0.00000000000E+00 0.  1.
         21    1    1    2  502  501  0.53197246824E+02 -0.16004464001E+02  0.21320699216E+02  0.59503463367E+02  0.00000000000E+00 0. -1.
<scales pt_clust_5="13000.00000" pt_clust_6="13000.00000" pt_clust_7="13000.00000" pt_clust_8="13000.00000" pt_clust_9="55.55259"></scales>
<clustering>
<clus scale="   55.553">  2  9  1 -1</clus>
<clus scale="   85.979">  5  6 -1 -1</clus>
<clus scale="   90.985">  7  8 -1 -1</clus>
<clus scale="  169.235">  2  5  1 -1</clus>
<clus scale="  171.832">  1  5  2 -1</clus>
</clustering>
</event>
<event>
 9    2  0.5608219E-005  0.9612725E+02  0.7546771E-02  0.1293720E+00
          2   -1    0    0  502    0  0.00000000000E+00  0.00000000000E+00  0.23680632212E+03  0.23680632212E+03  0.00000000000E+00 0. -1.
         -1   -1    0    0    0  501 -0.00000000000E+00 -0.00000000000E+00 -0.25642130490E+03  0.25642130490E+03  0.00000000000E+00 0.  1.
         23    2    1    2    0    0 -0.84416046425E+02 -0.16733244009E+02 -0.19165656576E+03  0.22903571664E+03  0.91208826050E+02 0.  0.
         24    2    1    2    0    0  0.27345036080E+02 -0.63645460854E+01  0.18222128760E+03  0.20178810829E+03  0.82009661297E+02 0.  0.
        -11    1    4    4    0    0  0.44455902270E+02 -0.16271333613E+02  0.53004084193E+02  0.71066985903E+02  0.00000000000E+00 0.  1.
         12    1    4    4    0    0 -0.17110866190E+02  0.99067875278E+01  0.12921720341E+03  0.13072112238E+03  0.00000000000E+00 0. -1.
        -11    1    3    3    0    0 -0.16020211772E+02 -0.47694910179E+02 -0.78244156616E+02  0.93024726212E+02  0.00000000000E+00 0. -1.
         11    1    3    3    0    0 -0.68395834652E+02  0.30961666170E+02 -0.11341240914E+03  0.13601099043E+03  0.00000000000E+00 0.  1.
         21    1    1    2  502  501  0.57071010345E+02  0.23097790094E+02 -0.10179704627E+02  0.62403802090E+02  0.00000000000E+00 0.  1.
<scales pt_clust_5="13000.00000" pt_clust_6="13000.00000" pt_clust_7="13000.00000" pt_clust_8="13000.00000" pt_clust_9="61.56791"></scales>
<clustering>
<clus scale="   61.568">  2  9  1 -1</clus>
<clus scale="   82.010">  5  6 -1 -1</clus>
<clus scale="   87.447">  1  5  2 -1</clus>
<clus scale="   91.209">  7  8 -1 -1</clus>
<clus scale="   87.447">  1  5  2 -1</clus>
</clustering>
</event>
<event>
 9    2  0.5608219E-005  0.1342164E+03  0.7546771E-02  0.1222968E+00
          2   -1    0    0  502    0  0.00000000000E+00  0.00000000000E+00  0.30307254669E+03  0.30307254669E+03  0.00000000000E+00 0. -1.
         -1   -1    0    0    0  501 -0.00000000000E+00 -0.00000000000E+00 -0.14927737278E+03  0.14927737278E+03  0.00000000000E+00 0.  1.
         24    2    1    2    0    0 -0.41632468446E+02 -0.80407459178E+02  0.69016710762E+02  0.14040912897E+03  0.82175392988E+02 0.  0.
         23    2    1    2    0    0  0.82780222571E+02  0.72904905202E+02  0.16736125907E+03  0.21937003828E+03  0.89138836681E+02 0.  0.
        -11    1    3    3    0    0  0.17205660681E+02 -0.34318277912E+02 -0.41910683432E+00  0.38392116494E+02  0.00000000000E+00 0.  1.
         12    1    3    3    0    0 -0.58838129127E+02 -0.46089181266E+02  0.69435817597E+02  0.10201701247E+03  0.00000000000E+00 0. -1.
        -13    1    4    4    0    0  0.26808922836E+02  0.60450046235E+02  0.34332114760E+02  0.74509197669E+02  0.00000000000E+00 0.  1.
         13    1    4    4    0    0  0.55971299736E+02  0.12454858968E+02  0.13302914431E+03  0.14486084061E+03  0.00000000000E+00 0. -1.
         21    1    1    2  502  501 -0.41147754125E+02  0.75025539758E+01 -0.82582795915E+02  0.92570752222E+02  0.00000000000E+00 0.  1.
<scales pt_clust_5="13000.00000" pt_clust_6="13000.00000" pt_clust_7="13000.00000" pt_clust_8="13000.00000" pt_clust_9="41.82614"></scales>
<clustering>
<clus scale="   41.826">  2  9  1 -1</clus>
<clus scale="   82.175">  5  6 -1 -1</clus>
<clus scale="   89.139">  7  8 -1 -1</clus>
<clus scale="  129.696">  2  5  1 -1</clus>
<clus scale="  134.216">  1  5  2 -1</clus>
</clustering>
</event>
<event>
 9    2  0.5608219E-005  0.1023642E+03  0.7546771E-02  0.1281677E+00
          2   -1    0    0  502    0  0.00000000000E+00  0.00000000000E+00  0.56927435606E+03  0.56927435606E+03  0.00000000000E+00 0. -1.
         -1   -1    0    0    0  501 -0.00000000000E+00 -0.00000000000E+00 -0.48842115810E+02  0.48842115810E+02  0.00000000000E+00 0.  1.
         24    2    1    2    0    0 -0.61587676282E+01  0.60227404864E+02  0.48583262749E+02  0.11220143843E+03  0.81015792605E+02 0.  0.
         23    2    1    2    0    0  0.18030804502E+02 -0.33793392089E+02  0.46530951325E+03  0.47620868927E+03  0.93779898460E+02 0.  0.
        -13    1    3    3    0    0 -0.12756817083E+02  0.24936590654E+02 -0.20252897737E+02  0.34565153006E+02  0.00000000000E+00 0.  1.
         14    1    3    3    0    0  0.65980494553E+01  0.35290814210E+02  0.68836160487E+02  0.77636285426E+02  0.00000000000E+00 0. -1.
        -11    1    4    4    0    0  0.50515382127E+02 -0.44268401628E+02  0.30751048774E+03  0.31476053642E+03  0.00000000000E+00 0. -1.
         11    1    4    4    0    0 -0.32484577625E+02  0.10475009539E+02  0.15779902551E+03  0.16144815285E+03  0.00000000000E+00 0.  1.
         21    1    1    2  502  501 -0.11872036874E+02 -0.26434012775E+02  0.65394642442E+01  0.29706344163E+02  0.00000000000E+00 0.  1.
<scales pt_clust_5="13000.00000" pt_clust_6="13000.00000" pt_clust_7="13000.00000" pt_clust_8="13000.00000" pt_clust_9="28.97762"></scales>
<clustering>
<clus scale="   28.978">  2  9  1 -1</clus>
<clus scale="   81.016">  5  6 -1 -1</clus>
<clus scale="   90.815">  2  5  1 -1</clus>
<clus scale="   93.780">  7  8 -1 -1</clus>
<clus scale="  102.364">  1  5  2 -1</clus>
</clustering>
</event>
<event>
 9    2  0.5608219E-005  0.2904538E+03  0.7546771E-02  0.1090183E+00
          2   -1    0    0  502    0  0.00000000000E+00  0.00000000000E+00  0.45778360103E+03  0.45778360103E+03  0.00000000000E+00 0. -1.
         -1   -1    0    0    0  501 -0.00000000000E+00 -0.00000000000E+00 -0.85984574889E+03  0.85984574889E+03  0.00000000000E+00 0.  1.
         23    2    1    2    0    0  0.21069178593E+03 -0.95879767193E+01 -0.36989341742E+03  0.43310767123E+03  0.79234819811E+02 0.  0.
         24    2    1    2    0    0 -0.28766169884E+03  0.99792996452E+01  0.36960242567E+03  0.47544395686E+03  0.81192140311E+02 0.  0.
        -11    1    4    4    0    0 -0.83155509662E+02 -0.29272954850E+02  0.82233182476E+02  0.12055721037E+03  0.00000000000E+00 0.  1.
         12    1    4    4    0    0 -0.20450618918E+03  0.39252254495E+02  0.28736924319E+03  0.35488674648E+03  0.00000000000E+00 0. -1.
        -11    1    3    3    0    0  0.18948417462E+03  0.12864953477E+02 -0.34338368612E+03  0.39240554960E+03  0.00000000000E+00 0.  1.
         11    1    3    3    0    0  0.21207611308E+02 -0.22452930196E+02 -0.26509731298E+02  0.40702121631E+02  0.00000000000E+00 0. -1.
         21    1    1    2  502  501  0.76969912909E+02 -0.39132292588E+00 -0.40177115610E+03  0.40907772184E+03  0.00000000000E+00 0. -1.
<scales pt_clust_5="13000.00000" pt_clust_6="13000.00000" pt_clust_7="13000.00000" pt_clust_8="13000.00000" pt_clust_9="76.97091"></scales>
<clustering>
<clus scale="   76.971">  2  9  1 -1</clus>
<clus scale="   79.235">  7  8 -1 -1</clus>
<clus scale="   81.192">  5  6 -1 -1</clus>
<clus scale="  289.913">  2  7  1 -1</clus>
<clus scale="  290.454">  1  5  2 -1</clus>
</clustering>
</event>
<event>
 9    2  0.5608219E-005  0.1374884E+03  0.7546771E-02  0.1218538E+00
         -1   -1    0    0    0  501 -0.00000000000E+00  0.00000000000E+00  0.94545625294E+02  0.94545625294E+02  0.00000000000E+00 0.  1.
          2   -1    0    0  502    0  0.00000000000E+00 -0.00000000000E+00 -0.43268286953E+03  0.43268286953E+03  0.00000000000E+00 0. -1.
         23    2    1    2    0    0 -0.10300598345E+03 -0.67650732210E+02 -0.13536387671E+03  0.20597416308E+03  0.94419926611E+02 0.  0.
         24    2    1    2    0    0  0.44196854430E+02  0.82065809882E+02 -0.22349624625E+03  0.25725631754E+03  0.86845159519E+02 0.  0.
        -11    1    4    4    0    0  0.36217840983E+02  0.35865022091E+02 -0.32180615644E+02  0.60279547429E+02  0.00000000000E+00 0.  1.
         12    1    4    4    0    0  0.79790134476E+01  0.46200787791E+02 -0.19131563061E+03  0.19697677011E+03  0.00000000000E+00 0. -1.
        -13    1    3    3    0    0 -0.63742555423E+01  0.20137580935E+02 -0.54928385951E+01  0.21824861408E+02  0.00000000000E+00 0. -1.
         13    1    3    3    0    0 -0.96631727908E+02 -0.87788313145E+02 -0.12987103812E+03  0.18414930167E+03  0.00000000000E+00 0.  1.
         21    1    1    2  502  501  0.58809129020E+02 -0.14415077672E+02  0.20722878726E+02  0.63998014212E+02  0.00000000000E+00 0. -1.
<scales pt_clust_5="13000.00000" pt_clust_6="13000.00000" pt_clust_7="13000.00000" pt_clust_8="13000.00000" pt_clust_9="60.55005"></scales>
<clustering>
<clus scale="   60.550">  1  9  2 -1</clus>
<clus scale="   86.845">  5  6 -1 -1</clus>
<clus scale="   94.420">  7  8 -1 -1</clus>
<clus scale="  132.401">  2  5  1 -1</clus>
<clus scale="  132.401">  2  5  1 -1</clus>
</clustering>
</event>
<event>
 9    2  0.5608219E-005  0.1613868E+03  0.7546771E-02  0.1188802E+00
         -1   -1    0    0    0  501 -0.00000000000E+00  0.00000000000E+00  0.24699681082E+03  0.24699681082E+03  0.00000000000E+00 0.  1.
          2   -1    0    0  502    0  0.00000000000E+00 -0.00000000000E+00 -0.42193221915E+03  0.42193221915E+03  0.00000000000E+00 0. -1.
         23    2    1    2    0    0 -0.50129598676E+02 -0.15521426028E+03  0.16959697518E+03  0.25226602175E+03  0.90942665907E+02 0.  0.
         24    2    1    2    0    0  0.23081339314E+02  0.12908297054E+03 -0.34645316995E+03  0.37900478125E+03  0.80122804116E+02 0.  0.
        -13    1    4    4    0    0 -0.22232216300E+02  0.24210311271E+02 -0.13187196870E+03  0.13590668395E+03  0.00000000000E+00 0.  1.
         14    1    4    4    0    0  0.45313555614E+02  0.10487265926E+03 -0.21458120124E+03  0.24309809730E+03  0.00000000000E+00 0. -1.
        -11    1    3    3    0    0 -0.66212800279E+02 -0.57825764076E+02  0.75162048583E+02  0.11566022419E+03  0.00000000000E+00 0.  1.
         11    1    3    3    0    0  0.16083201604E+02 -0.97388496205E+02  0.94434926599E+02  0.13660579757E+03  0.00000000000E+00 0. -1.
         21    1    1    2  502  501  0.27048259362E+02  0.26131289746E+02  0.19207864340E+01  0.37658226974E+02  0.00000000000E+00 0.  1.
<scales pt_clust_5="13000.00000" pt_clust_6="13000.00000" pt_clust_7="13000.00000" pt_clust_8="13000.00000" pt_clust_9="37.60921"></scales>
<clustering>
<clus scale="   37.609">  1  9  2 -1</clus>
<clus scale="   80.123">  5  6 -1 -1</clus>
<clus scale="   90.943">  7  8 -1 -1</clus>
<clus scale="  155.547">  2  5  1 -1</clus>
<clus scale="  155.547">  2  5  1 -1</clus>
</clustering>
</event>
<event>
 9    2  0.5608219E-005  0.1057539E+03  0.7546771E-02  0.1273905E+00
          4   -1    0    0  502    0  0.00000000000E+00  0.00000000000E+00  0.20874520470E+03  0.20874520470E+03  0.00000000000E+00 0. -1.
         -3   -1    0    0    0  501 -0.00000000000E+00 -0.00000000000E+00 -0.18885383058E+03  0.18885383058E+03  0.00000000000E+00 0.  1.
         23    2    1    2    0    0  0.15725233897E+02  0.21626919408E+02 -0.50290825941E+02  0.10890763497E+03  0.92826177106E+02 0.  0.
         24    2    1    2    0    0 -0.45342446616E+02 -0.31095585062E+02  0.16336899433E+03  0.19045386397E+03  0.80996130254E+02 0.  0.
        -13    1    4    4    0    0  0.15733841511E+01 -0.46356873283E+02  0.99228209795E+02  0.10953388908E+03  0.00000000000E+00 0.  1.
         14    1    4    4    0    0 -0.46915830767E+02  0.15261288221E+02  0.64140784539E+02  0.80919974889E+02  0.00000000000E+00 0. -1.
        -11    1    3    3    0    0 -0.81704020080E+01 -0.34404821891E+02 -0.14213973901E+02  0.38111471926E+02  0.00000000000E+00 0. -1.
         11    1    3    3    0    0  0.23895635905E+02  0.56031741299E+02 -0.36076852040E+02  0.70796163041E+02  0.00000000000E+00 0.  1.
         21    1    1    2  502  501  0.29617212719E+02  0.94686656538E+01 -0.93186794276E+02  0.98237536339E+02  0.00000000000E+00 0.  1.
<scales pt_clust_5="13000.00000" pt_clust_6="13000.00000" pt_clust_7="13000.00000" pt_clust_8="13000.00000" pt_clust_9="31.09397"></scales>
<clustering>
<clus scale="   31.094">  2  9  1 -1</clus>
<clus scale="   80.996">  5  6 -1 -1</clus>
<clus scale="   92.826">  7  8 -1 -1</clus>
<clus scale="   95.538">  1  5  2 -1</clus>
<clus scale="   95.538">  1  5  2 -1</clus>
</clustering>
</event>
<event>
 9    2  0.5608219E-005  0.1846172E+03  0.7546771E-02  0.1186975E+00
         -1   -1    0    0    0  501 -0.00000000000E+00  0.00000000000E+00  0.40287618048E+03  0.40287618048E+03  0.00000000000E+00 0.  1.
          2   -1    0    0  502    0  0.00000000000E+00 -0.00000000000E+00 -0.59425900533E+03  0.59425900533E+03  0.00000000000E+00 0. -1.
         23    2    1    2    0    0  0.63689061400E+02 -0.77438227812E+01  0.32842360128E+03  0.34578951872E+03  0.87132462665E+02 0.  0.
         24    2    1    2    0    0  0.55183228857E+02  0.13682054261E+03 -0.98267123415E+02  0.19474211397E+03  0.80641266014E+02 0.  0.
        -11    1    4    4    0    0  0.69535232044E+02  0.68934133378E+02 -0.66955515840E+02  0.11861747064E+03  0.00000000000E+00 0.  1.
         12    1    4    4    0    0 -0.14352003188E+02  0.67886409229E+02 -0.31311607575E+02  0.76124643332E+02  0.00000000000E+00 0. -1.
        -13    1    3    3    0    0  0.61870791618E+02 -0.41011662506E+02  0.24355279951E+03  0.25461327041E+03  0.00000000000E+00 0.  1.
         13    1    3    3    0    0  0.18182697813E+01  0.33267839725E+02  0.84870801761E+02  0.91176248314E+02  0.00000000000E+00 0. -1.
         21    1    1    2  502  501 -0.11887229026E+03 -0.12907671983E+03 -0.42153930270E+03  0.45660355311E+03  0.00000000000E+00 0. -1.
<scales pt_clust_5="13000.00000" pt_clust_6="13000.00000" pt_clust_7="13000.00000" pt_clust_8="13000.00000" pt_clust_9="166.07379"></scales>
<clustering>
<clus scale="   80.641">  5  6 -1 -1</clus>
<clus scale="   87.132">  7  8 -1 -1</clus>
<clus scale="  108.205">  1  7  2 -1</clus>
<clus scale="  166.074">  2  9  1 -1</clus>
<clus scale="  166.074">  2  5  1 -1</clus>
</clustering>
</event>
<event>
 9    2  0.5608219E-005  0.1122111E+03  0.7546771E-02  0.1259039E+00
         -1   -1    0    0    0  501 -0.00000000000E+00  0.00000000000E+00  0.23219885932E+02  0.23219885932E+02  0.00000000000E+00 0.  1.
          2   -1    0    0  502    0  0.00000000000E+00 -0.00000000000E+00 -0.89220625045E+03  0.89220625045E+03  0.00000000000E+00 0. -1.
         23    2    1    2    0    0  0.39003186239E+02 -0.33928931259E+02 -0.23831770348E+03  0.26043678888E+03  0.91430696690E+02 0.  0.
         24    2    1    2    0    0 -0.37979615131E+02  0.61012707755E+02 -0.61219340653E+03  0.62218822441E+03  0.84690128833E+02 0.  0.
        -13    1    4    4    0    0 -0.59198425545E+02  0.61413306154E+02 -0.40344684421E+03  0.41236561915E+03  0.00000000000E+00 0.  1.
         14    1    4    4    0    0  0.21218810414E+02 -0.40059839867E+00 -0.20874656232E+03  0.20982260525E+03  0.00000000000E+00 0. -1.
        -13    1    3    3    0    0  0.67560589996E+02 -0.13320724368E+02 -0.14038213363E+03  0.15636181906E+03  0.00000000000E+00 0. -1.
         13    1    3    3    0    0 -0.28557403757E+02 -0.20608206891E+02 -0.97935569852E+02  0.10407496982E+03  0.00000000000E+00 0.  1.
         21    1    1    2  502  501 -0.10235711084E+01 -0.27083776496E+02 -0.18475254512E+02  0.32801123097E+02  0.00000000000E+00 0. -1.
<scales pt_clust_5="13000.00000" pt_clust_6="13000.00000" pt_clust_7="13000.00000" pt_clust_8="13000.00000" pt_clust_9="27.10311"></scales>
<clustering>
<clus scale="   27.103">  1  9  2 -1</clus>
<clus scale="   84.690">  5  6 -1 -1</clus>
<clus scale="   91.431">  7  8 -1 -1</clus>
<clus scale="  106.790">  2  5  1 -1</clus>
<clus scale="  106.790">  2  5  1 -1</clus>
</clustering>
</event>
<event>
 9    2  0.5608219E-005  0.9960708E+02  0.7546771E-02  0.1281534E+00
          2   -1    0    0  502    0  0.00000000000E+00  0.00000000000E+00  0.25926717115E+03  0.25926717115E+03  0.00000000000E+00 0. -1.
         -1   -1    0    0    0  501 -0.00000000000E+00 -0.00000000000E+00 -0.12209762839E+03  0.12209762839E+03  0.00000000000E+00 0.  1.
         23    2    1    2    0    0  0.48006791312E+02 -0.31357908629E+02  0.87847368511E+01  0.98697289844E+02  0.79849940359E+02 0.  0.
         24    2    1    2    0    0 -0.60623534647E+02  0.90459246719E+01  0.19070234930E+03  0.21528440309E+03  0.78885654460E+02 0.  0.
        -13    1    4    4    0    0 -0.54069509018E+02  0.28046496929E+00  0.48419595657E+02  0.72581317910E+02  0.00000000000E+00 0.  1.
         14    1    4    4    0    0 -0.65540256289E+01  0.87654597026E+01  0.14228275365E+03  0.14270308518E+03  0.00000000000E+00 0. -1.
        -11    1    3    3    0    0  0.50104971068E+02  0.14581053804E+02  0.20864379361E+01  0.52225170933E+02  0.00000000000E+00 0.  1.
         11    1    3    3    0    0 -0.20981797558E+01 -0.45938962433E+02  0.66982989151E+01  0.46472118911E+02  0.00000000000E+00 0. -1.
         21    1    1    2  502  501  0.12616743335E+02  0.22311983957E+02 -0.62317543395E+02  0.67383106602E+02  0.00000000000E+00 0.  1.
<scales pt_clust_5="13000.00000" pt_clust_6="13000.00000" pt_clust_7="13000.00000" pt_clust_8="13000.00000" pt_clust_9="25.63214"></scales>
<clustering>
<clus scale="   25.632">  2  9  1 -1</clus>
<clus scale="   78.886">  5  6 -1 -1</clus>
<clus scale="   79.850">  7  8 -1 -1</clus>
<clus scale="   98.836">  1  5  2 -1</clus>
<clus scale="   98.836">  1  5  2 -1</clus>
</clustering>
</event>
<event>
 9    2  0.5608219E-005  0.9638397E+02  0.7546771E-02  0.1293245E+00
         -1   -1    0    0    0  501 -0.00000000000E+00  0.00000000000E+00  0.17452320707E+03  0.17452320707E+03  0.00000000000E+00 0.  1.
          2   -1    0    0  502    0  0.00000000000E+00 -0.00000000000E+00 -0.60996181759E+03  0.60996181759E+03  0.00000000000E+00 0. -1.
         23    2    1    2    0    0  0.11186928279E+02  0.20340032358E+02  0.12609169698E+03  0.15822016728E+03  0.92712679857E+02 0.  0.
         24    2    1    2    0    0  0.23238791679E+02 -0.13626074750E+02 -0.58002184001E+03  0.58661458379E+03  0.83460311952E+02 0.  0.
        -13    1    4    4    0    0  0.47236741032E+01 -0.20130905570E+02 -0.31127921762E+02  0.37369960788E+02  0.00000000000E+00 0.  1.
         14    1    4    4    0    0  0.18515117576E+02  0.65048308208E+01 -0.54889391825E+03  0.54924462300E+03  0.00000000000E+00 0. -1.
        -13    1    3    3    0    0 -0.16182377664E+02 -0.28479490396E+02  0.77362220493E+02  0.84011093789E+02  0.00000000000E+00 0.  1.
         13    1    3    3    0    0  0.27369305942E+02  0.48819522754E+02  0.48729476487E+02  0.74209073491E+02  0.00000000000E+00 0. -1.
         21    1    1    2  502  501 -0.34425719958E+02 -0.67139576087E+01  0.18491532517E+02  0.39650273595E+02  0.00000000000E+00 0.  1.
<scales pt_clust_5="13000.00000" pt_clust_6="13000.00000" pt_clust_7="13000.00000" pt_clust_8="13000.00000" pt_clust_9="35.07431"></scales>
<clustering>
<clus scale="   35.074">  1  9  2 -1</clus>
<clus scale="   83.460">  5  6 -1 -1</clus>
<clus scale="   87.521">  2  5  1 -1</clus>
<clus scale="   92.713">  7  8 -1 -1</clus>
<clus scale="   87.521">  2  5  1 -1</clus>
</clustering>
</event>
<event>
 9    2  0.5608219E-005  0.1113874E+03  0.7546771E-02  0.1261396E+00
         -1   -1    0    0    0  501 -0.00000000000E+00  0.00000000000E+00  0.32659339531E+03  0.32659339531E+03  0.00000000000E+00 0.  1.
          2   -1    0    0  502    0  0.00000000000E+00 -0.00000000000E+00 -0.24014976881E+03  0.24014976881E+03  0.00000000000E+00 0. -1.
         24    2    1    2    0    0 -0.39575491782E+02 -0.42003180212E+02  0.22346531109E+03  0.24461051356E+03  0.81037469005E+02 0.  0.
         23    2    1    2    0    0  0.19896391393E+02  0.63296274956E+02 -0.21312505687E+03  0.24069318748E+03  0.90047963973E+02 0.  0.
        -13    1    3    3    0    0 -0.53688676116E+02 -0.34774134767E+02  0.91190289504E+02  0.11138843428E+03  0.00000000000E+00 0.  1.
         14    1    3    3    0    0  0.14113184333E+02 -0.72290454450E+01  0.13227502159E+03  0.13322207927E+03  0.00000000000E+00 0. -1.
        -13    1    4    4    0    0  0.55452983342E+02  0.30420260214E+02 -0.11395307248E+03  0.13032930722E+03  0.00000000000E+00 0. -1.
         13    1    4    4    0    0 -0.35556591948E+02  0.32876014741E+02 -0.99171984391E+02  0.11036388025E+03  0.00000000000E+00 0.  1.
         21    1    1    2  502  501  0.19679100389E+02 -0.21293094744E+02  0.76103372281E+02  0.81439463091E+02  0.00000000000E+00 0.  1.
<scales pt_clust_5="13000.00000" pt_clust_6="13000.00000" pt_clust_7="13000.00000" pt_clust_8="13000.00000" pt_clust_9="28.99419"></scales>
<clustering>
<clus scale="   28.994">  1  9  2 -1</clus>
<clus scale="   81.037">  5  6 -1 -1</clus>
<clus scale="   90.048">  7  8 -1 -1</clus>
<clus scale="  104.238">  1  5  2 -1</clus>
<clus scale="  111.387">  2  5  1 -1</clus>
</clustering>
</event>
<event>
 9    2  0.5608219E-005  0.1530884E+03  0.7546771E-02  0.1200671E+00
          2   -1    0    0  502    0  0.00000000000E+00  0.00000000000E+00  0.41859809947E+03  0.41859809947E+03  0.00000000000E+00 0. -1.
         -1   -1    0    0    0  501 -0.00000000000E+00 -0.00000000000E+00 -0.10810372242E+03  0.10810372242E+03  0.00000000000E+00 0.  1.
         24    2    1    2    0    0  0.11209218580E+03 -0.26762058835E+01  0.82097100384E+02  0.15954973058E+03  0.78385983702E+02 0.  0.
         23    2    1    2    0    0 -0.11033168419E+03  0.54647339211E+02  0.26144540884E+03  0.30553815534E+03  0.99199044081E+02 0.  0.
        -11    1    3    3    0    0  0.55846644393E+02 -0.30942678566E+02  0.11341502609E+02  0.64845406377E+02  0.00000000000E+00 0.  1.
         12    1    3    3    0    0  0.56245541411E+02  0.28266472683E+02  0.70755597774E+02  0.94704324204E+02  0.00000000000E+00 0. -1.
        -13    1    4    4    0    0 -0.57396412093E+02  0.44339872310E+02  0.23408820742E+03  0.24506664655E+03  0.00000000000E+00 0. -1.
         13    1    4    4    0    0 -0.52935272097E+02  0.10307466902E+02  0.27357201418E+02  0.60471508790E+02  0.00000000000E+00 0.  1.
         21    1    1    2  502  501 -0.17605016131E+01 -0.51971133328E+02 -0.33048132174E+02  0.61613935968E+02  0.00000000000E+00 0. -1.
<scales pt_clust_5="13000.00000" pt_clust_6="13000.00000" pt_clust_7="13000.00000" pt_clust_8="13000.00000" pt_clust_9="52.00094"></scales>
<clustering>
<clus scale="   52.001">  2  9  1 -1</clus>
<clus scale="   78.386">  5  6 -1 -1</clus>
<clus scale="   99.199">  7  8 -1 -1</clus>
<clus scale="  140.499">  2  5  1 -1</clus>
<clus scale="  153.088">  1  5  2 -1</clus>
</clustering>
</event>
<event>
 9    2  0.5608219E-005  0.1164499E+03  0.7546771E-02  0.1252400E+00
          2   -1    0    0  502    0  0.00000000000E+00  0.00000000000E+00  0.15547388712E+03  0.15547388712E+03  0.00000000000E+00 0. -1.
         -1   -1    0    0    0  501 -0.00000000000E+00 -0.00000000000E+00 -0.14922696888E+03  0.14922696888E+03  0.00000000000E+00 0.  1.
         23    2    1    2    0    0 -0.67688956843E+01 -0.58094579564E+02 -0.78716439859E+02  0.13300105248E+03  0.89845444696E+02 0.  0.
         24    2    1    2    0    0  0.16034963912E+01  0.77864049314E+02  0.97116302268E+02  0.14792571393E+03  0.79906566058E+02 0.  0.
        -11    1    4    4    0    0  0.37957805668E+02  0.35783340699E+02  0.66255300335E+02  0.84326788776E+02  0.00000000000E+00 0.  1.
         12    1    4    4    0    0 -0.36354309276E+02  0.42080708614E+02  0.30861001933E+02  0.63598925154E+02  0.00000000000E+00 0. -1.
        -11    1    3    3    0    0 -0.26548307409E+02 -0.65791067665E+02 -0.85141510878E+02  0.11082578258E+03  0.00000000000E+00 0.  1.
         11    1    3    3    0    0  0.19779411725E+02  0.76964881015E+01  0.64250710185E+01  0.22175269894E+02  0.00000000000E+00 0. -1.
         21    1    1    2  502  501  0.51653992931E+01 -0.19769469750E+02 -0.12152944161E+02  0.23774089590E+02  0.00000000000E+00 0.  1.
<scales pt_clust_5="13000.00000" pt_clust_6="13000.00000" pt_clust_7="13000.00000" pt_clust_8="13000.00000" pt_clust_9="20.43314"></scales>
<clustering>
<clus scale="   20.433">  2  9  1 -1</clus>
<clus scale="   79.907">  5  6 -1 -1</clus>
<clus scale="   89.845">  7  8 -1 -1</clus>
<clus scale="  108.965">  1  5  2 -1</clus>
<clus scale="  108.965">  1  5  2 -1</clus>
</clustering>
</event>
<event>
 9    2  0.5608219E-005  0.1190856E+03  0.7546771E-02  0.1248020E+00
         -1   -1    0    0    0  501 -0.00000000000E+00  0.00000000000E+00  0.70986183982E+02  0.70986183982E+02  0.00000000000E+00 0.  1.
          2   -1    0    0  502    0  0.00000000000E+00 -0.00000000000E+00 -0.34863888925E+03  0.34863888925E+03  0.00000000000E+00 0. -1.
         24    2    1    2    0    0  0.52913148170E+02  0.35620503946E+02 -0.11548598873E+03  0.15409399025E+03  0.79619863654E+02 0.  0.
         23    2    1    2    0    0 -0.82696511175E+02 -0.41353478783E+02 -0.18632190039E+03  0.22675752731E+03  0.90301176406E+02 0.  0.
        -11    1    3    3    0    0  0.41306849076E+02  0.24441824569E+02 -0.12151745514E+02  0.49510842125E+02  0.00000000000E+00 0.  1.
         12    1    3    3    0    0  0.11606299094E+02  0.11178679377E+02 -0.10333424322E+03  0.10458314813E+03  0.00000000000E+00 0. -1.
        -13    1    4    4    0    0 -0.81649845424E+02  0.32127161513E+01 -0.14238475054E+03  0.16416587949E+03  0.00000000000E+00 0.  1.
         13    1    4    4    0    0 -0.10466657509E+01 -0.44566194934E+02 -0.43937149849E+02  0.62591647821E+02  0.00000000000E+00 0. -1.
         21    1    1    2  502  501  0.29783363005E+02  0.57329748372E+01  0.24155183849E+02  0.38773555668E+02  0.00000000000E+00 0.  1.
<scales pt_clust_5="13000.00000" pt_clust_6="13000.00000" pt_clust_7="13000.00000" pt_clust_8="13000.00000" pt_clust_9="30.33011"></scales>
<clustering>
<clus scale="   30.330">  1  9  2 -1</clus>
<clus scale="   79.620">  5  6 -1 -1</clus>
<clus scale="   90.301">  7  8 -1 -1</clus>
<clus scale="  111.204">  1  5  2 -1</clus>
<clus scale="  119.086">  2  5  1 -1</clus>
</clustering>
</event>
<event>
 9    2  0.5608219E-005  0.1688590E+03  0.7546771E-02  0.1180585E+00
         -1   -1    0    0    0  501 -0.00000000000E+00  0.00000000000E+00  0.37109055229E+03  0.37109055229E+03  0.00000000000E+00 0.  1.
          2   -1    0    0  502    0  0.00000000000E+00 -0.00000000000E+00 -0.98192172933E+03  0.98192172933E+03  0.00000000000E+00 0. -1.
         24    2    1    2    0    0  0.37569285256E+02  0.16707665167E+03 -0.49587524893E+02  0.19578248118E+03  0.80906109686E+02 0.  0.
         23    2    1    2    0    0 -0.11244740852E+03 -0.87094330246E+02 -0.84042406654E+03  0.85732046603E+03  0.91956118948E+02 0.  0.
        -11    1    3    3    0    0  0.28955817053E+02  0.10769124410E+03  0.90499234779E+01  0.11188272661E+03  0.00000000000E+00 0.  1.
         12    1    3    3    0    0  0.86134682030E+01  0.59385407563E+02 -0.58637448371E+02  0.83899754573E+02  0.00000000000E+00 0. -1.
        -13    1    4    4    0    0 -0.99983353193E+02 -0.23987813113E+02 -0.58187031861E+03  0.59088505970E+03  0.00000000000E+00 0.  1.
         13    1    4    4    0    0 -0.12464055331E+02 -0.63106517134E+02 -0.25855374792E+03  0.26643540633E+03  0.00000000000E+00 0. -1.
         21    1    1    2  502  501  0.74878123269E+02 -0.79982321421E+02  0.27918041439E+03  0.29990933441E+03  0.00000000000E+00 0.  1.
<scales pt_clust_5="13000.00000" pt_clust_6="13000.00000" pt_clust_7="13000.00000" pt_clust_8="13000.00000" pt_clust_9="109.56233"></scales>
<clustering>
<clus scale="   80.906">  5  6 -1 -1</clus>
<clus scale="   91.956">  7  8 -1 -1</clus>
<clus scale="  109.562">  1  9  2 -1</clus>
<clus scale="  163.105">  1  5  2 -1</clus>
<clus scale="  168.859">  2  5  1 -1</clus>
</clustering>
</event>
<event>
 9    2  0.5608219E-005  0.1759242E+03  0.7546771E-02  0.1173026E+00
         -1   -1    0    0    0  501 -0.00000000000E+00  0.00000000000E+00  0.11634132414E+03  0.11634132414E+03  0.00000000000E+00 0.  1.
          2   -1    0    0  502    0  0.00000000000E+00 -0.00000000000E+00 -0.67199826351E+03  0.67199826351E+03  0.00000000000E+00 0. -1.
         23    2    1    2    0    0  0.10589873082E+03  0.88604575907E+02 -0.92953507417E+02  0.18948455320E+03  0.90546834834E+02 0.  0.
         24    2    1    2    0    0 -0.13199942508E+03 -0.81255227820E+02 -0.51286470666E+03  0.54183387489E+03  0.80792823716E+02 0.  0.
        -11    1    4    4    0    0 -0.11276158082E+03 -0.96964645644E+02 -0.41415369628E+03  0.44004613481E+03  0.00000000000E+00 0.  1.
         12    1    4    4    0    0 -0.19237844262E+02  0.15709417824E+02 -0.98711010381E+02  0.10178774008E+03  0.00000000000E+00 0. -1.
        -11    1    3    3    0    0  0.42110239245E+02 -0.45267016185E+01  0.13795439851E+01  0.42375304346E+02  0.00000000000E+00 0.  1.
         11    1    3    3    0    0  0.63788491575E+02  0.93131277525E+02 -0.94333051402E+02  0.14710924885E+03  0.00000000000E+00 0. -1.
         21    1    1    2  502  501  0.26100694260E+02 -0.73493480863E+01  0.50161274712E+02  0.57021159571E+02  0.00000000000E+00 0.  1.
<scales pt_clust_5="13000.00000" pt_clust_6="13000.00000" pt_clust_7="13000.00000" pt_clust_8="13000.00000" pt_clust_9="27.11566"></scales>
<clustering>
<clus scale="   27.116">  1  9  2 -1</clus>
<clus scale="   80.793">  5  6 -1 -1</clus>
<clus scale="   90.547">  7  8 -1 -1</clus>
<clus scale="  171.108">  2  5  1 -1</clus>
<clus scale="  171.108">  2  5  1 -1</clus>
</clustering>
</event>
<event>
 9    2  0.5608219E-005  0.1260267E+03  0.7546771E-02  0.1234525E+00
         -1   -1    0    0    0  501 -0.00000000000E+00  0.00000000000E+00  0.46849809633E+03  0.46849809633E+03  0.00000000000E+00 0.  1.
          2   -1    0    0  502    0  0.00000000000E+00 -0.00000000000E+00 -0.32375186038E+03  0.32375186038E+03  0.00000000000E+00 0. -1.
         23    2    1    2    0    0 -0.11107713066E+03 -0.60516885139E+02  0.22489078597E+03  0.27138664878E+03  0.84109602175E+02 0.  0.
         24    2    1    2    0    0  0.90792919028E+02  0.17594757487E+02 -0.28523611705E+03  0.31034891615E+03  0.80024231611E+02 0.  0.
        -13    1    4    4    0    0  0.68679929505E+02 -0.42479625544E+01 -0.93399082145E+02  0.11601019976E+03  0.00000000000E+00 0.  1.
         14    1    4    4    0    0  0.22112989523E+02  0.21842720041E+02 -0.19183703491E+03  0.19433871639E+03  0.00000000000E+00 0. -1.
        -13    1    3    3    0    0 -0.10518949711E+03 -0.16236281742E+02  0.17062097142E+03  0.20109689961E+03  0.00000000000E+00 0.  1.
         13    1    3    3    0    0 -0.58876335513E+01 -0.44280603397E+02  0.54269814553E+02  0.70289749165E+02  0.00000000000E+00 0. -1.
         21    1    1    2  502  501  0.20284211632E+02  0.42922127652E+02  0.20509156703E+03  0.21051439179E+03  0.00000000000E+00 0.  1.
<scales pt_clust_5="13000.00000" pt_clust_6="13000.00000" pt_clust_7="13000.00000" pt_clust_8="13000.00000" pt_clust_9="47.47376"></scales>
<clustering>
<clus scale="   47.474">  1  9  2 -1</clus>
<clus scale="   80.024">  5  6 -1 -1</clus>
<clus scale="   84.110">  7  8 -1 -1</clus>
<clus scale="  123.338">  2  5  1 -1</clus>
<clus scale="  123.338">  2  5  1 -1</clus>
</clustering>
</event>
<event>
 9    2  0.5608219E-005  0.9295299E+02  0.7546771E-02  0.1299048E+00
          2   -1    0    0  502    0  0.00000000000E+00  0.00000000000E+00  0.96220247859E+03  0.96220247859E+03  0.00000000000E+00 0. -1.
         -1   -1    0    0    0  501 -0.00000000000E+00 -0.00000000000E+00 -0.50034223753E+02  0.50034223753E+02  0.00000000000E+00 0.  1.
         23    2    1    2    0    0  0.20765344978E+02  0.62274472981E+01  0.61624785098E+01  0.93609487573E+02  0.90855816382E+02 0.  0.
         24    2    1    2    0    0 -0.55935831954E+01  0.46038638352E+02  0.56021095239E+03  0.56857580951E+03  0.85389083519E+02 0.  0.
        -11    1    4    4    0    0 -0.58740518215E+01  0.70878185966E+02  0.37255456142E+03  0.37928237893E+03  0.00000000000E+00 0.  1.
         12    1    4    4    0    0  0.28046862610E+00 -0.24839547613E+02  0.18765639098E+03  0.18929343058E+03  0.00000000000E+00 0. -1.
        -11    1    3    3    0    0  0.18256249359E+02  0.45915866176E+02  0.17230786676E+02  0.52330272470E+02  0.00000000000E+00 0.  1.
         11    1    3    3    0    0  0.25090956189E+01 -0.39688418878E+02 -0.11068308166E+02  0.41279215103E+02  0.00000000000E+00 0. -1.
         21    1    1    2  502  501 -0.15171761782E+02 -0.52266085650E+02  0.34579482394E+03  0.35005140526E+03  0.00000000000E+00 0. -1.
<scales pt_clust_5="13000.00000" pt_clust_6="13000.00000" pt_clust_7="13000.00000" pt_clust_8="13000.00000" pt_clust_9="54.42358"></scales>
<clustering>
<clus scale="   54.424">  1  9  2 -1</clus>
<clus scale="   85.389">  5  6 -1 -1</clus>
<clus scale="   87.617">  1  5  2 -1</clus>
<clus scale="   90.856">  7  8 -1 -1</clus>
<clus scale="   54.424">  1  5  2 -1</clus>
</clustering>
</event>
<event>
 9    2  0.5608219E-005  0.1135047E+03  0.7546771E-02  0.1258650E+00
          2   -1    0    0  502    0  0.00000000000E+00  0.00000000000E+00  0.28236475254E+03  0.28236475254E+03  0.00000000000E+00 0. -1.
         -1   -1    0    0    0  501 -0.00000000000E+00 -0.00000000000E+00 -0.94901040358E+02  0.94901040358E+02  0.00000000000E+00 0.  1.
         23    2    1    2    0    0 -0.41301815225E+02 -0.20202511159E+02  0.45347787694E+02  0.11140508822E+03  0.90778248684E+02 0.  0.
         24    2    1    2    0    0  0.78192764825E+02  0.14108250949E+02  0.18049879816E+03  0.21227593854E+03  0.78537295141E+02 0.  0.
        -11    1    4    4    0    0  0.49481250113E+01  0.27696570310E+02  0.94001287860E+02  0.98121486268E+02  0.00000000000E+00 0.  1.
         12    1    4    4    0    0  0.73244639814E+02 -0.13588319361E+02  0.86497510305E+02  0.11415445227E+03  0.00000000000E+00 0. -1.
        -11    1    3    3    0    0 -0.20815445380E+02 -0.49643837871E+02  0.52091865239E+02  0.74908983633E+02  0.00000000000E+00 0.  1.
         11    1    3    3    0    0 -0.20486369845E+02  0.29441326711E+02 -0.67440775445E+01  0.36496104585E+02  0.00000000000E+00 0. -1.
         21    1    1    2  502  501 -0.36890949600E+02  0.60942602099E+01 -0.38382873681E+02  0.53584766137E+02  0.00000000000E+00 0.  1.
<scales pt_clust_5="13000.00000" pt_clust_6="13000.00000" pt_clust_7="13000.00000" pt_clust_8="13000.00000" pt_clust_9="37.39094"></scales>
<clustering>
<clus scale="   37.391">  2  9  1 -1</clus>
<clus scale="   78.537">  5  6 -1 -1</clus>
<clus scale="   90.778">  7  8 -1 -1</clus>
<clus scale="  103.975">  1  5  2 -1</clus>
<clus scale="  103.975">  1  5  2 -1</clus>
</clustering>
</event>
<event>
 9    2  0.5608219E-005  0.1481653E+03  0.7546771E-02  0.1231578E+00
          2   -1    0    0  502    0  0.00000000000E+00  0.00000000000E+00  0.82913060070E+03  0.82913060070E+03  0.00000000000E+00 0. -1.
         -1   -1    0    0    0  501 -0.00000000000E+00 -0.00000000000E+00 -0.41648788095E+02  0.41648788095E+02  0.00000000000E+00 0.  1.
         23    2    1    2    0    0  0.10068534015E+03 -0.53597065442E+02  0.46005233147E+03  0.48289120554E+03  0.92334097466E+02 0.  0.
         24    2    1    2    0    0  0.10938311939E+02  0.18687758089E+02  0.19608915569E+03  0.21202238062E+03  0.77676598371E+02 0.  0.
        -11    1    4    4    0    0 -0.58885694131E+01  0.27077839729E+02  0.18224179017E+02  0.33166328632E+02  0.00000000000E+00 0.  1.
         12    1    4    4    0    0  0.16826881352E+02 -0.83900816400E+01  0.17786497667E+03  0.17885605199E+03  0.00000000000E+00 0. -1.
        -11    1    3    3    0    0  0.90142687815E+02  0.84406259614E+00  0.31331289282E+03  0.32602359641E+03  0.00000000000E+00 0.  1.
         11    1    3    3    0    0  0.10542652339E+02 -0.54441128038E+02  0.14673943865E+03  0.15686760913E+03  0.00000000000E+00 0. -1.
         21    1    1    2  502  501 -0.11162365209E+03  0.34909307353E+02  0.13134032544E+03  0.17586580263E+03  0.00000000000E+00 0.  1.
<scales pt_clust_5="13000.00000" pt_clust_6="13000.00000" pt_clust_7="13000.00000" pt_clust_8="13000.00000" pt_clust_9="115.87650"></scales>
<clustering>
<clus scale="   77.677">  5  6 -1 -1</clus>
<clus scale="   80.638">  1  5  2 -1</clus>
<clus scale="   92.334">  7  8 -1 -1</clus>
<clus scale="  115.877">  2  9  1 -1</clus>
<clus scale="   80.638">  1  5  2 -1</clus>
</clustering>
</event>
<event>
 9    2  0.5608219E-005  0.2193942E+03  0.7546771E-02  0.1134825E+00
          2   -1    0    0  502    0  0.00000000000E+00  0.00000000000E+00  0.32041470287E+03  0.32041470287E+03  0.00000000000E+00 0. -1.
         -1   -1    0    0    0  501 -0.00000000000E+00 -0.00000000000E+00 -0.75930160431E+03  0.75930160431E+03  0.00000000000E+00 0.  1.
         23    2    1    2    0    0  0.19836124835E+03  0.20275487097E+02 -0.24220794941E+03  0.32594969192E+03  0.88432068180E+02 0.  0.
         24    2    1    2    0    0 -0.19339188927E+03  0.62590738720E+02  0.23083962673E+03  0.31826272195E+03  0.81769208766E+02 0.  0.
        -13    1    4    4    0    0 -0.23557809017E+02 -0.19369242149E+02  0.30519391893E+02  0.43145928993E+02  0.00000000000E+00 0.  1.
         14    1    4    4    0    0 -0.16983408026E+03  0.81959980869E+02  0.20032023484E+03  0.27511679295E+03  0.00000000000E+00 0. -1.
        -11    1    3    3    0    0  0.17674459792E+03 -0.53681808103E+01 -0.23031110553E+03  0.29036300657E+03  0.00000000000E+00 0.  1.
         11    1    3    3    0    0  0.21616650437E+02  0.25643667908E+02 -0.11896843885E+02  0.35586685351E+02  0.00000000000E+00 0. -1.
         21    1    1    2  502  501 -0.49693590780E+01 -0.82866225817E+02 -0.42751857876E+03  0.43550389332E+03  0.00000000000E+00 0.  1.
<scales pt_clust_5="13000.00000" pt_clust_6="13000.00000" pt_clust_7="13000.00000" pt_clust_8="13000.00000" pt_clust_9="83.01509"></scales>
<clustering>
<clus scale="   81.769">  5  6 -1 -1</clus>
<clus scale="   83.015">  2  9  1 -1</clus>
<clus scale="   88.432">  7  8 -1 -1</clus>
<clus scale="  216.794">  1  5  2 -1</clus>
<clus scale="  216.794">  1  5  2 -1</clus>
</clustering>
</event>
<event>
 9    2  0.5608219E-005  0.1048549E+03  0.7546771E-02  0.1274449E+00
         -1   -1    0    0    0  501 -0.00000000000E+00  0.00000000000E+00  0.66796313632E+02  0.66796313632E+02  0.00000000000E+00 0.  1.
          2   -1    0    0  502    0  0.00000000000E+00 -0.00000000000E+00 -0.25983918003E+03  0.25983918003E+03  0.00000000000E+00 0. -1.
         23    2    1    2    0    0  0.59792312320E+02 -0.25811003605E+02 -0.32768708321E+02  0.11593682854E+03  0.90145612469E+02 0.  0.
         24    2    1    2    0    0 -0.36105972047E+02  0.35859943373E+02 -0.15828901061E+03  0.18489237293E+03  0.80871514960E+02 0.  0.
        -11    1    4    4    0    0 -0.46954339832E+02  0.14209435866E+02 -0.37630611671E+02  0.61827833792E+02  0.00000000000E+00 0.  1.
         12    1    4    4    0    0  0.10848367784E+02  0.21650507508E+02 -0.12065839894E+03  0.12306453914E+03  0.00000000000E+00 0. -1.
        -13    1    3    3    0    0  0.64189362073E+02  0.30247176840E+01  0.91077583950E+01  0.64902807208E+02  0.00000000000E+00 0.  1.
         13    1    3    3    0    0 -0.43970497536E+01 -0.28835721289E+02 -0.41876466716E+02  0.51034021333E+02  0.00000000000E+00 0. -1.
         21    1    1    2  502  501 -0.23686340272E+02 -0.10048939768E+02 -0.19851474620E+01  0.25806292186E+02  0.00000000000E+00 0. -1.
<scales pt_clust_5="13000.00000" pt_clust_6="13000.00000" pt_clust_7="13000.00000" pt_clust_8="13000.00000" pt_clust_9="25.72983"></scales>
<clustering>
<clus scale="   25.730">  1  9  2 -1</clus>
<clus scale="   80.872">  5  6 -1 -1</clus>
<clus scale="   90.146">  7  8 -1 -1</clus>
<clus scale="   96.998">  2  5  1 -1</clus>
<clus scale="   96.998">  2  5  1 -1</clus>
</clustering>
</event>
<event>
 9    2  0.5608219E-005  0.1498882E+03  0.7546771E-02  0.1215548E+00
          2   -1    0    0  502    0  0.00000000000E+00  0.00000000000E+00  0.61842797481E+03  0.61842797481E+03  0.00000000000E+00 0. -1.
         -1   -1    0    0    0  501 -0.00000000000E+00 -0.00000000000E+00 -0.46035165027E+03  0.46035165027E+03  0.00000000000E+00 0.  1.
         24    2    1    2    0    0 -0.41202170262E+02  0.87970909049E+02  0.50958885863E+03  0.52484408754E+03  0.79649304556E+02 0.  0.
         23    2    1    2    0    0 -0.57921657848E+02 -0.74407046114E+01  0.59149080625E+02  0.12387320610E+03  0.91845930328E+02 0.  0.
        -11    1    3    3    0    0 -0.41162151618E+02  0.91495933083E+01  0.25072431912E+03  0.25424539717E+03  0.00000000000E+00 0.  1.
         12    1    3    3    0    0 -0.40018644722E-01  0.78821315740E+02  0.25886453951E+03  0.27059869038E+03  0.00000000000E+00 0. -1.
        -13    1    4    4    0    0 -0.11533372358E+02 -0.23838801562E+02 -0.18248559914E+02  0.32160800313E+02  0.00000000000E+00 0.  1.
         13    1    4    4    0    0 -0.46388285491E+02  0.16398096951E+02  0.77397640539E+02  0.91712405788E+02  0.00000000000E+00 0. -1.
         21    1    1    2  502  501  0.99123828111E+02 -0.80530204437E+02 -0.41066161471E+03  0.43006233144E+03  0.00000000000E+00 0.  1.
<scales pt_clust_5="13000.00000" pt_clust_6="13000.00000" pt_clust_7="13000.00000" pt_clust_8="13000.00000" pt_clust_9="126.97429"></scales>
<clustering>
<clus scale="   79.649">  5  6 -1 -1</clus>
<clus scale="   91.846">  7  8 -1 -1</clus>
<clus scale="  108.839">  1  7  2 -1</clus>
<clus scale="  126.974">  2  9  1 -1</clus>
<clus scale="  108.839">  1  5  2 -1</clus>
</clustering>
</event>
<event>
 9    2  0.5608219E-005  0.1415248E+03  0.7546771E-02  0.1213714E+00
          2   -1    0    0  502    0  0.00000000000E+00  0.00000000000E+00  0.96004667855E+02  0.96004667855E+02  0.00000000000E+00 0. -1.
         -1   -1    0    0    0  501 -0.00000000000E+00 -0.00000000000E+00 -0.39357780825E+03  0.39357780825E+03  0.00000000000E+00 0.  1.
         23    2    1    2    0    0 -0.59624389277E+02  0.96189351266E+02 -0.19563068704E+03  0.24355543167E+03  0.90776778364E+02 0.  0.
         24    2    1    2    0    0  0.79242659456E+02 -0.73582330227E+02  0.58111491698E+01  0.13419327144E+03  0.79248383243E+02 0.  0.
        -11    1    4    4    0    0  0.69419295133E+02 -0.20954696681E+02  0.25917549504E+02  0.77005566176E+02  0.00000000000E+00 0.  1.
         12    1    4    4    0    0  0.98233643230E+01 -0.52627633546E+02 -0.20106400335E+02  0.57187705267E+02  0.00000000000E+00 0. -1.
        -13    1    3    3    0    0  0.76842804619E+01  0.37140741365E+02 -0.12159403219E+03  0.12737186306E+03  0.00000000000E+00 0.  1.
         13    1    3    3    0    0 -0.67308669739E+02  0.59048609901E+02 -0.74036654853E+02  0.11618356861E+03  0.00000000000E+00 0. -1.
         21    1    1    2  502  501 -0.19618270179E+02 -0.22607021039E+02 -0.10775360252E+03  0.11183377299E+03  0.00000000000E+00 0. -1.
<scales pt_clust_5="13000.00000" pt_clust_6="13000.00000" pt_clust_7="13000.00000" pt_clust_8="13000.00000" pt_clust_9="29.93249"></scales>
<clustering>
<clus scale="   29.932">  2  9  1 -1</clus>
<clus scale="   79.248">  5  6 -1 -1</clus>
<clus scale="   90.777">  7  8 -1 -1</clus>
<clus scale="  134.422">  1  5  2 -1</clus>
<clus scale="  134.422">  1  5  2 -1</clus>
</clustering>
</event>
<event>
 9    2  0.5608219E-005  0.1237450E+03  0.7546771E-02  0.1240357E+00
         -1   -1    0    0    0  501 -0.00000000000E+00  0.00000000000E+00  0.19475632033E+03  0.19475632033E+03  0.00000000000E+00 0.  1.
          2   -1    0    0  502    0  0.00000000000E+00 -0.00000000000E+00 -0.51168536635E+03  0.51168536635E+03  0.00000000000E+00 0. -1.
         24    2    1    2    0    0 -0.72160119601E+02 -0.63735006814E+02 -0.20953274189E+03  0.24407792269E+03  0.80005177752E+02 0.  0.
         23    2    1    2    0    0  0.50218702032E+02  0.55349700004E+02 -0.27179520864E+03  0.29629528722E+03  0.91283922269E+02 0.  0.
        -13    1    3    3    0    0 -0.21663089288E+02 -0.55114511736E+02 -0.53342824028E+02  0.79701666962E+02  0.00000000000E+00 0.  1.
         14    1    3    3    0    0 -0.50497030313E+02 -0.86204950779E+01 -0.15618991786E+03  0.16437625573E+03  0.00000000000E+00 0. -1.
        -11    1    4    4    0    0  0.46890870553E+02  0.80199476741E+02 -0.21481208842E+03  0.23404047330E+03  0.00000000000E+00 0.  1.
         11    1    4    4    0    0  0.33278314789E+01 -0.24849776738E+02 -0.56983120223E+02  0.62254813924E+02  0.00000000000E+00 0. -1.
         21    1    1    2  502  501  0.21941417569E+02  0.83853068098E+01  0.16439890451E+03  0.16606847678E+03  0.00000000000E+00 0.  1.
<scales pt_clust_5="13000.00000" pt_clust_6="13000.00000" pt_clust_7="13000.00000" pt_clust_8="13000.00000" pt_clust_9="23.48913"></scales>
<clustering>
<clus scale="   23.489">  1  9  2 -1</clus>
<clus scale="   80.005">  5  6 -1 -1</clus>
<clus scale="   91.284">  7  8 -1 -1</clus>
<clus scale="  115.676">  1  5  2 -1</clus>
<clus scale="  123.745">  2  5  1 -1</clus>
</clustering>
</event>
<event>
 9    2  0.5608219E-005  0.9816486E+02  0.7546771E-02  0.1289844E+00
          2   -1    0    0  502    0  0.00000000000E+00  0.00000000000E+00  0.91021274993E+02  0.91021274993E+02  0.00000000000E+00 0. -1.
         -1   -1    0    0    0  501 -0.00000000000E+00 -0.00000000000E+00 -0.15597926943E+03  0.15597926943E+03  0.00000000000E+00 0.  1.
         23    2    1    2    0    0  0.19703505961E+02 -0.80408970151E+01 -0.81421842900E+02  0.12472436747E+03  0.92053067134E+02 0.  0.
         24    2    1    2    0    0 -0.38497985147E+02 -0.14065544485E+01  0.32564809454E+02  0.95786032895E+02  0.81427415698E+02 0.  0.
        -13    1    4    4    0    0 -0.27122808935E+02  0.68769794185E+01 -0.24389854549E+02  0.37118790597E+02  0.00000000000E+00 0.  1.
         14    1    4    4    0    0 -0.11375176212E+02 -0.82835338670E+01  0.56954664003E+02  0.58667242298E+02  0.00000000000E+00 0. -1.
        -13    1    3    3    0    0  0.37223016837E+01  0.39716716726E+02 -0.54737994805E+02  0.67731242367E+02  0.00000000000E+00 0.  1.
         13    1    3    3    0    0  0.15981204277E+02 -0.47757613741E+02 -0.26683848095E+02  0.56993125108E+02  0.00000000000E+00 0. -1.
         21    1    1    2  502  501  0.18794479186E+02  0.94474514636E+01 -0.16100960990E+02  0.26490144051E+02  0.00000000000E+00 0. -1.
<scales pt_clust_5="13000.00000" pt_clust_6="13000.00000" pt_clust_7="13000.00000" pt_clust_8="13000.00000" pt_clust_9="21.03537"></scales>
<clustering>
<clus scale="   21.035">  2  9  1 -1</clus>
<clus scale="   81.427">  5  6 -1 -1</clus>
<clus scale="   88.278">  1  5  2 -1</clus>
<clus scale="   92.053">  7  8 -1 -1</clus>
<clus scale="   88.278">  1  5  2 -1</clus>
</clustering>
</event>
<event>
 9    2  0.5608219E-005  0.1418886E+03  0.7546771E-02  0.1225593E+00
         -1   -1    0    0    0  501 -0.00000000000E+00  0.00000000000E+00  0.11716417758E+03  0.11716417758E+03  0.00000000000E+00 0.  1.
          2   -1    0    0  502    0  0.00000000000E+00 -0.00000000000E+00 -0.35544801804E+03  0.35544801804E+03  0.00000000000E+00 0. -1.
         23    2    1    2    0    0  0.40247127667E+02  0.26145981037E+02  0.16716648515E+02  0.10526381576E+03  0.92182324564E+02 0.  0.
         24    2    1    2    0    0  0.70625760983E+02  0.53209564415E+02 -0.73260068984E+02  0.14014873133E+03  0.80345337919E+02 0.  0.
        -13    1    4    4    0    0  0.85896103261E+02  0.48924168128E+02 -0.75152818257E+02  0.12417592711E+03  0.00000000000E+00 0.  1.
         14    1    4    4    0    0 -0.15270342278E+02  0.42853962861E+01  0.18927492729E+01  0.15972804213E+02  0.00000000000E+00 0. -1.
        -11    1    3    3    0    0  0.19799203755E+02  0.52654846657E+02  0.35846738494E+02  0.66704797477E+02  0.00000000000E+00 0.  1.
         11    1    3    3    0    0  0.20447923912E+02 -0.26508865620E+02 -0.19130089978E+02  0.38559018288E+02  0.00000000000E+00 0. -1.
         21    1    1    2  502  501 -0.11087288865E+03 -0.79355545451E+02 -0.18174041999E+03  0.22719964853E+03  0.00000000000E+00 0. -1.
<scales pt_clust_5="13000.00000" pt_clust_6="13000.00000" pt_clust_7="13000.00000" pt_clust_8="13000.00000" pt_clust_9="116.94868"></scales>
<clustering>
<clus scale="   80.345">  5  6 -1 -1</clus>
<clus scale="   92.182">  7  8 -1 -1</clus>
<clus scale="  103.928">  1  7  2 -1</clus>
<clus scale="  116.949">  2  9  1 -1</clus>
<clus scale="  116.949">  2  5  1 -1</clus>
</clustering>
</event>
<event>
 9    2  0.5608219E-005  0.9429522E+02  0.7546771E-02  0.1303269E+00
          4   -1    0    0  502    0  0.00000000000E+00  0.00000000000E+00  0.55078488932E+03  0.55078488932E+03  0.00000000000E+00 0. -1.
         -3   -1    0    0    0  501 -0.00000000000E+00 -0.00000000000E+00 -0.86971846091E+02  0.86971846091E+02  0.00000000000E+00 0.  1.
         23    2    1    2    0    0  0.15340367037E+02 -0.94348191505E+01 -0.29631451082E+02  0.98310057603E+02  0.91991857571E+02 0.  0.
         24    2    1    2    0    0  0.18242929486E+01  0.21207979240E+02  0.50807899940E+03  0.51400259027E+03  0.74841744675E+02 0.  0.
        -11    1    4    4    0    0  0.13422042656E+02  0.26745591729E+02  0.75234394943E+02  0.80967228484E+02  0.00000000000E+00 0.  1.
         12    1    4    4    0    0 -0.11597749707E+02 -0.55376124886E+01  0.43284460446E+03  0.43303536179E+03  0.00000000000E+00 0. -1.
        -13    1    3    3    0    0  0.46286304317E+02 -0.14434515328E+02  0.82059796070E+01  0.49174335800E+02  0.00000000000E+00 0. -1.
         13    1    3    3    0    0 -0.30945937279E+02  0.49996961779E+01 -0.37837430689E+02  0.49135721803E+02  0.00000000000E+00 0.  1.
         21    1    1    2  502  501 -0.17164659986E+02 -0.11773160090E+02 -0.14634505095E+02  0.25444087532E+02  0.00000000000E+00 0.  1.
<scales pt_clust_5="13000.00000" pt_clust_6="13000.00000" pt_clust_7="13000.00000" pt_clust_8="13000.00000" pt_clust_9="20.81425"></scales>
<clustering>
<clus scale="   20.814">  2  9  1 -1</clus>
<clus scale="   74.842">  5  6 -1 -1</clus>
<clus scale="   77.655">  1  5  2 -1</clus>
<clus scale="   91.992">  7  8 -1 -1</clus>
<clus scale="   77.655">  1  5  2 -1</clus>
</clustering>
</event>
<event>
 9    2  0.5608219E-005  0.1500546E+03  0.7546771E-02  0.1202859E+00
          2   -1    0    0  502    0  0.00000000000E+00  0.00000000000E+00  0.10542933438E+04  0.10542933438E+04  0.00000000000E+00 0. -1.
         -1   -1    0    0    0  501 -0.00000000000E+00 -0.00000000000E+00 -0.24114377769E+02  0.24114377769E+02  0.00000000000E+00 0.  1.
         23    2    1    2    0    0 -0.11271286472E+03 -0.13099910785E+01  0.40806544352E+03  0.43343713359E+03  0.92975462497E+02 0.  0.
         24    2    1    2    0    0  0.12334993745E+03  0.19752847517E+02  0.52372198859E+03  0.54430192247E+03  0.79840337017E+02 0.  0.
        -13    1    4    4    0    0  0.63369251021E+02 -0.30199336974E+02  0.24667440465E+03  0.25646817315E+03  0.00000000000E+00 0.  1.
         14    1    4    4    0    0  0.59980686426E+02  0.49952184491E+02  0.27704758394E+03  0.28783374932E+03  0.00000000000E+00 0. -1.
        -13    1    3    3    0    0 -0.45047752278E+02  0.25060341898E+02  0.65989026327E+02  0.83736923259E+02  0.00000000000E+00 0.  1.
         13    1    3    3    0    0 -0.67665112439E+02 -0.26370332977E+02  0.34207641719E+03  0.34970021033E+03  0.00000000000E+00 0. -1.
         21    1    1    2  502  501 -0.10637072730E+02 -0.18442856438E+02  0.98391533951E+02  0.10066866555E+03  0.00000000000E+00 0.  1.
<scales pt_clust_5="13000.00000" pt_clust_6="13000.00000" pt_clust_7="13000.00000" pt_clust_8="13000.00000" pt_clust_9="21.29052"></scales>
<clustering>
<clus scale="   21.291">  1  9  2 -1</clus>
<clus scale="   79.840">  5  6 -1 -1</clus>
<clus scale="   92.975">  7  8 -1 -1</clus>
<clus scale="  142.290">  1  5  2 -1</clus>
<clus scale="   21.291">  1  5  2 -1</clus>
</clustering>
</event>
<event>
 9    2  0.5608219E-005  0.9959899E+02  0.7546771E-02  0.1285521E+00
         -1   -1    0    0    0  501 -0.00000000000E+00  0.00000000000E+00  0.96643080294E+02  0.96643080294E+02  0.00000000000E+00 0.  1.
          2   -1    0    0  502    0  0.00000000000E+00 -0.00000000000E+00 -0.45583257385E+03  0.45583257385E+03  0.00000000000E+00 0. -1.
         23    2    1    2    0    0  0.18534120302E+02  0.31707236697E+02  0.43712934685E+02  0.10451763294E+03  0.87545716417E+02 0.  0.
         24    2    1    2    0    0 -0.48020477279E+02 -0.10137416798E+02 -0.40082984144E+03  0.41136569968E+03  0.78412011986E+02 0.  0.
        -13    1    4    4    0    0 -0.42303862328E+02 -0.18904102386E+02 -0.98493812760E+02  0.10884857834E+03  0.00000000000E+00 0.  1.
         14    1    4    4    0    0 -0.57166149506E+01  0.87666855880E+01 -0.30233602868E+03  0.30251712133E+03  0.00000000000E+00 0. -1.
        -13    1    3    3    0    0  0.20222724729E+02 -0.28089731316E+02  0.21271482026E+02  0.40625946740E+02  0.00000000000E+00 0. -1.
         13    1    3    3    0    0 -0.16886044274E+01  0.59796968013E+02  0.22441452660E+02  0.63891686204E+02  0.00000000000E+00 0.  1.
         21    1    1    2  502  501  0.29486356977E+02 -0.21569819899E+02 -0.20725867982E+01  0.36592321520E+02  0.00000000000E+00 0.  1.
<scales pt_clust_5="13000.00000" pt_clust_6="13000.00000" pt_clust_7="13000.00000" pt_clust_8="13000.00000" pt_clust_9="36.53358"></scales>
<clustering>
<clus scale="   36.534">  1  9  2 -1</clus>
<clus scale="   78.412">  5  6 -1 -1</clus>
<clus scale="   87.546">  7  8 -1 -1</clus>
<clus scale="   91.674">  2  5  1 -1</clus>
<clus scale="   91.674">  2  5  1 -1</clus>
</clustering>
</event>
<event>
 9    2  0.5608219E-005  0.1497359E+03  0.7546771E-02  0.1203275E+00
          4   -1    0    0  502    0  0.00000000000E+00  0.00000000000E+00  0.33917428158E+03  0.33917428158E+03  0.00000000000E+00 0. -1.
         -3   -1    0    0    0  501 -0.00000000000E+00 -0.00000000000E+00 -0.27930330656E+03  0.27930330656E+03  0.00000000000E+00 0.  1.
         24    2    1    2    0    0 -0.33933729032E+02 -0.11439192274E+03 -0.11236464514E+03  0.18134345446E+03  0.77605573527E+02 0.  0.
         23    2    1    2    0    0  0.11666553937E+02  0.11842398344E+03  0.28506170891E+03  0.32206106601E+03  0.91119723547E+02 0.  0.
        -11    1    3    3    0    0 -0.24373286223E+02 -0.12509540381E+03 -0.10543281346E+03  0.16540554794E+03  0.00000000000E+00 0.  1.
         12    1    3    3    0    0 -0.95604428091E+01  0.10703481068E+02 -0.69318316796E+01  0.15937906516E+02  0.00000000000E+00 0. -1.
        -13    1    4    4    0    0 -0.13231179006E+02  0.12133179692E+03  0.25651214980E+03  0.28406856925E+03  0.00000000000E+00 0. -1.
         13    1    4    4    0    0  0.24897732942E+02 -0.29078134738E+01  0.28549559110E+02  0.37992496763E+02  0.00000000000E+00 0.  1.
         21    1    1    2  502  501  0.22267175095E+02 -0.40320607007E+01 -0.11282608874E+03  0.11507306766E+03  0.00000000000E+00 0.  1.
<scales pt_clust_5="13000.00000" pt_clust_6="13000.00000" pt_clust_7="13000.00000" pt_clust_8="13000.00000" pt_clust_9="22.62929"></scales>
<clustering>
<clus scale="   22.629">  2  9  1 -1</clus>
<clus scale="   77.606">  5  6 -1 -1</clus>
<clus scale="   91.120">  7  8 -1 -1</clus>
<clus scale="  141.918">  2  5  1 -1</clus>
<clus scale="  149.736">  1  5  2 -1</clus>
</clustering>
</event>
<event>
 9    2  0.5608219E-005  0.1764556E+03  0.7546771E-02  0.1189115E+00
          2   -1    0    0  502    0  0.00000000000E+00  0.00000000000E+00  0.16053421186E+03  0.16053421186E+03  0.00000000000E+00 0. -1.
         -1   -1    0    0    0  501 -0.00000000000E+00 -0.00000000000E+00 -0.48049809198E+03  0.48049809198E+03  0.00000000000E+00 0.  1.
         24    2    1    2    0    0 -0.51111061516E+02 -0.53291701681E+02 -0.12133294681E+03  0.16937818904E+03  0.92276437205E+02 0.  0.
         23    2    1    2    0    0 -0.13226848889E+03 -0.25564212582E+02  0.29489581959E+02  0.16852825940E+03  0.96869276116E+02 0.  0.
        -11    1    3    3    0    0 -0.43626362605E+02 -0.51844313865E+02 -0.13650614097E+03  0.15239756861E+03  0.00000000000E+00 0.  1.
         12    1    3    3    0    0 -0.74846989111E+01 -0.14473878161E+01  0.15173194160E+02  0.16980620433E+02  0.00000000000E+00 0. -1.
        -13    1    4    4    0    0 -0.11616860228E+03  0.18505140271E+02  0.30775710610E+02  0.12159246990E+03  0.00000000000E+00 0.  1.
         13    1    4    4    0    0 -0.16099886609E+02 -0.44069352852E+02 -0.12861286509E+01  0.46935789506E+02  0.00000000000E+00 0. -1.
         21    1    1    2  502  501  0.18337955040E+03  0.78855914263E+02 -0.22812051527E+03  0.30312585539E+03  0.00000000000E+00 0. -1.
<scales pt_clust_5="13000.00000" pt_clust_6="13000.00000" pt_clust_7="13000.00000" pt_clust_8="13000.00000" pt_clust_9="147.48872"></scales>
<clustering>
<clus scale="   92.276">  5  6 -1 -1</clus>
<clus scale="   96.869">  7  8 -1 -1</clus>
<clus scale="  118.183">  2  5  1 -1</clus>
<clus scale="  147.489">  2  9  1 -1</clus>
<clus scale="  176.456">  1  5  2 -1</clus>
</clustering>
</event>
<event>
 9    2  0.5608219E-005  0.1578039E+03  0.7546771E-02  0.1193341E+00
          4   -1    0    0  502    0  0.00000000000E+00  0.00000000000E+00  0.66024288046E+03  0.66024288046E+03  0.00000000000E+00 0. -1.
         -3   -1    0    0    0  501 -0.00000000000E+00 -0.00000000000E+00 -0.17706733872E+03  0.17706733872E+03  0.00000000000E+00 0.  1.
         23    2    1    2    0    0  0.87397325917E+02 -0.16351921755E+02 -0.10624152981E+03  0.16627221267E+03  0.91942961265E+02 0.  0.
         24    2    1    2    0    0 -0.12681197983E+03  0.32884502878E+02  0.60615248293E+03  0.62513686083E+03  0.78820006591E+02 0.  0.
        -13    1    4    4    0    0 -0.10315195914E+03 -0.10190014806E+02  0.42113306887E+03  0.43370176939E+03  0.00000000000E+00 0.  1.
         14    1    4    4    0    0 -0.23660020693E+02  0.43074517684E+02  0.18501941406E+03  0.19143509144E+03  0.00000000000E+00 0. -1.
        -13    1    3    3    0    0  0.20532908859E+02 -0.31744147412E+01 -0.94945053686E+02  0.97191771640E+02  0.00000000000E+00 0.  1.
         13    1    3    3    0    0  0.66864417058E+02 -0.13177507014E+02 -0.11296476125E+02  0.69080441027E+02  0.00000000000E+00 0. -1.
         21    1    1    2  502  501  0.39414653914E+02 -0.16532581123E+02 -0.16735411377E+02  0.45901145690E+02  0.00000000000E+00 0.  1.
<scales pt_clust_5="13000.00000" pt_clust_6="13000.00000" pt_clust_7="13000.00000" pt_clust_8="13000.00000" pt_clust_9="42.74156"></scales>
<clustering>
<clus scale="   42.742">  2  9  1 -1</clus>
<clus scale="   78.820">  5  6 -1 -1</clus>
<clus scale="   91.943">  7  8 -1 -1</clus>
<clus scale="  150.536">  1  5  2 -1</clus>
<clus scale="  150.536">  1  5  2 -1</clus>
</clustering>
</event>
<event>
 9    2  0.5608219E-005  0.9451378E+02  0.7546771E-02  0.1293306E+00
          2   -1    0    0  502    0  0.00000000000E+00  0.00000000000E+00  0.81944147089E+03  0.81944147089E+03  0.00000000000E+00 0. -1.
         -1   -1    0    0    0  501 -0.00000000000E+00 -0.00000000000E+00 -0.18492894289E+02  0.18492894289E+02  0.00000000000E+00 0.  1.
         23    2    1    2    0    0 -0.32874997026E+02  0.28520428667E+02  0.15292096461E+03  0.17736639750E+03  0.78611940982E+02 0.  0.
         24    2    1    2    0    0  0.17609439956E+02 -0.49406878290E+02  0.57699379756E+03  0.58496979440E+03  0.80725992946E+02 0.  0.
        -11    1    4    4    0    0  0.40084422084E+02 -0.73968073052E+01  0.15406868344E+03  0.15936948538E+03  0.00000000000E+00 0.  1.
         12    1    4    4    0    0 -0.22474982128E+02 -0.42010070985E+02  0.42292511412E+03  0.42560030902E+03  0.00000000000E+00 0. -1.
        -13    1    3    3    0    0  0.22215234532E+02 -0.45048139636E+01  0.22251395701E+02  0.31763730965E+02  0.00000000000E+00 0. -1.
         13    1    3    3    0    0 -0.55090231558E+02  0.33025242631E+02  0.13066956891E+03  0.14560266654E+03  0.00000000000E+00 0.  1.
         21    1    1    2  502  501  0.15265557070E+02  0.20886449623E+02  0.71033814429E+02  0.75598173277E+02  0.00000000000E+00 0.  1.
<scales pt_clust_5="13000.00000" pt_clust_6="13000.00000" pt_clust_7="13000.00000" pt_clust_8="13000.00000" pt_clust_9="25.87047"></scales>
<clustering>
<clus scale="   25.870">  2  9  1 -1</clus>
<clus scale="   78.612">  7  8 -1 -1</clus>
<clus scale="   80.726">  5  6 -1 -1</clus>
<clus scale="   92.715">  2  7  1 -1</clus>
<clus scale="   94.514">  1  5  2 -1</clus>
</clustering>
</event>
<event>
 9    2  0.5608219E-005  0.1156040E+03  0.7546771E-02  0.1255601E+00
         -1   -1    0    0    0  501 -0.00000000000E+00  0.00000000000E+00  0.89101946578E+02  0.89101946578E+02  0.00000000000E+00 0.  1.
          2   -1    0    0  502    0  0.00000000000E+00 -0.00000000000E+00 -0.46896342937E+03  0.46896342937E+03  0.00000000000E+00 0. -1.
         23    2    1    2    0    0  0.12156171223E+03 -0.10333908065E+02 -0.13205123864E+03  0.20253154667E+03  0.93260164240E+02 0.  0.
         24    2    1    2    0    0 -0.55449592641E+02 -0.56191399640E+01 -0.26771883362E+03  0.28467012889E+03  0.79104211960E+02 0.  0.
        -13    1    4    4    0    0 -0.41881624200E+02 -0.40116175253E+02 -0.13634516902E+03  0.14816674080E+03  0.00000000000E+00 0.  1.
         14    1    4    4    0    0 -0.13567968441E+02  0.34497035289E+02 -0.13137366460E+03  0.13650338809E+03  0.00000000000E+00 0. -1.
        -11    1    3    3    0    0  0.85450916389E+02 -0.14593428470E+02 -0.14060254301E+03  0.16517839558E+03  0.00000000000E+00 0. -1.
         11    1    3    3    0    0  0.36110795842E+02  0.42595204056E+01  0.85513043620E+01  0.37353151095E+02  0.00000000000E+00 0.  1.
         21    1    1    2  502  501 -0.66112119590E+02  0.15953048029E+02  0.19908589468E+02  0.70863700388E+02  0.00000000000E+00 0.  1.
<scales pt_clust_5="13000.00000" pt_clust_6="13000.00000" pt_clust_7="13000.00000" pt_clust_8="13000.00000" pt_clust_9="68.00965"></scales>
<clustering>
<clus scale="   68.010">  1  9  2 -1</clus>
<clus scale="   79.104">  5  6 -1 -1</clus>
<clus scale="   93.260">  7  8 -1 -1</clus>
<clus scale="  104.519">  2  5  1 -1</clus>
<clus scale="  104.519">  2  5  1 -1</clus>
</clustering>
</event>
<event>
 9    2  0.5608219E-005  0.1699376E+03  0.7546771E-02  0.1180338E+00
         -1   -1    0    0    0  501 -0.00000000000E+00  0.00000000000E+00  0.21306588898E+03  0.21306588898E+03  0.00000000000E+00 0.  1.
          2   -1    0    0  502    0  0.00000000000E+00 -0.00000000000E+00 -0.44149474152E+03  0.44149474152E+03  0.00000000000E+00 0. -1.
         23    2    1    2    0    0 -0.46186805228E+02 -0.14948882131E+03  0.47270603988E+02  0.19149110112E+03  0.99770752898E+02 0.  0.
         24    2    1    2    0    0  0.35367461367E+02  0.13015151517E+03 -0.35068081249E+03  0.38488261646E+03  0.83470485683E+02 0.  0.
        -11    1    4    4    0    0  0.39117657480E+02  0.27689584333E+02 -0.17526845763E+03  0.18170287958E+03  0.00000000000E+00 0.  1.
         12    1    4    4    0    0 -0.37501961127E+01  0.10246193084E+03 -0.17541235486E+03  0.20317973688E+03  0.00000000000E+00 0. -1.
        -13    1    3    3    0    0 -0.25215453583E+02 -0.14092039313E+03  0.70038185848E+02  0.15937290791E+03  0.00000000000E+00 0.  1.
         13    1    3    3    0    0 -0.20971351645E+02 -0.85684281771E+01 -0.22767581860E+02  0.32118193208E+02  0.00000000000E+00 0. -1.
         21    1    1    2  502  501  0.10819343861E+02  0.19337306140E+02  0.74981355963E+02  0.78186912923E+02  0.00000000000E+00 0.  1.
<scales pt_clust_5="13000.00000" pt_clust_6="13000.00000" pt_clust_7="13000.00000" pt_clust_8="13000.00000" pt_clust_9="22.15829"></scales>
<clustering>
<clus scale="   22.158">  1  9  2 -1</clus>
<clus scale="   83.470">  5  6 -1 -1</clus>
<clus scale="   99.771">  7  8 -1 -1</clus>
<clus scale="  160.910">  2  5  1 -1</clus>
<clus scale="  160.910">  2  5  1 -1</clus>
</clustering>
</event>
<event>
 9    2  0.5608219E-005  0.9787250E+02  0.7546771E-02  0.1291274E+00
         -1   -1    0    0    0  501 -0.00000000000E+00  0.00000000000E+00  0.29115294591E+03  0.29115294591E+03  0.00000000000E+00 0.  1.
          2   -1    0    0  502    0  0.00000000000E+00 -0.00000000000E+00 -0.86453042032E+03  0.86453042032E+03  0.00000000000E+00 0. -1.
         23    2    1    2    0    0 -0.44299939610E+02 -0.18241057507E+02  0.19766391405E+03  0.22327709867E+03  0.92121762054E+02 0.  0.
         24    2    1    2    0    0 -0.24735579444E+02  0.22774486463E+02 -0.83420652423E+03  0.83872441634E+03  0.80172285563E+02 0.  0.
        -13    1    4    4    0    0 -0.33631441475E+02  0.30988546034E+02 -0.23570456664E+03  0.24009999287E+03  0.00000000000E+00 0.  1.
         14    1    4    4    0    0  0.88958620309E+01 -0.82140595707E+01 -0.59850195760E+03  0.59862442348E+03  0.00000000000E+00 0. -1.
        -11    1    3    3    0    0 -0.53825862911E+02  0.11079779284E+02  0.56622545123E+02  0.78905624915E+02  0.00000000000E+00 0. -1.
         11    1    3    3    0    0  0.95259233016E+01 -0.29320836791E+02  0.14104136892E+03  0.14437147375E+03  0.00000000000E+00 0.  1.
         21    1    1    2  502  501  0.69035519054E+02 -0.45334289560E+01  0.63165135778E+02  0.93681851214E+02  0.00000000000E+00 0.  1.
<scales pt_clust_5="13000.00000" pt_clust_6="13000.00000" pt_clust_7="13000.00000" pt_clust_8="13000.00000" pt_clust_9="69.18421"></scales>
<clustering>
<clus scale="   69.184">  1  9  2 -1</clus>
<clus scale="   80.172">  5  6 -1 -1</clus>
<clus scale="   86.719">  2  5  1 -1</clus>
<clus scale="   92.122">  7  8 -1 -1</clus>
<clus scale="   86.719">  2  5  1 -1</clus>
</clustering>
</event>
<event>
 9    2  0.5608219E-005  0.4142022E+03  0.7546771E-02  0.1038970E+00
         -1   -1    0    0    0  501 -0.00000000000E+00  0.00000000000E+00  0.11849567603E+03  0.11849567603E+03  0.00000000000E+00 0.  1.
          2   -1    0    0  502    0  0.00000000000E+00 -0.00000000000E+00 -0.12155807247E+04  0.12155807247E+04  0.00000000000E+00 0. -1.
         24    2    1    2    0    0 -0.14221024307E+03 -0.11737875504E+02 -0.15046364020E+03  0.22252819062E+03  0.80733869233E+02 0.  0.
         23    2    1    2    0    0 -0.13981159242E+03 -0.17887762634E+03 -0.37928069756E+03  0.44992439895E+03  0.83866743370E+02 0.  0.
        -13    1    3    3    0    0 -0.10381638154E+03 -0.38688688030E+01 -0.51225165445E+02  0.11583102692E+03  0.00000000000E+00 0.  1.
         14    1    3    3    0    0 -0.38393861531E+02 -0.78690067005E+01 -0.99238474755E+02  0.10669716370E+03  0.00000000000E+00 0. -1.
        -11    1    4    4    0    0 -0.12647689973E+03 -0.15744354071E+03 -0.26662643655E+03  0.33447650342E+03  0.00000000000E+00 0. -1.
         11    1    4    4    0    0 -0.13334692687E+02 -0.21434085637E+02 -0.11265426102E+03  0.11544789552E+03  0.00000000000E+00 0.  1.
         21    1    1    2  502  501  0.28202183549E+03  0.19061550185E+03 -0.56734071089E+03  0.66162381114E+03  0.00000000000E+00 0.  1.
<scales pt_clust_5="13000.00000" pt_clust_6="13000.00000" pt_clust_7="13000.00000" pt_clust_8="13000.00000" pt_clust_9="340.39769"></scales>
<clustering>
<clus scale="   80.734">  5  6 -1 -1</clus>
<clus scale="   83.867">  7  8 -1 -1</clus>
<clus scale="  156.710">  5  7 -1 -1</clus>
<clus scale="  340.398">  2  9  1 -1</clus>
<clus scale="  340.398">  2  5  1 -1</clus>
</clustering>
</event>
<event>
 9    2  0.5608219E-005  0.1529051E+03  0.7546771E-02  0.1199235E+00
         -1   -1    0    0    0  501 -0.00000000000E+00  0.00000000000E+00  0.30121878488E+02  0.30121878488E+02  0.00000000000E+00 0.  1.
          2   -1    0    0  502    0  0.00000000000E+00 -0.00000000000E+00 -0.96151312219E+03  0.96151312219E+03  0.00000000000E+00 0. -1.
         24    2    1    2    0    0 -0.10029719281E+03 -0.88587377629E+02 -0.31984000855E+03  0.35534584796E+03  0.77883183245E+02 0.  0.
         23    2    1    2    0    0  0.66072828695E+02  0.84374517843E+02 -0.51099738248E+03  0.52998707101E+03  0.91012595770E+02 0.  0.
        -11    1    3    3    0    0 -0.10797512064E+03 -0.87378308066E+02 -0.25795856848E+03  0.29297818767E+03  0.00000000000E+00 0.  1.
         12    1    3    3    0    0  0.76779278290E+01 -0.12090695626E+01 -0.61881440073E+02  0.62367660293E+02  0.00000000000E+00 0. -1.
        -13    1    4    4    0    0  0.88065661876E+02  0.76781723253E+02 -0.44151386911E+03  0.45671160533E+03  0.00000000000E+00 0.  1.
         13    1    4    4    0    0 -0.21992833181E+02  0.75927945903E+01 -0.69483513362E+02  0.73275465677E+02  0.00000000000E+00 0. -1.
         21    1    1    2  502  501  0.34224364119E+02  0.42128597855E+01 -0.10055385268E+03  0.10630208171E+03  0.00000000000E+00 0. -1.
<scales pt_clust_5="13000.00000" pt_clust_6="13000.00000" pt_clust_7="13000.00000" pt_clust_8="13000.00000" pt_clust_9="34.48268"></scales>
<clustering>
<clus scale="   34.483">  2  9  1 -1</clus>
<clus scale="   77.883">  5  6 -1 -1</clus>
<clus scale="   91.013">  7  8 -1 -1</clus>
<clus scale="  145.473">  1  5  2 -1</clus>
<clus scale="   34.483">  2  5  1 -1</clus>
</clustering>
</event>
<event>
 9    2  0.5608219E-005  0.9233317E+02  0.7546771E-02  0.1303439E+00
          2   -1    0    0  502    0  0.00000000000E+00  0.00000000000E+00  0.18927050694E+03  0.18927050694E+03  0.00000000000E+00 0. -1.
         -1   -1    0    0    0  501 -0.00000000000E+00 -0.00000000000E+00 -0.86913765108E+02  0.86913765108E+02  0.00000000000E+00 0.  1.
         24    2    1    2    0    0 -0.84214362895E+01 -0.58774861295E+01 -0.34962047728E+02  0.88951319962E+02  0.81145099108E+02 0.  0.
         23    2    1    2    0    0  0.21357885342E+02  0.30778896224E+02  0.11438750355E+03  0.15099380451E+03  0.91165389888E+02 0.  0.
        -11    1    3    3    0    0  0.49442054313E-01  0.29486860304E+02 -0.42583945634E+02  0.51796426526E+02  0.00000000000E+00 0.  1.
         12    1    3    3    0    0 -0.84708783438E+01 -0.35364346433E+02  0.76218979058E+01  0.37154893436E+02  0.00000000000E+00 0. -1.
        -11    1    4    4    0    0  0.20107273394E+02 -0.30151701591E+02  0.55239411465E+02  0.66066785386E+02  0.00000000000E+00 0.  1.
         11    1    4    4    0    0  0.12506119480E+01  0.60930597815E+02  0.59148092084E+02  0.84927019125E+02  0.00000000000E+00 0. -1.
         21    1    1    2  502  501 -0.12936449052E+02 -0.24901410094E+02  0.22931286010E+02  0.36239147573E+02  0.00000000000E+00 0. -1.
<scales pt_clust_5="13000.00000" pt_clust_6="13000.00000" pt_clust_7="13000.00000" pt_clust_8="13000.00000" pt_clust_9="28.06122"></scales>
<clustering>
<clus scale="   28.061">  1  9  2 -1</clus>
<clus scale="   81.145">  5  6 -1 -1</clus>
<clus scale="   82.455">  2  5  1 -1</clus>
<clus scale="   91.165">  7  8 -1 -1</clus>
<clus scale="   28.061">  1  5  2 -1</clus>
</clustering>
</event>
<event>
 9    2  0.5608219E-005  0.1076828E+03  0.7546771E-02  0.1269921E+00
          2   -1    0    0  502    0  0.00000000000E+00  0.00000000000E+00  0.49868473581E+02  0.49868473581E+02  0.00000000000E+00 0. -1.
         -1   -1    0    0    0  501 -0.00000000000E+00 -0.00000000000E+00 -0.28331355265E+03  0.28331355265E+03  0.00000000000E+00 0.  1.
         23    2    1    2    0    0 -0.57505712909E+02  0.35395583552E+02 -0.99661734994E+02  0.15170014608E+03  0.92307738285E+02 0.  0.
         24    2    1    2    0    0  0.30077756363E+02 -0.35350629737E+02 -0.87110466170E+02  0.12734638022E+03  0.80464456669E+02 0.  0.
        -13    1    4    4    0    0 -0.16097449806E+02 -0.28117815120E+02 -0.70770020983E+02  0.77834023970E+02  0.00000000000E+00 0.  1.
         14    1    4    4    0    0  0.46175206169E+02 -0.72328146166E+01 -0.16340445186E+02  0.49512356245E+02  0.00000000000E+00 0. -1.
        -13    1    3    3    0    0 -0.52513054434E+02  0.59798518648E+02 -0.98680050115E+02  0.12677237873E+03  0.00000000000E+00 0.  1.
         13    1    3    3    0    0 -0.49926584751E+01 -0.24402935096E+02 -0.98168487901E+00  0.24927767352E+02  0.00000000000E+00 0. -1.
         21    1    1    2  502  501  0.27427956546E+02 -0.44953814808E-01 -0.46672877909E+02  0.54135499937E+02  0.00000000000E+00 0. -1.
<scales pt_clust_5="13000.00000" pt_clust_6="13000.00000" pt_clust_7="13000.00000" pt_clust_8="13000.00000" pt_clust_9="27.42799"></scales>
<clustering>
<clus scale="   27.428">  2  9  1 -1</clus>
<clus scale="   80.464">  5  6 -1 -1</clus>
<clus scale="   92.308">  7  8 -1 -1</clus>
<clus scale="   97.721">  1  5  2 -1</clus>
<clus scale="   97.721">  1  5  2 -1</clus>
</clustering>
</event>
<event>
 9    2  0.5608219E-005  0.1115299E+03  0.7546771E-02  0.1262230E+00
          2   -1    0    0  502    0  0.00000000000E+00  0.00000000000E+00  0.81686546537E+03  0.81686546537E+03  0.00000000000E+00 0. -1.
         -1   -1    0    0    0  501 -0.00000000000E+00 -0.00000000000E+00 -0.21979173041E+02  0.21979173041E+02  0.00000000000E+00 0.  1.
         24    2    1    2    0    0  0.96088902873E+01 -0.65061437303E+02  0.33263174976E+03  0.34841772271E+03  0.80160508662E+02 0.  0.
         23    2    1    2    0    0  0.15355266801E+02  0.61608290589E+02  0.44752502974E+03  0.46123630233E+03  0.91809088077E+02 0.  0.
        -13    1    3    3    0    0  0.21309804128E+02 -0.45585889901E+02  0.78315918196E+02  0.93089011988E+02  0.00000000000E+00 0.  1.
         14    1    3    3    0    0 -0.11700913841E+02 -0.19475547402E+02  0.25431583157E+03  0.25532871072E+03  0.00000000000E+00 0. -1.
        -13    1    4    4    0    0  0.45624522741E+02  0.66752936251E+02  0.31709107840E+03  0.32723738107E+03  0.00000000000E+00 0.  1.
         13    1    4    4    0    0 -0.30269255940E+02 -0.51446456612E+01  0.13043395134E+03  0.13399892125E+03  0.00000000000E+00 0. -1.
         21    1    1    2  502  501 -0.24964157088E+02  0.34531467132E+01  0.14729512831E+02  0.29190613381E+02  0.00000000000E+00 0. -1.
<scales pt_clust_5="13000.00000" pt_clust_6="13000.00000" pt_clust_7="13000.00000" pt_clust_8="13000.00000" pt_clust_9="25.20185"></scales>
<clustering>
<clus scale="   25.202">  2  9  1 -1</clus>
<clus scale="   80.161">  5  6 -1 -1</clus>
<clus scale="   91.809">  7  8 -1 -1</clus>
<clus scale="  102.155">  2  5  1 -1</clus>
<clus scale="  111.530">  1  5  2 -1</clus>
</clustering>
</event>
<event>
 9    2  0.5608219E-005  0.1109569E+03  0.7546771E-02  0.1262237E+00
         -1   -1    0    0    0  501 -0.00000000000E+00  0.00000000000E+00  0.20407962555E+02  0.20407962555E+02  0.00000000000E+00 0.  1.
          2   -1    0    0  502    0  0.00000000000E+00 -0.00000000000E+00 -0.19950673960E+04  0.19950673960E+04  0.00000000000E+00 0. -1.
         23    2    1    2    0    0 -0.43424913589E+02 -0.22392431551E+01 -0.34972800696E+03  0.36394500543E+03  0.90860061629E+02 0.  0.
         24    2    1    2    0    0  0.67683231790E+02  0.12141731142E+02 -0.16215958612E+04  0.16251172642E+04  0.81881279167E+02 0.  0.
        -11    1    4    4    0    0  0.18075994281E+02  0.16629293616E+02 -0.11033481755E+03  0.11303560032E+03  0.00000000000E+00 0.  1.
         12    1    4    4    0    0  0.49607237508E+02 -0.44875624746E+01 -0.15112610437E+04  0.15120816639E+04  0.00000000000E+00 0. -1.
        -13    1    3    3    0    0 -0.10617825234E+02 -0.43213922111E+02 -0.11254016430E+03  0.12101846908E+03  0.00000000000E+00 0. -1.
         13    1    3    3    0    0 -0.32807088356E+02  0.40974678956E+02 -0.23718784266E+03  0.24292653636E+03  0.00000000000E+00 0.  1.
         21    1    1    2  502  501 -0.24258318200E+02 -0.99024879864E+01 -0.33355652928E+01  0.26413088915E+02  0.00000000000E+00 0.  1.
<scales pt_clust_5="13000.00000" pt_clust_6="13000.00000" pt_clust_7="13000.00000" pt_clust_8="13000.00000" pt_clust_9="26.20163"></scales>
<clustering>
<clus scale="   26.202">  1  9  2 -1</clus>
<clus scale="   81.881">  5  6 -1 -1</clus>
<clus scale="   90.860">  7  8 -1 -1</clus>
<clus scale="  103.732">  2  5  1 -1</clus>
<clus scale="  103.732">  2  5  1 -1</clus>
</clustering>
</event>
<event>
 9    2  0.5608219E-005  0.1173623E+03  0.7546771E-02  0.1250838E+00
         -1   -1    0    0    0  501 -0.00000000000E+00  0.00000000000E+00  0.53559388082E+02  0.53559388082E+02  0.00000000000E+00 0.  1.
          2   -1    0    0  502    0  0.00000000000E+00 -0.00000000000E+00 -0.42691143461E+03  0.42691143461E+03  0.00000000000E+00 0. -1.
         23    2    1    2    0    0 -0.37245326890E+02  0.79022717097E+02 -0.12508420329E+03  0.17695164963E+03  0.89632718373E+02 0.  0.
         24    2    1    2    0    0  0.94311573539E+01 -0.71418770147E+02 -0.25253039324E+03  0.27437097640E+03  0.79487393475E+02 0.  0.
        -11    1    4    4    0    0  0.31988694386E+02 -0.28979994943E+02 -0.49257750073E+02  0.65493836486E+02  0.00000000000E+00 0.  1.
         12    1    4    4    0    0 -0.22557537032E+02 -0.42438775205E+02 -0.20327264317E+03  0.20887713991E+03  0.00000000000E+00 0. -1.
        -11    1    3    3    0    0 -0.58556462429E+02  0.84629752688E+02 -0.10683216701E+03  0.14833801347E+03  0.00000000000E+00 0. -1.
         11    1    3    3    0    0  0.21311135539E+02 -0.56070355918E+01 -0.18252036272E+02  0.28613636158E+02  0.00000000000E+00 0.  1.
         21    1    1    2  502  501  0.27814169536E+02 -0.76039469491E+01  0.42625499986E+01  0.29148196663E+02  0.00000000000E+00 0.  1.
<scales pt_clust_5="13000.00000" pt_clust_6="13000.00000" pt_clust_7="13000.00000" pt_clust_8="13000.00000" pt_clust_9="28.83484"></scales>
<clustering>
<clus scale="   28.835">  1  9  2 -1</clus>
<clus scale="   79.487">  5  6 -1 -1</clus>
<clus scale="   89.633">  7  8 -1 -1</clus>
<clus scale="  109.809">  2  5  1 -1</clus>
<clus scale="  109.809">  2  5  1 -1</clus>
</clustering>
</event>
<event>
 9    2  0.5608219E-005  0.1615561E+03  0.7546771E-02  0.1218509E+00
          2   -1    0    0  502    0  0.00000000000E+00  0.00000000000E+00  0.33172604204E+03  0.33172604204E+03  0.00000000000E+00 0. -1.
         -1   -1    0    0    0  501 -0.00000000000E+00 -0.00000000000E+00 -0.15193009868E+03  0.15193009868E+03  0.00000000000E+00 0.  1.
         24    2    1    2    0    0 -0.13424502715E+02 -0.13287169424E+02 -0.59589844144E+02  0.10108567851E+03  0.79439276994E+02 0.  0.
         23    2    1    2    0    0 -0.21305180942E+01  0.13922681903E+03  0.16967978501E+03  0.23778896892E+03  0.91453365461E+02 0.  0.
        -11    1    3    3    0    0  0.26515762433E+02 -0.24717011118E+02 -0.43280399945E+02  0.56455374549E+02  0.00000000000E+00 0.  1.
         12    1    3    3    0    0 -0.39940265148E+02  0.11429841693E+02 -0.16309444198E+02  0.44630303957E+02  0.00000000000E+00 0. -1.
        -11    1    4    4    0    0 -0.23802620010E+02  0.31244398725E+02  0.48875988973E+01  0.39581129266E+02  0.00000000000E+00 0. -1.
         11    1    4    4    0    0  0.21672101915E+02  0.10798242031E+03  0.16479218611E+03  0.19820783965E+03  0.00000000000E+00 0.  1.
         21    1    1    2  502  501  0.15555020809E+02 -0.12593964961E+03  0.69706002496E+02  0.14478149329E+03  0.00000000000E+00 0. -1.
<scales pt_clust_5="13000.00000" pt_clust_6="13000.00000" pt_clust_7="13000.00000" pt_clust_8="13000.00000" pt_clust_9="133.17903"></scales>
<clustering>
<clus scale="   79.439">  5  6 -1 -1</clus>
<clus scale="   81.654">  2  5  1 -1</clus>
<clus scale="   91.453">  7  8 -1 -1</clus>
<clus scale="  133.179">  2  9  1 -1</clus>
<clus scale="  161.556">  1  5  2 -1</clus>
</clustering>
</event>
<event>
 9    2  0.5608219E-005  0.2861230E+03  0.7546771E-02  0.1126971E+00
         -1   -1    0    0    0  501 -0.00000000000E+00  0.00000000000E+00  0.76690048566E+02  0.76690048566E+02  0.00000000000E+00 0.  1.
          2   -1    0    0  502    0  0.00000000000E+00 -0.00000000000E+00 -0.27996058771E+04  0.27996058771E+04  0.00000000000E+00 0. -1.
         24    2    1    2    0    0  0.82376974503E+02 -0.31463792931E+02 -0.88115416425E+02  0.14766534640E+03  0.79150437272E+02 0.  0.
         23    2    1    2    0    0  0.11474977173E+03 -0.17543903811E+03 -0.30448067237E+03  0.38085336987E+03  0.91621194538E+02 0.  0.
        -13    1    3    3    0    0  0.50177426106E+02 -0.48397630124E+02 -0.86706802209E+02  0.11125724355E+03  0.00000000000E+00 0.  1.
         14    1    3    3    0    0  0.32199548397E+02  0.16933837193E+02 -0.14086142160E+01  0.36408102849E+02  0.00000000000E+00 0. -1.
        -11    1    4    4    0    0  0.57627559067E+02 -0.17034117568E+02 -0.71694485039E+02  0.93547826861E+02  0.00000000000E+00 0. -1.
         11    1    4    4    0    0  0.57122212664E+02 -0.15840492054E+03 -0.23278618733E+03  0.28730554301E+03  0.00000000000E+00 0.  1.
         21    1    1    2  502  501 -0.19712674623E+03  0.20690283104E+03 -0.23303197398E+04  0.23477772095E+04  0.00000000000E+00 0. -1.
<scales pt_clust_5="13000.00000" pt_clust_6="13000.00000" pt_clust_7="13000.00000" pt_clust_8="13000.00000" pt_clust_9="271.05711"></scales>
<clustering>
<clus scale="   79.150">  5  6 -1 -1</clus>
<clus scale="   91.621">  7  8 -1 -1</clus>
<clus scale="  118.494">  1  5  2 -1</clus>
<clus scale="  271.057">  2  9  1 -1</clus>
<clus scale="  271.057">  2  5  1 -1</clus>
</clustering>
</event>
<event>
 9    2  0.5608219E-005  0.9296399E+02  0.7546771E-02  0.1297134E+00
          2   -1    0    0  502    0  0.00000000000E+00  0.00000000000E+00  0.18974733473E+03  0.18974733473E+03  0.00000000000E+00 0. -1.
         -1   -1    0    0    0  501 -0.00000000000E+00 -0.00000000000E+00 -0.28475522667E+03  0.28475522667E+03  0.00000000000E+00 0.  1.
         23    2    1    2    0    0  0.15521964115E+02 -0.16272387371E+02 -0.17423669637E+03  0.19308784628E+03  0.80117214502E+02 0.  0.
         24    2    1    2    0    0 -0.85894324378E+01  0.43341386721E+02  0.16580096564E+03  0.19044477603E+03  0.82625651927E+02 0.  0.
        -11    1    4    4    0    0 -0.22652744649E+02  0.59075449898E+02  0.15347694588E+03  0.16600671233E+03  0.00000000000E+00 0.  1.
         12    1    4    4    0    0  0.14063312211E+02 -0.15734063177E+02  0.12324019762E+02  0.24438063702E+02  0.00000000000E+00 0. -1.
        -13    1    3    3    0    0  0.10462194721E+02  0.32261261375E+02 -0.82045822300E+02  0.88779296352E+02  0.00000000000E+00 0.  1.
         13    1    3    3    0    0  0.50597693941E+01 -0.48533648746E+02 -0.92190874071E+02  0.10430854993E+03  0.00000000000E+00 0. -1.
         21    1    1    2  502  501 -0.69325316777E+01 -0.27068999350E+02 -0.86572161207E+02  0.90969939086E+02  0.00000000000E+00 0. -1.
<scales pt_clust_5="13000.00000" pt_clust_6="13000.00000" pt_clust_7="13000.00000" pt_clust_8="13000.00000" pt_clust_9="27.94263"></scales>
<clustering>
<clus scale="   27.943">  2  9  1 -1</clus>
<clus scale="   80.117">  7  8 -1 -1</clus>
<clus scale="   82.626">  5  6 -1 -1</clus>
<clus scale="   90.742">  2  7  1 -1</clus>
<clus scale="   92.964">  1  5  2 -1</clus>
</clustering>
</event>
<event>
 9    2  0.5608219E-005  0.9690225E+02  0.7546771E-02  0.1293445E+00
         -3   -1    0    0    0  501 -0.00000000000E+00  0.00000000000E+00  0.57302902884E+02  0.57302902884E+02  0.00000000000E+00 0.  1.
          4   -1    0    0  502    0  0.00000000000E+00 -0.00000000000E+00 -0.52067025539E+03  0.52067025539E+03  0.00000000000E+00 0. -1.
         24    2    1    2    0    0  0.18203883059E+01 -0.36574356678E+02 -0.17974384739E+03  0.20068082742E+03  0.81387630736E+02 0.  0.
         23    2    1    2    0    0  0.15526672809E+02  0.18512073431E+02 -0.31944335796E+03  0.33358617038E+03  0.93015588453E+02 0.  0.
        -13    1    3    3    0    0  0.25846944347E+02 -0.40415772962E+01 -0.13211157521E+02  0.29307568342E+02  0.00000000000E+00 0.  1.
         14    1    3    3    0    0 -0.24026556041E+02 -0.32532779381E+02 -0.16653268987E+03  0.17137325908E+03  0.00000000000E+00 0. -1.
        -13    1    4    4    0    0  0.48672149029E+02  0.10859378431E+02 -0.26298593721E+03  0.26767238812E+03  0.00000000000E+00 0.  1.
         13    1    4    4    0    0 -0.33145476220E+02  0.76526949999E+01 -0.56457420743E+02  0.65913782258E+02  0.00000000000E+00 0. -1.
         21    1    1    2  502  501 -0.17347061115E+02  0.18062283246E+02  0.35819852846E+02  0.43706160473E+02  0.00000000000E+00 0.  1.
<scales pt_clust_5="13000.00000" pt_clust_6="13000.00000" pt_clust_7="13000.00000" pt_clust_8="13000.00000" pt_clust_9="25.04329"></scales>
<clustering>
<clus scale="   25.043">  1  9  2 -1</clus>
<clus scale="   81.388">  5  6 -1 -1</clus>
<clus scale="   85.803">  1  5  2 -1</clus>
<clus scale="   93.016">  7  8 -1 -1</clus>
<clus scale="   96.902">  2  5  1 -1</clus>
</clustering>
</event>
<event>
 9    2  0.5608219E-005  0.1368023E+03  0.7546771E-02  0.1233749E+00
          2   -1    0    0  502    0  0.00000000000E+00  0.00000000000E+00  0.19258215324E+03  0.19258215324E+03  0.00000000000E+00 0. -1.
         -1   -1    0    0    0  501 -0.00000000000E+00 -0.00000000000E+00 -0.16062663726E+03  0.16062663726E+03  0.00000000000E+00 0.  1.
         24    2    1    2    0    0 -0.96603282092E+02 -0.24824203515E+02  0.17472823598E+02  0.13312751005E+03  0.86424528794E+02 0.  0.
         23    2    1    2    0    0  0.20363296661E+02 -0.67926109347E+02  0.19570805238E+02  0.99910382111E+02  0.67605087486E+02 0.  0.
        -11    1    3    3    0    0 -0.40166091245E+02  0.18634942635E+02 -0.24343815993E+02  0.50529173257E+02  0.00000000000E+00 0.  1.
         12    1    3    3    0    0 -0.56437190847E+02 -0.43459146150E+02  0.41816639591E+02  0.82598336796E+02  0.00000000000E+00 0. -1.
        -13    1    4    4    0    0  0.45422165634E+02 -0.43760946078E+02  0.14649744398E+02  0.64751899922E+02  0.00000000000E+00 0.  1.
         13    1    4    4    0    0 -0.25058868974E+02 -0.24165163269E+02  0.49210608393E+01  0.35158482189E+02  0.00000000000E+00 0. -1.
         21    1    1    2  502  501  0.76239985432E+02  0.92750312862E+02 -0.50881128623E+01  0.12017089834E+03  0.00000000000E+00 0.  1.
<scales pt_clust_5="13000.00000" pt_clust_6="13000.00000" pt_clust_7="13000.00000" pt_clust_8="13000.00000" pt_clust_9="106.04561"></scales>
<clustering>
<clus scale="   67.605">  7  8 -1 -1</clus>
<clus scale="   86.425">  5  6 -1 -1</clus>
<clus scale="   97.975">  1  7  2 -1</clus>
<clus scale="  106.046">  2  9  1 -1</clus>
<clus scale="   97.975">  1  5  2 -1</clus>
</clustering>
</event>
<event>
 9    2  0.5608219E-005  0.1079635E+03  0.7546771E-02  0.1268629E+00
         -3   -1    0    0    0  501 -0.00000000000E+00  0.00000000000E+00  0.14884386996E+02  0.14884386996E+02  0.00000000000E+00 0.  1.
          4   -1    0    0  502    0  0.00000000000E+00 -0.00000000000E+00 -0.13782780123E+04  0.13782780123E+04  0.00000000000E+00 0. -1.
         23    2    1    2    0    0 -0.36102877917E+02  0.49671473854E+02 -0.31004915238E+03  0.32863348205E+03  0.89993419323E+02 0.  0.
         24    2    1    2    0    0  0.67211293200E+02 -0.12882812389E+02 -0.77026083357E+03  0.77737480186E+03  0.79539336512E+02 0.  0.
        -11    1    4    4    0    0  0.34126626467E+02  0.28068056467E+02 -0.20725378261E+03  0.21191170999E+03  0.00000000000E+00 0.  1.
         12    1    4    4    0    0  0.33084666733E+02 -0.40950868856E+02 -0.56300705096E+03  0.56546309187E+03  0.00000000000E+00 0. -1.
        -11    1    3    3    0    0 -0.97419193314E+01  0.70558303033E+02 -0.16466846150E+03  0.17941315819E+03  0.00000000000E+00 0.  1.
         11    1    3    3    0    0 -0.26360958586E+02 -0.20886829179E+02 -0.14538069088E+03  0.14922032386E+03  0.00000000000E+00 0. -1.
         21    1    1    2  502  501 -0.31108415283E+02 -0.36788661465E+02 -0.28308363939E+03  0.28715411542E+03  0.00000000000E+00 0.  1.
<scales pt_clust_5="13000.00000" pt_clust_6="13000.00000" pt_clust_7="13000.00000" pt_clust_8="13000.00000" pt_clust_9="48.17820"></scales>
<clustering>
<clus scale="   48.178">  2  9  1 -1</clus>
<clus scale="   79.539">  5  6 -1 -1</clus>
<clus scale="   89.993">  7  8 -1 -1</clus>
<clus scale="   99.417">  2  5  1 -1</clus>
<clus scale="   48.178">  2  5  1 -1</clus>
</clustering>
</event>
<event>
 9    2  0.5608219E-005  0.1540599E+03  0.7546771E-02  0.1207149E+00
          2   -1    0    0  502    0  0.00000000000E+00  0.00000000000E+00  0.11612473221E+03  0.11612473221E+03  0.00000000000E+00 0. -1.
         -1   -1    0    0    0  501 -0.00000000000E+00 -0.00000000000E+00 -0.38944669925E+03  0.38944669925E+03  0.00000000000E+00 0.  1.
         23    2    1    2    0    0  0.45778614329E+02  0.13518140162E+03 -0.13362508378E+03  0.21552022761E+03  0.90684136555E+02 0.  0.
         24    2    1    2    0    0  0.55548157190E+02 -0.64934013510E+02 -0.26713180513E+02  0.12281745352E+03  0.84074425352E+02 0.  0.
        -11    1    4    4    0    0  0.45506291733E+02 -0.19207585039E+01 -0.36365098559E+02  0.58283207648E+02  0.00000000000E+00 0.  1.
         12    1    4    4    0    0  0.10041865458E+02 -0.63013255006E+02  0.96519180467E+01  0.64534245872E+02  0.00000000000E+00 0. -1.
        -13    1    3    3    0    0  0.59178381199E+02  0.90700501124E+02 -0.12959684051E+03  0.16889050528E+03  0.00000000000E+00 0.  1.
         13    1    3    3    0    0 -0.13399766870E+02  0.44480900494E+02 -0.40282432740E+01  0.46629722332E+02  0.00000000000E+00 0. -1.
         21    1    1    2  502  501 -0.10132677152E+03 -0.70247388108E+02 -0.11298370275E+03  0.16723375033E+03  0.00000000000E+00 0. -1.
<scales pt_clust_5="13000.00000" pt_clust_6="13000.00000" pt_clust_7="13000.00000" pt_clust_8="13000.00000" pt_clust_9="124.54248"></scales>
<clustering>
<clus scale="   84.074">  5  6 -1 -1</clus>
<clus scale="   90.684">  7  8 -1 -1</clus>
<clus scale="  119.877">  1  5  2 -1</clus>
<clus scale="  124.542">  2  9  1 -1</clus>
<clus scale="  119.877">  1  5  2 -1</clus>
</clustering>
</event>
<event>
 9    2  0.5608219E-005  0.1371331E+03  0.7546771E-02  0.1218352E+00
          2   -1    0    0  502    0  0.00000000000E+00  0.00000000000E+00  0.62991184706E+03  0.62991184706E+03  0.00000000000E+00 0. -1.
         -1   -1    0    0    0  501 -0.00000000000E+00 -0.00000000000E+00 -0.45367359166E+02  0.45367359166E+02  0.00000000000E+00 0.  1.
         23    2    1    2    0    0  0.79165349594E+02  0.39880147920E+02  0.17885551897E+03  0.21931601019E+03  0.90844025054E+02 0.  0.
         24    2    1    2    0    0 -0.10573569474E+03 -0.34977913076E+02  0.40520995580E+03  0.42894015770E+03  0.85971268821E+02 0.  0.
        -11    1    4    4    0    0 -0.54372924049E+02  0.97531172959E+01  0.83635662087E+02  0.10023204148E+03  0.00000000000E+00 0.  1.
         12    1    4    4    0    0 -0.51362770688E+02 -0.44731030372E+02  0.32157429371E+03  0.32870811621E+03  0.00000000000E+00 0. -1.
        -13    1    3    3    0    0  0.85252693461E+02  0.16316012079E+02  0.17407155599E+03  0.19451257182E+03  0.00000000000E+00 0.  1.
         13    1    3    3    0    0 -0.60873438673E+01  0.23564135840E+02  0.47839629778E+01  0.24803438371E+02  0.00000000000E+00 0. -1.
         21    1    1    2  502  501  0.26570345144E+02 -0.49022348437E+01  0.47901313313E+00  0.27023038339E+02  0.00000000000E+00 0.  1.
<scales pt_clust_5="13000.00000" pt_clust_6="13000.00000" pt_clust_7="13000.00000" pt_clust_8="13000.00000" pt_clust_9="27.01879"></scales>
<clustering>
<clus scale="   27.019">  2  9  1 -1</clus>
<clus scale="   85.971">  5  6 -1 -1</clus>
<clus scale="   90.844">  7  8 -1 -1</clus>
<clus scale="  133.955">  1  5  2 -1</clus>
<clus scale="  133.955">  1  5  2 -1</clus>
</clustering>
</event>
<event>
 9    2  0.5608219E-005  0.9872607E+02  0.7546771E-02  0.1288036E+00
         -1   -1    0    0    0  501 -0.00000000000E+00  0.00000000000E+00  0.32990693235E+03  0.32990693235E+03  0.00000000000E+00 0.  1.
          2   -1    0    0  502    0  0.00000000000E+00 -0.00000000000E+00 -0.90094198632E+02  0.90094198632E+02  0.00000000000E+00 0. -1.
         23    2    1    2    0    0 -0.71683802475E+02  0.58372651769E+01  0.10286183843E+03  0.15487846942E+03  0.90742169274E+02 0.  0.
         24    2    1    2    0    0  0.30400295669E+02 -0.69458527671E+01 -0.31061324449E+02  0.92109185543E+02  0.80912751390E+02 0.  0.
        -13    1    4    4    0    0  0.14885190836E+02 -0.36793864220E+02  0.80733315811E+01  0.40503531121E+02  0.00000000000E+00 0.  1.
         14    1    4    4    0    0  0.15515104833E+02  0.29848011453E+02 -0.39134656030E+02  0.51605654421E+02  0.00000000000E+00 0. -1.
        -11    1    3    3    0    0  0.42650293718E+01  0.34377163754E+02  0.29727812136E+02  0.45647811314E+02  0.00000000000E+00 0. -1.
         11    1    3    3    0    0 -0.75948831847E+02 -0.28539898578E+02  0.73134026289E+02  0.10923065811E+03  0.00000000000E+00 0.  1.
         21    1    1    2  502  501  0.41283506806E+02  0.11085875902E+01  0.16801221974E+03  0.17301347601E+03  0.00000000000E+00 0.  1.
<scales pt_clust_5="13000.00000" pt_clust_6="13000.00000" pt_clust_7="13000.00000" pt_clust_8="13000.00000" pt_clust_9="41.29839"></scales>
<clustering>
<clus scale="   41.298">  1  9  2 -1</clus>
<clus scale="   80.913">  5  6 -1 -1</clus>
<clus scale="   89.775">  2  5  1 -1</clus>
<clus scale="   90.742">  7  8 -1 -1</clus>
<clus scale="   89.775">  2  5  1 -1</clus>
</clustering>
</event>
<event>
 9    2  0.5608219E-005  0.1662700E+03  0.7546771E-02  0.1201538E+00
         -1   -1    0    0    0  501 -0.00000000000E+00  0.00000000000E+00  0.54580381951E+02  0.54580381951E+02  0.00000000000E+00 0.  1.
          2   -1    0    0  502    0  0.00000000000E+00 -0.00000000000E+00 -0.10377751198E+04  0.10377751198E+04  0.00000000000E+00 0. -1.
         23    2    1    2    0    0 -0.38737358567E+02  0.48496322583E+02 -0.19063172018E+03  0.21891180081E+03  0.87917276711E+02 0.  0.
         24    2    1    2    0    0 -0.88029596226E+02 -0.11377051971E+03 -0.65096137344E+03  0.67249194732E+03  0.88327620415E+02 0.  0.
        -11    1    4    4    0    0 -0.55219252877E+02 -0.29937273464E+02 -0.13709525194E+03  0.15079958334E+03  0.00000000000E+00 0.  1.
         12    1    4    4    0    0 -0.32810343350E+02 -0.83833246247E+02 -0.51386612151E+03  0.52169236398E+03  0.00000000000E+00 0. -1.
        -11    1    3    3    0    0  0.85212448248E+01 -0.20437814854E+02 -0.58668724152E+02  0.62708333442E+02  0.00000000000E+00 0.  1.
         11    1    3    3    0    0 -0.47258603392E+02  0.68934137437E+02 -0.13196299602E+03  0.15620346737E+03  0.00000000000E+00 0. -1.
         21    1    1    2  502  501  0.12676695479E+03  0.65274197128E+02 -0.14160164426E+03  0.20095175365E+03  0.00000000000E+00 0.  1.
<scales pt_clust_5="13000.00000" pt_clust_6="13000.00000" pt_clust_7="13000.00000" pt_clust_8="13000.00000" pt_clust_9="140.86853"></scales>
<clustering>
<clus scale="   87.917">  7  8 -1 -1</clus>
<clus scale="   88.328">  5  6 -1 -1</clus>
<clus scale="  107.619">  1  7  2 -1</clus>
<clus scale="  140.869">  1  9  2 -1</clus>
<clus scale="  166.270">  2  5  1 -1</clus>
</clustering>
</event>
<event>
 9    2  0.5608219E-005  0.9871154E+02  0.7546771E-02  0.1289043E+00
          2   -1    0    0  502    0  0.00000000000E+00  0.00000000000E+00  0.25981511328E+03  0.25981511328E+03  0.00000000000E+00 0. -1.
         -1   -1    0    0    0  501 -0.00000000000E+00 -0.00000000000E+00 -0.57597428493E+02  0.57597428493E+02  0.00000000000E+00 0.  1.
         23    2    1    2    0    0  0.13884028339E+02  0.17511211526E+02  0.17081478414E+02  0.99402644526E+02  0.95339918512E+02 0.  0.
         24    2    1    2    0    0 -0.72403518770E+01 -0.37409208183E+02  0.16348857573E+03  0.18786543473E+03  0.84338814435E+02 0.  0.
        -13    1    4    4    0    0 -0.25530212991E+01  0.27397165161E+02  0.45708960585E+02  0.53351960174E+02  0.00000000000E+00 0.  1.
         14    1    4    4    0    0 -0.46873305779E+01 -0.64806373344E+02  0.11777961514E+03  0.13451347456E+03  0.00000000000E+00 0. -1.
        -13    1    3    3    0    0 -0.34570404552E+02  0.24313663908E+02 -0.10066099288E+02  0.43446443795E+02  0.00000000000E+00 0.  1.
         13    1    3    3    0    0  0.48454432891E+02 -0.68024523816E+01  0.27147577702E+02  0.55956200731E+02  0.00000000000E+00 0. -1.
         21    1    1    2  502  501 -0.66436764618E+01  0.19897996657E+02  0.21647630640E+02  0.30144462513E+02  0.00000000000E+00 0.  1.
<scales pt_clust_5="13000.00000" pt_clust_6="13000.00000" pt_clust_7="13000.00000" pt_clust_8="13000.00000" pt_clust_9="20.97781"></scales>
<clustering>
<clus scale="   20.978">  1  9  2 -1</clus>
<clus scale="   84.339">  5  6 -1 -1</clus>
<clus scale="   88.132">  1  5  2 -1</clus>
<clus scale="   95.340">  7  8 -1 -1</clus>
<clus scale="   20.978">  1  5  2 -1</clus>
</clustering>
</event>
<event>
 9    2  0.5608219E-005  0.9429001E+02  0.7546771E-02  0.1299462E+00
         -1   -1    0    0    0  501 -0.00000000000E+00  0.00000000000E+00  0.37840593744E+02  0.37840593744E+02  0.00000000000E+00 0.  1.
          2   -1    0    0  502    0  0.00000000000E+00 -0.00000000000E+00 -0.47831659609E+03  0.47831659609E+03  0.00000000000E+00 0. -1.
         23    2    1    2    0    0 -0.27464505783E+02 -0.31119149808E+02 -0.79536129303E+02  0.12896546219E+03  0.92646608195E+02 0.  0.
         24    2    1    2    0    0  0.15218849632E+02 -0.34398606551E+01 -0.32658447991E+03  0.33694658523E+03  0.81437907372E+02 0.  0.
        -13    1    4    4    0    0  0.36781699479E+02  0.19514947121E+02 -0.10210479956E+03  0.11026838473E+03  0.00000000000E+00 0.  1.
         14    1    4    4    0    0 -0.21562849848E+02 -0.22954807776E+02 -0.22447968035E+03  0.22667820050E+03  0.00000000000E+00 0. -1.
        -11    1    3    3    0    0  0.16810927072E+02 -0.45521566204E+02 -0.63075566553E+02  0.79582330668E+02  0.00000000000E+00 0.  1.
         11    1    3    3    0    0 -0.44275432855E+02  0.14402416396E+02 -0.16460562750E+02  0.49383131519E+02  0.00000000000E+00 0. -1.
         21    1    1    2  502  501  0.12245656152E+02  0.34559010463E+02 -0.34355393136E+02  0.50245142415E+02  0.00000000000E+00 0. -1.
<scales pt_clust_5="13000.00000" pt_clust_6="13000.00000" pt_clust_7="13000.00000" pt_clust_8="13000.00000" pt_clust_9="36.66444"></scales>
<clustering>
<clus scale="   36.664">  1  9  2 -1</clus>
<clus scale="   81.438">  5  6 -1 -1</clus>
<clus scale="   83.303">  2  5  1 -1</clus>
<clus scale="   92.647">  7  8 -1 -1</clus>
<clus scale="   83.303">  2  5  1 -1</clus>
</clustering>
</event>
<event>
 9    2  0.5608219E-005  0.1194163E+03  0.7546771E-02  0.1247263E+00
          2   -1    0    0  502    0  0.00000000000E+00  0.00000000000E+00  0.10425953791E+04  0.10425953791E+04  0.00000000000E+00 0. -1.
         -1   -1    0    0    0  501 -0.00000000000E+00 -0.00000000000E+00 -0.51530819713E+02  0.51530819713E+02  0.00000000000E+00 0.  1.
         23    2    1    2    0    0 -0.34617750175E+02 -0.93093114281E+02  0.26048707801E+03  0.29317131155E+03  0.90725870373E+02 0.  0.
         24    2    1    2    0    0  0.17254251905E+02  0.70542490536E+02  0.75541893850E+03  0.76317764947E+03  0.80674654111E+02 0.  0.
        -11    1    4    4    0    0  0.42214247492E+02  0.24036926666E+02  0.22760392108E+03  0.23273023315E+03  0.00000000000E+00 0.  1.
         12    1    4    4    0    0 -0.24959995587E+02  0.46505563870E+02  0.52781501743E+03  0.53044741631E+03  0.00000000000E+00 0. -1.
        -11    1    3    3    0    0 -0.64880508819E+02 -0.74555511571E+02  0.18445728557E+03  0.20926656429E+03  0.00000000000E+00 0. -1.
         11    1    3    3    0    0  0.30262758644E+02 -0.18537602710E+02  0.76029792432E+02  0.83904747257E+02  0.00000000000E+00 0.  1.
         21    1    1    2  502  501  0.17363498270E+02  0.22550623745E+02 -0.24841457122E+02  0.37777237795E+02  0.00000000000E+00 0.  1.
<scales pt_clust_5="13000.00000" pt_clust_6="13000.00000" pt_clust_7="13000.00000" pt_clust_8="13000.00000" pt_clust_9="28.46088"></scales>
<clustering>
<clus scale="   28.461">  2  9  1 -1</clus>
<clus scale="   80.675">  5  6 -1 -1</clus>
<clus scale="   90.726">  7  8 -1 -1</clus>
<clus scale="  111.971">  1  5  2 -1</clus>
<clus scale="  111.971">  1  5  2 -1</clus>
</clustering>
</event>
<event>
 9    2  0.5608219E-005  0.1465706E+03  0.7546771E-02  0.1215329E+00
         -1   -1    0    0    0  501 -0.00000000000E+00  0.00000000000E+00  0.15417483467E+03  0.15417483467E+03  0.00000000000E+00 0.  1.
          2   -1    0    0  502    0  0.00000000000E+00 -0.00000000000E+00 -0.55860820730E+03  0.55860820730E+03  0.00000000000E+00 0. -1.
         23    2    1    2    0    0  0.70499570291E+02  0.20645778291E+02  0.48300951199E+02  0.12652090207E+03  0.90984170061E+02 0.  0.
         24    2    1    2    0    0  0.27540580470E+02 -0.11931087260E+03 -0.41791250223E+03  0.44287723395E+03  0.80596631037E+02 0.  0.
        -13    1    4    4    0    0 -0.26580177567E+02 -0.30418388740E+02 -0.15334854030E+03  0.15857981910E+03  0.00000000000E+00 0.  1.
         14    1    4    4    0    0  0.54120758037E+02 -0.88892483858E+02 -0.26456396193E+03  0.28429741485E+03  0.00000000000E+00 0. -1.
        -13    1    3    3    0    0  0.36820027415E+00  0.40007570808E+02  0.15484820918E+01  0.40039219401E+02  0.00000000000E+00 0.  1.
         13    1    3    3    0    0  0.70131370017E+02 -0.19361792517E+02  0.46752469107E+02  0.86481682670E+02  0.00000000000E+00 0. -1.
         21    1    1    2  502  501 -0.98040150761E+02  0.98665094307E+02 -0.34821821596E+02  0.14338490595E+03  0.00000000000E+00 0.  1.
<scales pt_clust_5="13000.00000" pt_clust_6="13000.00000" pt_clust_7="13000.00000" pt_clust_8="13000.00000" pt_clust_9="122.42196"></scales>
<clustering>
<clus scale="   80.597">  5  6 -1 -1</clus>
<clus scale="   90.984">  7  8 -1 -1</clus>
<clus scale="  116.938">  1  7  2 -1</clus>
<clus scale="  122.422">  1  9  2 -1</clus>
<clus scale="  146.571">  2  5  1 -1</clus>
</clustering>
</event>
<event>
 9    2  0.5608219E-005  0.8914552E+02  0.7546771E-02  0.1307336E+00
         -1   -1    0    0    0  501 -0.00000000000E+00  0.00000000000E+00  0.15956901449E+03  0.15956901449E+03  0.00000000000E+00 0.  1.
          2   -1    0    0  502    0  0.00000000000E+00 -0.00000000000E+00 -0.84393336989E+02  0.84393336989E+02  0.00000000000E+00 0. -1.
         23    2    1    2    0    0  0.25234646769E+02  0.18777260089E+02  0.10204383082E+03  0.13651341984E+03  0.85050558453E+02 0.  0.
         24    2    1    2    0    0 -0.41031566149E+01 -0.14429828154E+02 -0.19911805538E+02  0.84781095062E+02  0.81032698618E+02 0.  0.
        -11    1    4    4    0    0  0.24368953645E+02  0.22674288888E+02  0.15505857861E+01  0.33322268750E+02  0.00000000000E+00 0.  1.
         12    1    4    4    0    0 -0.28472110260E+02 -0.37104117041E+02 -0.21462391324E+02  0.51458826312E+02  0.00000000000E+00 0. -1.
        -13    1    3    3    0    0  0.53758667372E+02 -0.36556895542E+01  0.67952247019E+02  0.86722928103E+02  0.00000000000E+00 0.  1.
         13    1    3    3    0    0 -0.28524020603E+02  0.22432949643E+02  0.34091583803E+02  0.49790491735E+02  0.00000000000E+00 0. -1.
         21    1    1    2  502  501 -0.21131490154E+02 -0.43474319352E+01 -0.69563477846E+01  0.22667836577E+02  0.00000000000E+00 0.  1.
<scales pt_clust_5="13000.00000" pt_clust_6="13000.00000" pt_clust_7="13000.00000" pt_clust_8="13000.00000" pt_clust_9="21.57406"></scales>
<clustering>
<clus scale="   21.574">  2  9  1 -1</clus>
<clus scale="   81.033">  5  6 -1 -1</clus>
<clus scale="   85.051">  7  8 -1 -1</clus>
<clus scale="   85.321">  2  5  1 -1</clus>
<clus scale="   21.574">  2  5  1 -1</clus>
</clustering>
</event>
<event>
 9    2  0.5608219E-005  0.1053977E+03  0.7546771E-02  0.1274451E+00
         -1   -1    0    0    0  501 -0.00000000000E+00  0.00000000000E+00  0.96484379576E+02  0.96484379576E+02  0.00000000000E+00 0.  1.
          2   -1    0    0  502    0  0.00000000000E+00 -0.00000000000E+00 -0.49519669793E+03  0.49519669793E+03  0.00000000000E+00 0. -1.
         23    2    1    2    0    0  0.62482326267E+02 -0.71209390956E+01  0.24818153806E+02  0.11361329127E+03  0.91308763678E+02 0.  0.
         24    2    1    2    0    0 -0.17377101725E+02  0.51679546350E+02 -0.70911823439E+02  0.11979434013E+03  0.79683486676E+02 0.  0.
        -11    1    4    4    0    0  0.15295227273E+02  0.27410924094E+02 -0.72563073688E+02  0.79061383748E+02  0.00000000000E+00 0.  1.
         12    1    4    4    0    0 -0.32672328999E+02  0.24268622255E+02  0.16512502494E+01  0.40732956384E+02  0.00000000000E+00 0. -1.
        -11    1    3    3    0    0 -0.15923839612E+02 -0.22658013990E+02 -0.52999186509E+01  0.28196514034E+02  0.00000000000E+00 0. -1.
         11    1    3    3    0    0  0.78406165879E+02  0.15537074895E+02  0.30118072457E+02  0.85416777231E+02  0.00000000000E+00 0.  1.
         21    1    1    2  502  501 -0.45105224542E+02 -0.44558607254E+02 -0.35261864872E+03  0.35827344611E+03  0.00000000000E+00 0. -1.
<scales pt_clust_5="13000.00000" pt_clust_6="13000.00000" pt_clust_7="13000.00000" pt_clust_8="13000.00000" pt_clust_9="63.40308"></scales>
<clustering>
<clus scale="   63.403">  2  9  1 -1</clus>
<clus scale="   79.683">  5  6 -1 -1</clus>
<clus scale="   91.309">  7  8 -1 -1</clus>
<clus scale="   95.503">  2  5  1 -1</clus>
<clus scale="   63.403">  2  5  1 -1</clus>
</clustering>
</event>
<event>
 9    2  0.5608219E-005  0.1300092E+03  0.7546771E-02  0.1230767E+00
          2   -1    0    0  502    0  0.00000000000E+00  0.00000000000E+00  0.30148624071E+03  0.30148624071E+03  0.00000000000E+00 0. -1.
         -1   -1    0    0    0  501 -0.00000000000E+00 -0.00000000000E+00 -0.89289240118E+02  0.89289240118E+02  0.00000000000E+00 0.  1.
         24    2    1    2    0    0  0.34757505382E+02  0.97318778791E+02  0.47318487860E+01  0.13110579399E+03  0.80543838620E+02 0.  0.
         23    2    1    2    0    0 -0.15346012192E+02 -0.86008776618E+02  0.19735348892E+03  0.23503296742E+03  0.93054212381E+02 0.  0.
        -13    1    3    3    0    0  0.54255345547E+02  0.66759515347E+02 -0.18576979940E+02  0.88008974505E+02  0.00000000000E+00 0.  1.
         14    1    3    3    0    0 -0.19497840165E+02  0.30559263444E+02  0.23308828726E+02  0.43096819487E+02  0.00000000000E+00 0. -1.
        -11    1    4    4    0    0 -0.44487104695E+02 -0.11534604879E+02  0.91210480121E+02  0.10213472122E+03  0.00000000000E+00 0. -1.
         11    1    4    4    0    0  0.29141092503E+02 -0.74474171739E+02  0.10614300880E+03  0.13289824621E+03  0.00000000000E+00 0.  1.
         21    1    1    2  502  501 -0.19411493191E+02 -0.11310002172E+02  0.10111662885E+02  0.24636719411E+02  0.00000000000E+00 0. -1.
<scales pt_clust_5="13000.00000" pt_clust_6="13000.00000" pt_clust_7="13000.00000" pt_clust_8="13000.00000" pt_clust_9="22.46602"></scales>
<clustering>
<clus scale="   22.466">  2  9  1 -1</clus>
<clus scale="   80.544">  5  6 -1 -1</clus>
<clus scale="   93.054">  7  8 -1 -1</clus>
<clus scale="  121.370">  2  5  1 -1</clus>
<clus scale="  130.009">  1  5  2 -1</clus>
</clustering>
</event>
<event>
 9    2  0.5608219E-005  0.1674598E+03  0.7546771E-02  0.1182140E+00
          2   -1    0    0  502    0  0.00000000000E+00  0.00000000000E+00  0.85424552039E+03  0.85424552039E+03  0.00000000000E+00 0. -1.
         -1   -1    0    0    0  501 -0.00000000000E+00 -0.00000000000E+00 -0.13756510575E+03  0.13756510575E+03  0.00000000000E+00 0.  1.
         24    2    1    2    0    0  0.99559482475E+02  0.46507464103E+02  0.22102349978E+03  0.25942255502E+03  0.79835078958E+02 0.  0.
         23    2    1    2    0    0 -0.15604410352E+03 -0.50037775854E+02  0.59180284324E+03  0.62082187974E+03  0.91299834901E+02 0.  0.
        -13    1    3    3    0    0  0.46598252654E+02 -0.25131512657E+01  0.30653743178E+02  0.55833368612E+02  0.00000000000E+00 0.  1.
         14    1    3    3    0    0  0.52961229820E+02  0.49020615369E+02  0.19036975660E+03  0.20358918641E+03  0.00000000000E+00 0. -1.
        -13    1    4    4    0    0 -0.70539778304E+02 -0.56992187441E+02  0.19794489398E+03  0.21772953590E+03  0.00000000000E+00 0.  1.
         13    1    4    4    0    0 -0.85504325216E+02  0.69544115863E+01  0.39385794926E+03  0.40309234384E+03  0.00000000000E+00 0. -1.
         21    1    1    2  502  501  0.56484621045E+02  0.35303117512E+01 -0.96145928372E+02  0.11156619138E+03  0.00000000000E+00 0.  1.
<scales pt_clust_5="13000.00000" pt_clust_6="13000.00000" pt_clust_7="13000.00000" pt_clust_8="13000.00000" pt_clust_9="56.59484"></scales>
<clustering>
<clus scale="   56.595">  2  9  1 -1</clus>
<clus scale="   79.835">  5  6 -1 -1</clus>
<clus scale="   91.300">  7  8 -1 -1</clus>
<clus scale="  161.495">  2  5  1 -1</clus>
<clus scale="  167.460">  1  5  2 -1</clus>
</clustering>
</event>
<event>
 9    2  0.5608219E-005  0.3218727E+03  0.7546771E-02  0.1075705E+00
          2   -1    0    0  502    0  0.00000000000E+00  0.00000000000E+00  0.11187872466E+04  0.11187872466E+04  0.00000000000E+00 0. -1.
         -1   -1    0    0    0  501 -0.00000000000E+00 -0.00000000000E+00 -0.22380140880E+03  0.22380140880E+03  0.00000000000E+00 0.  1.
         24    2    1    2    0    0 -0.32666943387E+03 -0.11608108541E+03  0.19034127607E+02  0.35587008145E+03  0.78060742022E+02 0.  0.
         23    2    1    2    0    0  0.27239687922E+03  0.11906514710E+03  0.87736739917E+03  0.93234561202E+03  0.10544296114E+03 0.  0.
        -13    1    3    3    0    0 -0.19575762598E+03 -0.31648216587E+02 -0.43472983662E+01  0.19834706135E+03  0.00000000000E+00 0.  1.
         14    1    3    3    0    0 -0.13091180789E+03 -0.84432868819E+02  0.23381425973E+02  0.15752302010E+03  0.00000000000E+00 0. -1.
        -13    1    4    4    0    0  0.79422235711E+02  0.83501162873E+02  0.25627296505E+03  0.28099140261E+03  0.00000000000E+00 0. -1.
         13    1    4    4    0    0  0.19297464351E+03  0.35563984226E+02  0.62109443413E+03  0.65135420941E+03  0.00000000000E+00 0.  1.
         21    1    1    2  502  501  0.54272554648E+02 -0.29840616927E+01 -0.14156889957E+01  0.54372961916E+02  0.00000000000E+00 0.  1.
<scales pt_clust_5="13000.00000" pt_clust_6="13000.00000" pt_clust_7="13000.00000" pt_clust_8="13000.00000" pt_clust_9="54.35453"></scales>
<clustering>
<clus scale="   54.355">  2  9  1 -1</clus>
<clus scale="   78.061">  5  6 -1 -1</clus>
<clus scale="  105.443">  7  8 -1 -1</clus>
<clus scale="  313.970">  2  5  1 -1</clus>
<clus scale="  321.873">  1  5  2 -1</clus>
</clustering>
</event>
<event>
 9    2  0.5608219E-005  0.1229565E+03  0.7546771E-02  0.1241304E+00
         -1   -1    0    0    0  501 -0.00000000000E+00  0.00000000000E+00  0.56922456019E+02  0.56922456019E+02  0.00000000000E+00 0.  1.
          2   -1    0    0  502    0  0.00000000000E+00 -0.00000000000E+00 -0.34085567909E+03  0.34085567909E+03  0.00000000000E+00 0. -1.
         24    2    1    2    0    0 -0.62902011495E+02 -0.47435104026E+02 -0.86326873484E+02  0.14194318925E+03  0.80553012013E+02 0.  0.
         23    2    1    2    0    0  0.82467779782E+02  0.29135730376E+02 -0.19000315100E+03  0.22798723512E+03  0.90703674149E+02 0.  0.
        -11    1    3    3    0    0 -0.27285454586E+02 -0.32138767586E+02  0.52650579416E+01  0.42486671428E+02  0.00000000000E+00 0.  1.
         12    1    3    3    0    0 -0.35616556909E+02 -0.15296336439E+02 -0.91591931425E+02  0.99456517819E+02  0.00000000000E+00 0. -1.
        -13    1    4    4    0    0  0.36103050807E+02  0.10263581169E+02 -0.68973273279E+01  0.38162081970E+02  0.00000000000E+00 0.  1.
         13    1    4    4    0    0  0.46364728975E+02  0.18872149207E+02 -0.18310582367E+03  0.18982515315E+03  0.00000000000E+00 0. -1.
         21    1    1    2  502  501 -0.19565768287E+02  0.18299373650E+02 -0.76031985944E+01  0.27847710741E+02  0.00000000000E+00 0. -1.
<scales pt_clust_5="13000.00000" pt_clust_6="13000.00000" pt_clust_7="13000.00000" pt_clust_8="13000.00000" pt_clust_9="26.78967"></scales>
<clustering>
<clus scale="   26.790">  1  9  2 -1</clus>
<clus scale="   80.553">  5  6 -1 -1</clus>
<clus scale="   90.704">  7  8 -1 -1</clus>
<clus scale="  115.672">  1  5  2 -1</clus>
<clus scale="  122.957">  2  5  1 -1</clus>
</clustering>
</event>
<event>
 9    2  0.5608219E-005  0.1124113E+03  0.7546771E-02  0.1265985E+00
          2   -1    0    0  502    0  0.00000000000E+00  0.00000000000E+00  0.21751261688E+03  0.21751261688E+03  0.00000000000E+00 0. -1.
         -1   -1    0    0    0  501 -0.00000000000E+00 -0.00000000000E+00 -0.71219063160E+02  0.71219063160E+02  0.00000000000E+00 0.  1.
         24    2    1    2    0    0 -0.19021782949E+02 -0.45447880582E+02  0.16201489903E+02  0.94269526894E+02  0.78720501457E+02 0.  0.
         23    2    1    2    0    0 -0.62622212771E+01  0.50857068996E+02  0.12371371758E+03  0.16783090290E+03  0.10117544745E+03 0.  0.
        -11    1    3    3    0    0 -0.13322090243E+01 -0.58218919974E+02  0.32817703209E+02  0.66844738519E+02  0.00000000000E+00 0.  1.
         12    1    3    3    0    0 -0.17689573924E+02  0.12771039391E+02 -0.16616213306E+02  0.27424788374E+02  0.00000000000E+00 0. -1.
        -11    1    4    4    0    0 -0.40590525511E+02 -0.48663050110E+01  0.77788797300E+02  0.87877008774E+02  0.00000000000E+00 0. -1.
         11    1    4    4    0    0  0.34328304234E+02  0.55723374007E+02  0.45924920283E+02  0.79953894122E+02  0.00000000000E+00 0.  1.
         21    1    1    2  502  501  0.25284004226E+02 -0.54091884135E+01  0.63783462299E+01  0.26631250245E+02  0.00000000000E+00 0.  1.
<scales pt_clust_5="13000.00000" pt_clust_6="13000.00000" pt_clust_7="13000.00000" pt_clust_8="13000.00000" pt_clust_9="25.85614"></scales>
<clustering>
<clus scale="   25.856">  2  9  1 -1</clus>
<clus scale="   78.721">  5  6 -1 -1</clus>
<clus scale="   92.719">  2  5  1 -1</clus>
<clus scale="  101.175">  7  8 -1 -1</clus>
<clus scale="  112.411">  1  5  2 -1</clus>
</clustering>
</event>
<event>
 9    2  0.5608219E-005  0.1374916E+03  0.7546771E-02  0.1217258E+00
          2   -1    0    0  502    0  0.00000000000E+00  0.00000000000E+00  0.36626155950E+03  0.36626155950E+03  0.00000000000E+00 0. -1.
         -1   -1    0    0    0  501 -0.00000000000E+00 -0.00000000000E+00 -0.11304766576E+03  0.11304766576E+03  0.00000000000E+00 0.  1.
         23    2    1    2    0    0  0.99870357623E+02 -0.46117841395E+02  0.49240405465E+02  0.14912667761E+03  0.87824853079E+02 0.  0.
         24    2    1    2    0    0 -0.10756665518E+03 -0.59619590852E+01  0.23263115172E+03  0.27024257527E+03  0.85484890348E+02 0.  0.
        -13    1    4    4    0    0 -0.70096343248E+02 -0.43765111311E+01  0.56430071699E+02  0.90094418131E+02  0.00000000000E+00 0.  1.
         14    1    4    4    0    0 -0.37470311928E+02 -0.15854479541E+01  0.17620108002E+03  0.18014815714E+03  0.00000000000E+00 0. -1.
        -11    1    3    3    0    0  0.42412881631E+02 -0.25762002210E+02  0.69049929543E+02  0.85031911987E+02  0.00000000000E+00 0. -1.
         11    1    3    3    0    0  0.57457475992E+02 -0.20355839184E+02 -0.19809524079E+02  0.64094765625E+02  0.00000000000E+00 0.  1.
         21    1    1    2  502  501  0.76962975524E+01  0.52079800480E+02 -0.28657663445E+02  0.59939972374E+02  0.00000000000E+00 0. -1.
<scales pt_clust_5="13000.00000" pt_clust_6="13000.00000" pt_clust_7="13000.00000" pt_clust_8="13000.00000" pt_clust_9="52.64540"></scales>
<clustering>
<clus scale="   52.645">  2  9  1 -1</clus>
<clus scale="   85.485">  5  6 -1 -1</clus>
<clus scale="   87.825">  7  8 -1 -1</clus>
<clus scale="  136.009">  1  5  2 -1</clus>
<clus scale="  136.009">  1  5  2 -1</clus>
</clustering>
</event>
<event>
 9    2  0.5608219E-005  0.1101648E+03  0.7546771E-02  0.1269444E+00
         -1   -1    0    0    0  501 -0.00000000000E+00  0.00000000000E+00  0.17168124284E+03  0.17168124284E+03  0.00000000000E+00 0.  1.
          2   -1    0    0  502    0  0.00000000000E+00 -0.00000000000E+00 -0.33941969394E+03  0.33941969394E+03  0.00000000000E+00 0. -1.
         23    2    1    2    0    0  0.19027875316E+02  0.68408386131E+02  0.10477668319E+02  0.11713960616E+03  0.92575042355E+02 0.  0.
         24    2    1    2    0    0  0.32643553871E+01 -0.58706655746E+02 -0.27726205437E+03  0.29197523178E+03  0.70129606686E+02 0.  0.
        -13    1    4    4    0    0 -0.28162476291E+02 -0.85123382191E+01 -0.60582112754E+02  0.67348180068E+02  0.00000000000E+00 0.  1.
         14    1    4    4    0    0  0.31426831678E+02 -0.50194317527E+02 -0.21667994162E+03  0.22462705171E+03  0.00000000000E+00 0. -1.
        -13    1    3    3    0    0  0.40078971622E+02  0.81581320492E+02  0.14305134225E+02  0.92013437522E+02  0.00000000000E+00 0. -1.
         13    1    3    3    0    0 -0.21051096307E+02 -0.13172934361E+02 -0.38274659063E+01  0.25126168642E+02  0.00000000000E+00 0.  1.
         21    1    1    2  502  501 -0.22292230703E+02 -0.97017303848E+01  0.99045934958E+02  0.10198609883E+03  0.00000000000E+00 0.  1.
<scales pt_clust_5="13000.00000" pt_clust_6="13000.00000" pt_clust_7="13000.00000" pt_clust_8="13000.00000" pt_clust_9="24.31187"></scales>
<clustering>
<clus scale="   24.312">  1  9  2 -1</clus>
<clus scale="   70.130">  5  6 -1 -1</clus>
<clus scale="   92.110">  2  5  1 -1</clus>
<clus scale="   92.575">  7  8 -1 -1</clus>
<clus scale="   92.110">  2  5  1 -1</clus>
</clustering>
</event>
<event>
 9    2  0.5608219E-005  0.1225392E+03  0.7546771E-02  0.1246325E+00
          2   -1    0    0  502    0  0.00000000000E+00  0.00000000000E+00  0.83415163991E+03  0.83415163991E+03  0.00000000000E+00 0. -1.
         -1   -1    0    0    0  501 -0.00000000000E+00 -0.00000000000E+00 -0.67165829265E+02  0.67165829265E+02  0.00000000000E+00 0.  1.
         23    2    1    2    0    0  0.14987654043E+02  0.26263627720E+02  0.38978760438E+02  0.10465330243E+03  0.92296056409E+02 0.  0.
         24    2    1    2    0    0 -0.71748075128E+02 -0.49937772025E+02  0.72674136355E+03  0.73515146503E+03  0.68213632565E+02 0.  0.
        -11    1    4    4    0    0 -0.28397701469E+02 -0.42042594374E+02  0.19174294662E+03  0.19834154070E+03  0.00000000000E+00 0.  1.
         12    1    4    4    0    0 -0.43350373659E+02 -0.78951776510E+01  0.53499841694E+03  0.53680992432E+03  0.00000000000E+00 0. -1.
        -11    1    3    3    0    0  0.43395444706E+02  0.12306114286E+02 -0.10128269230E+02  0.46229718880E+02  0.00000000000E+00 0.  1.
         11    1    3    3    0    0 -0.28407790663E+02  0.13957513434E+02  0.49107029668E+02  0.58423583546E+02  0.00000000000E+00 0. -1.
         21    1    1    2  502  501  0.56760421085E+02  0.23674144305E+02  0.12656866499E+01  0.61512701721E+02  0.00000000000E+00 0.  1.
<scales pt_clust_5="13000.00000" pt_clust_6="13000.00000" pt_clust_7="13000.00000" pt_clust_8="13000.00000" pt_clust_9="61.49968"></scales>
<clustering>
<clus scale="   61.500">  2  9  1 -1</clus>
<clus scale="   68.214">  5  6 -1 -1</clus>
<clus scale="   92.296">  7  8 -1 -1</clus>
<clus scale="  105.595">  1  5  2 -1</clus>
<clus scale="  105.595">  1  5  2 -1</clus>
</clustering>
</event>
<event>
 9    2  0.5608219E-005  0.9332197E+02  0.7546771E-02  0.1303416E+00
         -1   -1    0    0    0  501 -0.00000000000E+00  0.00000000000E+00  0.28760840251E+03  0.28760840251E+03  0.00000000000E+00 0.  1.
          2   -1    0    0  502    0  0.00000000000E+00 -0.00000000000E+00 -0.76716042972E+02  0.76716042972E+02  0.00000000000E+00 0. -1.
         24    2    1    2    0    0 -0.90139484850E+01  0.49531866009E+00  0.15245653347E+03  0.17097145962E+03  0.76855375863E+02 0.  0.
         23    2    1    2    0    0 -0.15107899922E+01  0.26559407656E+02 -0.30856418524E+02  0.99460316925E+02  0.90733408716E+02 0.  0.
        -13    1    3    3    0    0 -0.13695269070E+02 -0.36815228437E+02  0.87575459992E+02  0.95981157696E+02  0.00000000000E+00 0.  1.
         14    1    3    3    0    0  0.46813205846E+01  0.37310547097E+02  0.64881073480E+02  0.74990301926E+02  0.00000000000E+00 0. -1.
        -11    1    4    4    0    0 -0.25864977863E+02  0.46262034239E+02 -0.40477271076E+02  0.66690196922E+02  0.00000000000E+00 0. -1.
         11    1    4    4    0    0  0.24354187871E+02 -0.19702626583E+02  0.96208525520E+01  0.32770120002E+02  0.00000000000E+00 0.  1.
         21    1    1    2  502  501  0.10524738477E+02 -0.27054726316E+02  0.89292244594E+02  0.93892668940E+02  0.00000000000E+00 0.  1.
<scales pt_clust_5="13000.00000" pt_clust_6="13000.00000" pt_clust_7="13000.00000" pt_clust_8="13000.00000" pt_clust_9="29.02978"></scales>
<clustering>
<clus scale="   29.030">  1  9  2 -1</clus>
<clus scale="   76.855">  5  6 -1 -1</clus>
<clus scale="   79.895">  1  5  2 -1</clus>
<clus scale="   90.733">  7  8 -1 -1</clus>
<clus scale="   93.322">  2  5  1 -1</clus>
</clustering>
</event>
<event>
 9    2  0.5608219E-005  0.2531971E+03  0.7546771E-02  0.1111918E+00
         -1   -1    0    0    0  501 -0.00000000000E+00  0.00000000000E+00  0.48564698549E+02  0.48564698549E+02  0.00000000000E+00 0.  1.
          2   -1    0    0  502    0  0.00000000000E+00 -0.00000000000E+00 -0.28635049529E+04  0.28635049529E+04  0.00000000000E+00 0. -1.
         23    2    1    2    0    0  0.28713956361E+02 -0.22501872416E+03 -0.38593977547E+03  0.45700227477E+03  0.91889342957E+02 0.  0.
         24    2    1    2    0    0 -0.31604446612E+02  0.28138440574E+03 -0.21779932103E+04  0.21977930214E+04  0.80397238831E+02 0.  0.
        -11    1    4    4    0    0 -0.30993986977E+02  0.86972899490E+02 -0.48832502568E+03  0.49697710529E+03  0.00000000000E+00 0.  1.
         12    1    4    4    0    0 -0.61045963537E+00  0.19441150625E+03 -0.16896681846E+04  0.17008159161E+04  0.00000000000E+00 0. -1.
        -13    1    3    3    0    0 -0.29524896689E+02 -0.94657061514E+02 -0.12497359650E+03  0.15953080781E+03  0.00000000000E+00 0. -1.
         13    1    3    3    0    0  0.58238853051E+02 -0.13036166265E+03 -0.26096617896E+03  0.29747146696E+03  0.00000000000E+00 0.  1.
         21    1    1    2  502  501  0.28904902508E+01 -0.56365681581E+02 -0.25100726855E+03  0.25727435523E+03  0.00000000000E+00 0.  1.
<scales pt_clust_5="13000.00000" pt_clust_6="13000.00000" pt_clust_7="13000.00000" pt_clust_8="13000.00000" pt_clust_9="56.43975"></scales>
<clustering>
<clus scale="   56.440">  2  9  1 -1</clus>
<clus scale="   80.397">  5  6 -1 -1</clus>
<clus scale="   91.889">  7  8 -1 -1</clus>
<clus scale="  249.257">  2  5  1 -1</clus>
<clus scale="   56.440">  2  5  1 -1</clus>
</clustering>
</event>
<event>
 9    2  0.5608219E-005  0.9194015E+02  0.7546771E-02  0.1304545E+00
          2   -1    0    0  502    0  0.00000000000E+00  0.00000000000E+00  0.43996349175E+03  0.43996349175E+03  0.00000000000E+00 0. -1.
         -1   -1    0    0    0  501 -0.00000000000E+00 -0.00000000000E+00 -0.51465940852E+02  0.51465940852E+02  0.00000000000E+00 0.  1.
         23    2    1    2    0    0 -0.13862998880E+01  0.49955047915E+01  0.89243936887E+01  0.91457308482E+02  0.90873084995E+02 0.  0.
         24    2    1    2    0    0 -0.19748017617E+01  0.15960328914E+02  0.36519135006E+03  0.37433464477E+03  0.80641628064E+02 0.  0.
        -13    1    4    4    0    0  0.21356060307E+02  0.15795880577E+02  0.38289508271E+02  0.46601261771E+02  0.00000000000E+00 0.  1.
         14    1    4    4    0    0 -0.23330862069E+02  0.16444833774E+00  0.32690184179E+03  0.32773338300E+03  0.00000000000E+00 0. -1.
        -11    1    3    3    0    0  0.34288545269E+02  0.30467633109E+02  0.12307871704E+02  0.47491733068E+02  0.00000000000E+00 0.  1.
         11    1    3    3    0    0 -0.35674845157E+02 -0.25472128317E+02 -0.33834780153E+01  0.43965575414E+02  0.00000000000E+00 0. -1.
         21    1    1    2  502  501  0.33611016497E+01 -0.20955833706E+02  0.14381807156E+02  0.25637479355E+02  0.00000000000E+00 0. -1.
<scales pt_clust_5="13000.00000" pt_clust_6="13000.00000" pt_clust_7="13000.00000" pt_clust_8="13000.00000" pt_clust_9="21.22367"></scales>
<clustering>
<clus scale="   21.224">  2  9  1 -1</clus>
<clus scale="   80.642">  5  6 -1 -1</clus>
<clus scale="   81.842">  1  5  2 -1</clus>
<clus scale="   90.873">  7  8 -1 -1</clus>
<clus scale="   81.842">  1  5  2 -1</clus>
</clustering>
</event>
<event>
 9    2  0.5608219E-005  0.1047267E+03  0.7546771E-02  0.1274886E+00
         -1   -1    0    0    0  501 -0.00000000000E+00  0.00000000000E+00  0.28852470366E+03  0.28852470366E+03  0.00000000000E+00 0.  1.
          2   -1    0    0  502    0  0.00000000000E+00 -0.00000000000E+00 -0.44689003457E+03  0.44689003457E+03  0.00000000000E+00 0. -1.
         23    2    1    2    0    0  0.15311340366E+02 -0.14369472012E+02  0.21159384787E+03  0.23108618947E+03  0.90487300969E+02 0.  0.
         24    2    1    2    0    0  0.63327355524E+01 -0.54128031232E+02 -0.41044382751E+03  0.42187019106E+03  0.80872586556E+02 0.  0.
        -11    1    4    4    0    0  0.19126960355E+02  0.13333483882E+02 -0.53162722157E+02  0.58050817668E+02  0.00000000000E+00 0.  1.
         12    1    4    4    0    0 -0.12794224803E+02 -0.67461515114E+02 -0.35728110536E+03  0.36381937339E+03  0.00000000000E+00 0. -1.
        -13    1    3    3    0    0  0.11656806461E+02  0.36809587748E+02  0.63080613430E+02  0.73959385326E+02  0.00000000000E+00 0.  1.
         13    1    3    3    0    0  0.36545339045E+01 -0.51179059760E+02  0.14851323444E+03  0.15712680414E+03  0.00000000000E+00 0. -1.
         21    1    1    2  502  501 -0.21644075918E+02  0.68497503244E+02  0.40484648722E+02  0.82458357704E+02  0.00000000000E+00 0.  1.
<scales pt_clust_5="13000.00000" pt_clust_6="13000.00000" pt_clust_7="13000.00000" pt_clust_8="13000.00000" pt_clust_9="71.83574"></scales>
<clustering>
<clus scale="   71.836">  1  9  2 -1</clus>
<clus scale="   80.873">  5  6 -1 -1</clus>
<clus scale="   90.487">  7  8 -1 -1</clus>
<clus scale="   96.541">  2  5  1 -1</clus>
<clus scale="   96.541">  2  5  1 -1</clus>
</clustering>
</event>
<event>
 9    2  0.5608219E-005  0.1167516E+03  0.7546771E-02  0.1252111E+00
         -1   -1    0    0    0  501 -0.00000000000E+00  0.00000000000E+00  0.26734680532E+03  0.26734680532E+03  0.00000000000E+00 0.  1.
          2   -1    0    0  502    0  0.00000000000E+00 -0.00000000000E+00 -0.13176261050E+03  0.13176261050E+03  0.00000000000E+00 0. -1.
         24    2    1    2    0    0 -0.77098170092E+02 -0.27656478686E+02  0.15669608155E+03  0.19435497800E+03  0.80691925570E+02 0.  0.
         23    2    1    2    0    0  0.72125021922E+02 -0.24167508724E+01 -0.78128797870E+02  0.14010105822E+03  0.91193958054E+02 0.  0.
        -11    1    3    3    0    0 -0.65076745699E+02 -0.51147877804E+02  0.88221652421E+02  0.12097168342E+03  0.00000000000E+00 0.  1.
         12    1    3    3    0    0 -0.12021424394E+02  0.23491399118E+02  0.68474429134E+02  0.73383294572E+02  0.00000000000E+00 0. -1.
        -11    1    4    4    0    0  0.67736054163E+02 -0.25425806076E+02 -0.16552770618E+02  0.74220205223E+02  0.00000000000E+00 0.  1.
         11    1    4    4    0    0  0.43889677591E+01  0.23009055204E+02 -0.61576027252E+02  0.65880852996E+02  0.00000000000E+00 0. -1.
         21    1    1    2  502  501  0.49731481706E+01  0.30073229559E+02  0.57016911139E+02  0.64653379607E+02  0.00000000000E+00 0. -1.
<scales pt_clust_5="13000.00000" pt_clust_6="13000.00000" pt_clust_7="13000.00000" pt_clust_8="13000.00000" pt_clust_9="30.48166"></scales>
<clustering>
<clus scale="   30.482">  1  9  2 -1</clus>
<clus scale="   80.692">  5  6 -1 -1</clus>
<clus scale="   91.194">  7  8 -1 -1</clus>
<clus scale="  108.746">  1  5  2 -1</clus>
<clus scale="  116.752">  2  5  1 -1</clus>
</clustering>
</event>
<event>
 9    2  0.5608219E-005  0.1184935E+03  0.7546771E-02  0.1249203E+00
         -1   -1    0    0    0  501 -0.00000000000E+00  0.00000000000E+00  0.11738280223E+03  0.11738280223E+03  0.00000000000E+00 0.  1.
          2   -1    0    0  502    0  0.00000000000E+00 -0.00000000000E+00 -0.41163200567E+03  0.41163200567E+03  0.00000000000E+00 0. -1.
         23    2    1    2    0    0 -0.59308286359E+02  0.70185120096E+02  0.50594964601E+02  0.13880072681E+03  0.90897565456E+02 0.  0.
         24    2    1    2    0    0  0.54920379217E+02 -0.50608892912E+02 -0.35225344555E+03  0.36882764163E+03  0.79836277659E+02 0.  0.
        -11    1    4    4    0    0  0.67455097795E+02 -0.12116819623E+02 -0.23452001562E+03  0.24432896935E+03  0.00000000000E+00 0.  1.
         12    1    4    4    0    0 -0.12534718578E+02 -0.38492073288E+02 -0.11773342993E+03  0.12449867227E+03  0.00000000000E+00 0. -1.
        -13    1    3    3    0    0 -0.61828807232E+02  0.57708064097E+01  0.38926249445E+02  0.73289538859E+02  0.00000000000E+00 0.  1.
         13    1    3    3    0    0  0.25205208726E+01  0.64414313687E+02  0.11668715156E+02  0.65511187950E+02  0.00000000000E+00 0. -1.
         21    1    1    2  502  501  0.43879071418E+01 -0.19576227184E+02  0.74092775047E+01  0.21386439465E+02  0.00000000000E+00 0.  1.
<scales pt_clust_5="13000.00000" pt_clust_6="13000.00000" pt_clust_7="13000.00000" pt_clust_8="13000.00000" pt_clust_9="20.06196"></scales>
<clustering>
<clus scale="   20.062">  1  9  2 -1</clus>
<clus scale="   79.836">  5  6 -1 -1</clus>
<clus scale="   90.898">  7  8 -1 -1</clus>
<clus scale="  110.237">  2  5  1 -1</clus>
<clus scale="  110.237">  2  5  1 -1</clus>
</clustering>
</event>
<event>
 9    2  0.5608219E-005  0.1053737E+03  0.7546771E-02  0.1274739E+00
          2   -1    0    0  502    0  0.00000000000E+00  0.00000000000E+00  0.67037677973E+03  0.67037677973E+03  0.00000000000E+00 0. -1.
         -1   -1    0    0    0  501 -0.00000000000E+00 -0.00000000000E+00 -0.33195879779E+02  0.33195879779E+02  0.00000000000E+00 0.  1.
         24    2    1    2    0    0 -0.60891332116E+02 -0.15176405047E+02  0.10317552068E+03  0.14547553661E+03  0.81116373726E+02 0.  0.
         23    2    1    2    0    0  0.46667071867E+02  0.21220109952E+00  0.52560630873E+03  0.53580808153E+03  0.93007783723E+02 0.  0.
        -13    1    3    3    0    0 -0.16516734619E+01 -0.32803751037E+02  0.11279011291E+02  0.34727945563E+02  0.00000000000E+00 0.  1.
         14    1    3    3    0    0 -0.59239658655E+02  0.17627345991E+02  0.91896509388E+02  0.11074759104E+03  0.00000000000E+00 0. -1.
        -13    1    4    4    0    0  0.19239265331E+02 -0.45566341778E+02  0.29412162823E+03  0.29825152644E+03  0.00000000000E+00 0.  1.
         13    1    4    4    0    0  0.27427806536E+02  0.45778542878E+02  0.23148468050E+03  0.23755655509E+03  0.00000000000E+00 0. -1.
         21    1    1    2  502  501  0.14224260249E+02  0.14964203947E+02  0.83990705498E+01  0.22289041377E+02  0.00000000000E+00 0.  1.
<scales pt_clust_5="13000.00000" pt_clust_6="13000.00000" pt_clust_7="13000.00000" pt_clust_8="13000.00000" pt_clust_9="20.64599"></scales>
<clustering>
<clus scale="   20.646">  2  9  1 -1</clus>
<clus scale="   81.116">  5  6 -1 -1</clus>
<clus scale="   93.008">  7  8 -1 -1</clus>
<clus scale="   95.042">  2  5  1 -1</clus>
<clus scale="  105.374">  1  5  2 -1</clus>
</clustering>
</event>
<event>
 9    2  0.5608219E-005  0.9414680E+02  0.7546771E-02  0.1299120E+00
         -1   -1    0    0    0  501 -0.00000000000E+00  0.00000000000E+00  0.82353633627E+02  0.82353633627E+02  0.00000000000E+00 0.  1.
          2   -1    0    0  502    0  0.00000000000E+00 -0.00000000000E+00 -0.22062691138E+03  0.22062691138E+03  0.00000000000E+00 0. -1.
         24    2    1    2    0    0  0.11054482319E+02  0.43085316292E+01  0.77467272351E+01  0.81493090562E+02  0.80251772581E+02 0.  0.
         23    2    1    2    0    0 -0.28480680544E+02  0.99809606659E+01 -0.16590389184E+03  0.19143365384E+03  0.90619941282E+02 0.  0.
        -11    1    3    3    0    0  0.17219366850E+01  0.41200557368E+02  0.12628948454E+02  0.43127037140E+02  0.00000000000E+00 0.  1.
         12    1    3    3    0    0  0.93325456342E+01 -0.36892025739E+02 -0.48822212191E+01  0.38366053422E+02  0.00000000000E+00 0. -1.
        -13    1    4    4    0    0 -0.69414534041E+01 -0.26172631246E+02 -0.13871068752E+03  0.14132885492E+03  0.00000000000E+00 0. -1.
         13    1    4    4    0    0 -0.21539227140E+02  0.36153591912E+02 -0.27193204315E+02  0.50104798920E+02  0.00000000000E+00 0.  1.
         21    1    1    2  502  501  0.17426198225E+02 -0.14289492295E+02  0.19883886846E+02  0.30053800604E+02  0.00000000000E+00 0. -1.
<scales pt_clust_5="13000.00000" pt_clust_6="13000.00000" pt_clust_7="13000.00000" pt_clust_8="13000.00000" pt_clust_9="22.53579"></scales>
<clustering>
<clus scale="   22.536">  1  9  2 -1</clus>
<clus scale="   80.252">  5  6 -1 -1</clus>
<clus scale="   84.214">  1  5  2 -1</clus>
<clus scale="   90.620">  7  8 -1 -1</clus>
<clus scale="   94.147">  2  5  1 -1</clus>
</clustering>
</event>
<event>
 9    2  0.5608219E-005  0.1255740E+03  0.7546771E-02  0.1239877E+00
         -1   -1    0    0    0  501 -0.00000000000E+00  0.00000000000E+00  0.97067663774E+02  0.97067663774E+02  0.00000000000E+00 0.  1.
          2   -1    0    0  502    0  0.00000000000E+00 -0.00000000000E+00 -0.30138191096E+03  0.30138191096E+03  0.00000000000E+00 0. -1.
         24    2    1    2    0    0 -0.27141570613E+02  0.79406323614E+02 -0.11520742435E+01  0.11441850507E+03  0.77770418171E+02 0.  0.
         23    2    1    2    0    0 -0.31294036082E+01 -0.80430549900E+02 -0.21696176848E+03  0.25074729349E+03  0.96555319305E+02 0.  0.
        -13    1    3    3    0    0  0.11898505421E+02  0.44626505867E+02  0.28538395003E+02  0.54291246500E+02  0.00000000000E+00 0.  1.
         14    1    3    3    0    0 -0.39040076034E+02  0.34779817747E+02 -0.29690469246E+02  0.60127258572E+02  0.00000000000E+00 0. -1.
        -13    1    4    4    0    0 -0.34532238235E+02 -0.12034538253E+02 -0.24297861343E+02  0.43905485470E+02  0.00000000000E+00 0.  1.
         13    1    4    4    0    0  0.31402834626E+02 -0.68396011647E+02 -0.19266390713E+03  0.20684180802E+03  0.00000000000E+00 0. -1.
         21    1    1    2  502  501  0.30270974222E+02  0.10242262859E+01  0.13799595533E+02  0.33283776178E+02  0.00000000000E+00 0. -1.
<scales pt_clust_5="13000.00000" pt_clust_6="13000.00000" pt_clust_7="13000.00000" pt_clust_8="13000.00000" pt_clust_9="30.28830"></scales>
<clustering>
<clus scale="   30.288">  1  9  2 -1</clus>
<clus scale="   77.770">  5  6 -1 -1</clus>
<clus scale="   96.555">  7  8 -1 -1</clus>
<clus scale="  111.777">  1  5  2 -1</clus>
<clus scale="  125.574">  2  5  1 -1</clus>
</clustering>
</event>
<event>
 9    2  0.5608219E-005  0.3436835E+03  0.7546771E-02  0.1065421E+00
         -1   -1    0    0    0  501 -0.00000000000E+00  0.00000000000E+00  0.11855292213E+04  0.11855292213E+04  0.00000000000E+00 0.  1.
          2   -1    0    0  502    0  0.00000000000E+00 -0.00000000000E+00 -0.26553603244E+03  0.26553603244E+03  0.00000000000E+00 0. -1.
         23    2    1    2    0    0 -0.23867830118E+03  0.30600648434E+02  0.48343931774E+03  0.54737471215E+03  0.89452615540E+02 0.  0.
         24    2    1    2    0    0  0.34994593536E+03 -0.77900052406E+02 -0.77200312638E+02  0.37590168100E+03  0.82532476441E+02 0.  0.
        -13    1    4    4    0    0  0.10927154283E+03 -0.61705617847E+02 -0.12220042640E+02  0.12608403066E+03  0.00000000000E+00 0.  1.
         14    1    4    4    0    0  0.24067439253E+03 -0.16194434559E+02 -0.64980269998E+02  0.24981765034E+03  0.00000000000E+00 0. -1.
        -13    1    3    3    0    0 -0.93903298386E+02 -0.31021921899E+02  0.20310882595E+03  0.22590569772E+03  0.00000000000E+00 0.  1.
         13    1    3    3    0    0 -0.14477500280E+03  0.61622570334E+02  0.28033049179E+03  0.32146901443E+03  0.00000000000E+00 0. -1.
         21    1    1    2  502  501 -0.11126763418E+03  0.47299403972E+02  0.51375418375E+03  0.52778886058E+03  0.00000000000E+00 0. -1.
<scales pt_clust_5="13000.00000" pt_clust_6="13000.00000" pt_clust_7="13000.00000" pt_clust_8="13000.00000" pt_clust_9="120.90376"></scales>
<clustering>
<clus scale="   82.532">  5  6 -1 -1</clus>
<clus scale="   89.453">  7  8 -1 -1</clus>
<clus scale="  120.904">  1  9  2 -1</clus>
<clus scale="  341.948">  2  5  1 -1</clus>
<clus scale="  341.948">  2  5  1 -1</clus>
</clustering>
</event>
<event>
 9    2  0.5608219E-005  0.1489459E+03  0.7546771E-02  0.1204078E+00
          2   -1    0    0  502    0  0.00000000000E+00  0.00000000000E+00  0.27879907169E+03  0.27879907169E+03  0.00000000000E+00 0. -1.
         -1   -1    0    0    0  501 -0.00000000000E+00 -0.00000000000E+00 -0.10913129352E+03  0.10913129352E+03  0.00000000000E+00 0.  1.
         24    2    1    2    0    0 -0.96338675420E+02 -0.32017977485E+02  0.21553333245E+02  0.13073748166E+03  0.79507557326E+02 0.  0.
         23    2    1    2    0    0  0.11236607793E+03  0.59522320221E+02  0.15921559053E+03  0.22347935609E+03  0.91784400944E+02 0.  0.
        -13    1    3    3    0    0 -0.34298090106E+02  0.56097042388E+00 -0.28520757138E+02  0.44610618248E+02  0.00000000000E+00 0.  1.
         14    1    3    3    0    0 -0.62040585313E+02 -0.32578947908E+02  0.50074090382E+02  0.86126863408E+02  0.00000000000E+00 0. -1.
        -13    1    4    4    0    0  0.70382006982E+02 -0.14370695723E+02  0.72451429983E+02  0.10202623932E+03  0.00000000000E+00 0.  1.
         13    1    4    4    0    0  0.41984070946E+02  0.73893015943E+02  0.86764160547E+02  0.12145311677E+03  0.00000000000E+00 0. -1.
         21    1    1    2  502  501 -0.16027402509E+02 -0.27504342736E+02 -0.11101145596E+02  0.33713527464E+02  0.00000000000E+00 0.  1.
<scales pt_clust_5="13000.00000" pt_clust_6="13000.00000" pt_clust_7="13000.00000" pt_clust_8="13000.00000" pt_clust_9="31.83342"></scales>
<clustering>
<clus scale="   31.833">  2  9  1 -1</clus>
<clus scale="   79.508">  5  6 -1 -1</clus>
<clus scale="   91.784">  7  8 -1 -1</clus>
<clus scale="  141.711">  2  5  1 -1</clus>
<clus scale="  148.946">  1  5  2 -1</clus>
</clustering>
</event>
<event>
 9    2  0.5608219E-005  0.1223516E+03  0.7546771E-02  0.1241536E+00
          2   -1    0    0  502    0  0.00000000000E+00  0.00000000000E+00  0.35082746697E+03  0.35082746697E+03  0.00000000000E+00 0. -1.
         -1   -1    0    0    0  501 -0.00000000000E+00 -0.00000000000E+00 -0.98917658198E+02  0.98917658198E+02  0.00000000000E+00 0.  1.
         24    2    1    2    0    0  0.25485376868E+02 -0.93050900309E+02  0.93750265130E+02  0.15715843276E+03  0.81250761798E+02 0.  0.
         23    2    1    2    0    0 -0.45586936491E+02  0.64989226586E+02  0.20334100555E+03  0.23572814221E+03  0.88985527714E+02 0.  0.
        -13    1    3    3    0    0  0.50314846068E+02 -0.87119522855E+02  0.74904727070E+02  0.12542772076E+03  0.00000000000E+00 0.  1.
         14    1    3    3    0    0 -0.24829469200E+02 -0.59313774537E+01  0.18845538060E+02  0.31730711999E+02  0.00000000000E+00 0. -1.
        -13    1    4    4    0    0 -0.68959202006E+02  0.53611042042E+02  0.11997401680E+03  0.14840242612E+03  0.00000000000E+00 0.  1.
         13    1    4    4    0    0  0.23372265515E+02  0.11378184544E+02  0.83366988742E+02  0.87325716091E+02  0.00000000000E+00 0. -1.
         21    1    1    2  502  501  0.20101559623E+02  0.28061673723E+02 -0.45181461902E+02  0.56858550202E+02  0.00000000000E+00 0.  1.
<scales pt_clust_5="13000.00000" pt_clust_6="13000.00000" pt_clust_7="13000.00000" pt_clust_8="13000.00000" pt_clust_9="34.51855"></scales>
<clustering>
<clus scale="   34.519">  2  9  1 -1</clus>
<clus scale="   81.251">  5  6 -1 -1</clus>
<clus scale="   88.986">  7  8 -1 -1</clus>
<clus scale="  116.847">  2  5  1 -1</clus>
<clus scale="  122.352">  1  5  2 -1</clus>
</clustering>
</event>
<event>
 9    2  0.5608219E-005  0.9349755E+02  0.7546771E-02  0.1301291E+00
         -1   -1    0    0    0  501 -0.00000000000E+00  0.00000000000E+00  0.80915898404E+02  0.80915898404E+02  0.00000000000E+00 0.  1.
          2   -1    0    0  502    0  0.00000000000E+00 -0.00000000000E+00 -0.69743956909E+03  0.69743956909E+03  0.00000000000E+00 0. -1.
         23    2    1    2    0    0 -0.47301287695E+01  0.22099411351E+01  0.34765910087E+02  0.99720850569E+02  0.93318388199E+02 0.  0.
         24    2    1    2    0    0 -0.27882258275E+02 -0.53007952559E+02 -0.56000544118E+03  0.56919605017E+03  0.82406225563E+02 0.  0.
        -11    1    4    4    0    0 -0.39650203158E+02  0.20585971906E+01 -0.14313075192E+03  0.14853547919E+03  0.00000000000E+00 0.  1.
         12    1    4    4    0    0  0.11767944882E+02 -0.55066549750E+02 -0.41687468927E+03  0.42066057098E+03  0.00000000000E+00 0. -1.
        -13    1    3    3    0    0  0.24212980380E+02  0.13468576441E+02 -0.21756897827E+02  0.35228306421E+02  0.00000000000E+00 0.  1.
         13    1    3    3    0    0 -0.28943109149E+02 -0.11258635306E+02  0.56522807914E+02  0.64492544148E+02  0.00000000000E+00 0. -1.
         21    1    1    2  502  501  0.32612387045E+02  0.50798011424E+02 -0.91284139589E+02  0.10943856676E+03  0.00000000000E+00 0.  1.
<scales pt_clust_5="13000.00000" pt_clust_6="13000.00000" pt_clust_7="13000.00000" pt_clust_8="13000.00000" pt_clust_9="60.36560"></scales>
<clustering>
<clus scale="   60.366">  2  9  1 -1</clus>
<clus scale="   82.406">  5  6 -1 -1</clus>
<clus scale="   82.609">  2  5  1 -1</clus>
<clus scale="   93.318">  7  8 -1 -1</clus>
<clus scale="   60.366">  2  5  1 -1</clus>
</clustering>
</event>
<event>
 9    2  0.5608219E-005  0.9406870E+02  0.7546771E-02  0.1299872E+00
          2   -1    0    0  502    0  0.00000000000E+00  0.00000000000E+00  0.97337882931E+02  0.97337882931E+02  0.00000000000E+00 0. -1.
         -1   -1    0    0    0  501 -0.00000000000E+00 -0.00000000000E+00 -0.16947755289E+03  0.16947755289E+03  0.00000000000E+00 0.  1.
         24    2    1    2    0    0 -0.82982106068E+01 -0.74443370047E+01 -0.79044558010E+02  0.11379794461E+03  0.81102722480E+02 0.  0.
         23    2    1    2    0    0 -0.82753023743E+01  0.21596472739E+02  0.48032741179E+02  0.10647219519E+03  0.92164504339E+02 0.  0.
        -13    1    3    3    0    0 -0.21433928840E+01 -0.33974467522E+02 -0.79582748988E+02  0.86557914213E+02  0.00000000000E+00 0.  1.
         14    1    3    3    0    0 -0.61548177228E+01  0.26530130517E+02  0.53819097812E+00  0.27240030396E+02  0.00000000000E+00 0. -1.
        -11    1    4    4    0    0  0.20670723592E+02 -0.29447379666E+02  0.22819942939E+02  0.42604891488E+02  0.00000000000E+00 0.  1.
         11    1    4    4    0    0 -0.28946025966E+02  0.51043852405E+02  0.25212798240E+02  0.63867303706E+02  0.00000000000E+00 0. -1.
         21    1    1    2  502  501  0.16573512981E+02 -0.14152135734E+02 -0.41127853134E+02  0.46545296022E+02  0.00000000000E+00 0.  1.
<scales pt_clust_5="13000.00000" pt_clust_6="13000.00000" pt_clust_7="13000.00000" pt_clust_8="13000.00000" pt_clust_9="21.79368"></scales>
<clustering>
<clus scale="   21.794">  2  9  1 -1</clus>
<clus scale="   81.103">  5  6 -1 -1</clus>
<clus scale="   83.260">  2  5  1 -1</clus>
<clus scale="   92.165">  7  8 -1 -1</clus>
<clus scale="   94.069">  1  5  2 -1</clus>
</clustering>
</event>
<event>
 9    2  0.5608219E-005  0.1262622E+03  0.7546771E-02  0.1238679E+00
         -1   -1    0    0    0  501 -0.00000000000E+00  0.00000000000E+00  0.14954206456E+03  0.14954206456E+03  0.00000000000E+00 0.  1.
          2   -1    0    0  502    0  0.00000000000E+00 -0.00000000000E+00 -0.45182478392E+03  0.45182478392E+03  0.00000000000E+00 0. -1.
         23    2    1    2    0    0 -0.64740905488E+02  0.69392890191E+02 -0.12807870579E+02  0.13688906305E+03  0.97815213441E+02 0.  0.
         24    2    1    2    0    0  0.30770061517E+02 -0.72186307718E+02 -0.36494970483E+03  0.38166308071E+03  0.79503210081E+02 0.  0.
        -11    1    4    4    0    0  0.11326406216E+02 -0.86466247778E+02 -0.27222763047E+03  0.28585412762E+03  0.00000000000E+00 0.  1.
         12    1    4    4    0    0  0.19443655301E+02  0.14279940060E+02 -0.92722074356E+02  0.95808953091E+02  0.00000000000E+00 0. -1.
        -11    1    3    3    0    0  0.26296456532E+01  0.29496618921E+02  0.34455082721E+02  0.45432568597E+02  0.00000000000E+00 0.  1.
         11    1    3    3    0    0 -0.67370551141E+02  0.39896271270E+02 -0.47262953300E+02  0.91456494450E+02  0.00000000000E+00 0. -1.
         21    1    1    2  502  501  0.33970843972E+02  0.27934175262E+01  0.75474856049E+02  0.82814704716E+02  0.00000000000E+00 0.  1.
<scales pt_clust_5="13000.00000" pt_clust_6="13000.00000" pt_clust_7="13000.00000" pt_clust_8="13000.00000" pt_clust_9="34.08550"></scales>
<clustering>
<clus scale="   34.086">  1  9  2 -1</clus>
<clus scale="   79.503">  5  6 -1 -1</clus>
<clus scale="   97.815">  7  8 -1 -1</clus>
<clus scale="  112.672">  2  5  1 -1</clus>
<clus scale="  112.672">  2  5  1 -1</clus>
</clustering>
</event>
<event>
 9    2  0.5608219E-005  0.1247519E+03  0.7546771E-02  0.1238627E+00
          2   -1    0    0  502    0  0.00000000000E+00  0.00000000000E+00  0.15887926300E+03  0.15887926300E+03  0.00000000000E+00 0. -1.
         -1   -1    0    0    0  501 -0.00000000000E+00 -0.00000000000E+00 -0.31076512140E+03  0.31076512140E+03  0.00000000000E+00 0.  1.
         24    2    1    2    0    0  0.66802900891E+02  0.24217337776E+01 -0.14141881854E+03  0.17576658018E+03  0.80163059506E+02 0.  0.
         23    2    1    2    0    0 -0.88430877818E+02  0.24713629279E+01  0.11203224223E+03  0.16938770062E+03  0.91185755659E+02 0.  0.
        -11    1    3    3    0    0  0.72064448304E+02 -0.23829485642E+02 -0.89503718853E+02  0.11735435562E+03  0.00000000000E+00 0.  1.
         12    1    3    3    0    0 -0.52615474124E+01  0.26251219420E+02 -0.51915099691E+02  0.58412224561E+02  0.00000000000E+00 0. -1.
        -13    1    4    4    0    0 -0.49029137943E+02 -0.15764345945E+02  0.24971654776E+01  0.51561679627E+02  0.00000000000E+00 0.  1.
         13    1    4    4    0    0 -0.39401739874E+02  0.18235708873E+02  0.10953507675E+03  0.11782602099E+03  0.00000000000E+00 0. -1.
         21    1    1    2  502  501  0.21627976926E+02 -0.48930967055E+01 -0.12249928209E+03  0.12449010359E+03  0.00000000000E+00 0.  1.
<scales pt_clust_5="13000.00000" pt_clust_6="13000.00000" pt_clust_7="13000.00000" pt_clust_8="13000.00000" pt_clust_9="22.17458"></scales>
<clustering>
<clus scale="   22.175">  2  9  1 -1</clus>
<clus scale="   80.163">  5  6 -1 -1</clus>
<clus scale="   91.186">  7  8 -1 -1</clus>
<clus scale="  116.937">  2  5  1 -1</clus>
<clus scale="  124.752">  1  5  2 -1</clus>
</clustering>
</event>
<event>
 9    2  0.5608219E-005  0.2218496E+03  0.7546771E-02  0.1133689E+00
          2   -1    0    0  502    0  0.00000000000E+00  0.00000000000E+00  0.14405017239E+04  0.14405017239E+04  0.00000000000E+00 0. -1.
         -1   -1    0    0    0  501 -0.00000000000E+00 -0.00000000000E+00 -0.60951093489E+02  0.60951093489E+02  0.00000000000E+00 0.  1.
         24    2    1    2    0    0 -0.15785284699E+03 -0.15259767748E+03  0.64370697518E+03  0.68405279465E+03  0.73252873616E+02 0.  0.
         23    2    1    2    0    0  0.11960506461E+03  0.14918999456E+03  0.74786532409E+03  0.77716290456E+03  0.90092237665E+02 0.  0.
        -11    1    3    3    0    0 -0.84391198073E+02 -0.86698449325E+02  0.45848349893E+03  0.47417888420E+03  0.00000000000E+00 0.  1.
         12    1    3    3    0    0 -0.73461648916E+02 -0.65899228157E+02  0.18522347625E+03  0.20987391045E+03  0.00000000000E+00 0. -1.
        -13    1    4    4    0    0  0.40701518252E+02  0.73026647931E+02  0.17562201877E+03  0.19450603685E+03  0.00000000000E+00 0.  1.
         13    1    4    4    0    0  0.78903546360E+02  0.76163346627E+02  0.57224330533E+03  0.58265686771E+03  0.00000000000E+00 0. -1.
         21    1    1    2  502  501  0.38247782378E+02  0.34076829246E+01 -0.12021668839E+02  0.40237118205E+02  0.00000000000E+00 0. -1.
<scales pt_clust_5="13000.00000" pt_clust_6="13000.00000" pt_clust_7="13000.00000" pt_clust_8="13000.00000" pt_clust_9="38.39929"></scales>
<clustering>
<clus scale="   38.399">  2  9  1 -1</clus>
<clus scale="   73.253">  5  6 -1 -1</clus>
<clus scale="   90.092">  7  8 -1 -1</clus>
<clus scale="  215.561">  2  5  1 -1</clus>
<clus scale="  221.850">  1  5  2 -1</clus>
</clustering>
</event>
<event>
 9    2  0.5608219E-005  0.1338898E+03  0.7546771E-02  0.1238840E+00
         -1   -1    0    0    0  501 -0.00000000000E+00  0.00000000000E+00  0.99526259467E+02  0.99526259467E+02  0.00000000000E+00 0.  1.
          2   -1    0    0  502    0  0.00000000000E+00 -0.00000000000E+00 -0.28881660093E+03  0.28881660093E+03  0.00000000000E+00 0. -1.
         23    2    1    2    0    0  0.30459805187E+01  0.74157507233E+02 -0.66554240481E+02  0.13452218983E+03  0.90322415567E+02 0.  0.
         24    2    1    2    0    0 -0.18821403421E+02  0.42840606353E+02 -0.92375489704E+02  0.13192239631E+03  0.81735700709E+02 0.  0.
        -11    1    4    4    0    0 -0.26213940207E+02  0.49483091580E+02 -0.20918118852E+02  0.59777208950E+02  0.00000000000E+00 0.  1.
         12    1    4    4    0    0  0.73925367866E+01 -0.66424852263E+01 -0.71457370851E+02  0.72145187359E+02  0.00000000000E+00 0. -1.
        -11    1    3    3    0    0 -0.23859789033E+02  0.48963045406E+02  0.43175009365E+01  0.54637991933E+02  0.00000000000E+00 0.  1.
         11    1    3    3    0    0  0.26905769551E+02  0.25194461827E+02 -0.70871741417E+02  0.79884197895E+02  0.00000000000E+00 0. -1.
         21    1    1    2  502  501  0.15775422902E+02 -0.11699811359E+03 -0.30360611279E+02  0.12189827426E+03  0.00000000000E+00 0.  1.
<scales pt_clust_5="13000.00000" pt_clust_6="13000.00000" pt_clust_7="13000.00000" pt_clust_8="13000.00000" pt_clust_9="98.83495"></scales>
<clustering>
<clus scale="   81.736">  5  6 -1 -1</clus>
<clus scale="   90.322">  7  8 -1 -1</clus>
<clus scale="   94.182">  2  5  1 -1</clus>
<clus scale="   98.835">  2  9  1 -1</clus>
<clus scale="   94.182">  2  5  1 -1</clus>
</clustering>
</event>
<event>
 9    2  0.5608219E-005  0.1062713E+03  0.7546771E-02  0.1271895E+00
         -1   -1    0    0    0  501 -0.00000000000E+00  0.00000000000E+00  0.17245855962E+03  0.17245855962E+03  0.00000000000E+00 0.  1.
          2   -1    0    0  502    0  0.00000000000E+00 -0.00000000000E+00 -0.25798491175E+03  0.25798491175E+03  0.00000000000E+00 0. -1.
         24    2    1    2    0    0  0.44610145210E+02 -0.94750207762E+01  0.11542237206E+03  0.14889398875E+03  0.82263326208E+02 0.  0.
         23    2    1    2    0    0 -0.21331006245E+02  0.51333042275E+02 -0.20698627703E+03  0.23327459973E+03  0.92106606393E+02 0.  0.
        -13    1    3    3    0    0  0.18158973245E+02 -0.18067071543E+02  0.11820014838E+03  0.12094396413E+03  0.00000000000E+00 0.  1.
         14    1    3    3    0    0  0.26451171965E+02  0.85920507672E+01 -0.27777763185E+01  0.27950024615E+02  0.00000000000E+00 0. -1.
        -11    1    4    4    0    0 -0.40391819797E+02 -0.98412474609E+01 -0.10375849105E+03  0.11177733993E+03  0.00000000000E+00 0.  1.
         11    1    4    4    0    0  0.19060813552E+02  0.61174289736E+02 -0.10322778598E+03  0.12149725979E+03  0.00000000000E+00 0. -1.
         21    1    1    2  502  501 -0.23279138965E+02 -0.41858021499E+02  0.60375528349E+01  0.48274882900E+02  0.00000000000E+00 0.  1.
<scales pt_clust_5="13000.00000" pt_clust_6="13000.00000" pt_clust_7="13000.00000" pt_clust_8="13000.00000" pt_clust_9="47.89585"></scales>
<clustering>
<clus scale="   47.896">  1  9  2 -1</clus>
<clus scale="   82.263">  5  6 -1 -1</clus>
<clus scale="   92.107">  7  8 -1 -1</clus>
<clus scale="   97.863">  1  5  2 -1</clus>
<clus scale="  106.271">  2  5  1 -1</clus>
</clustering>
</event>
<event>
 9    2  0.5608219E-005  0.1002343E+03  0.7546771E-02  0.1285627E+00
         -1   -1    0    0    0  501 -0.00000000000E+00  0.00000000000E+00  0.10433345476E+03  0.10433345476E+03  0.00000000000E+00 0.  1.
          2   -1    0    0  502    0  0.00000000000E+00 -0.00000000000E+00 -0.46779982145E+03  0.46779982145E+03  0.00000000000E+00 0. -1.
         24    2    1    2    0    0 -0.14923405228E+02  0.35792947247E+02  0.65507724639E+02  0.11050397283E+03  0.80100080703E+02 0.  0.
         23    2    1    2    0    0  0.77838381337E+01 -0.73506345313E+02 -0.38802798165E+03  0.40550571021E+03  0.91680944178E+02 0.  0.
        -13    1    3    3    0    0  0.23378255038E+00  0.38786433504E+02  0.80260700922E+02  0.89141585081E+02  0.00000000000E+00 0.  1.
         14    1    3    3    0    0 -0.15157187778E+02 -0.29934862572E+01 -0.14752976283E+02  0.21362387753E+02  0.00000000000E+00 0. -1.
        -11    1    4    4    0    0 -0.30624265336E+01 -0.93414329183E+02 -0.33590689221E+03  0.34866754306E+03  0.00000000000E+00 0. -1.
         11    1    4    4    0    0  0.10846264667E+02  0.19907983871E+02 -0.52121089445E+02  0.56838167141E+02  0.00000000000E+00 0.  1.
         21    1    1    2  502  501  0.71395670939E+01  0.37713398066E+02 -0.40946109684E+02  0.56123593169E+02  0.00000000000E+00 0.  1.
<scales pt_clust_5="13000.00000" pt_clust_6="13000.00000" pt_clust_7="13000.00000" pt_clust_8="13000.00000" pt_clust_9="38.38325"></scales>
<clustering>
<clus scale="   38.383">  2  9  1 -1</clus>
<clus scale="   80.100">  5  6 -1 -1</clus>
<clus scale="   89.764">  1  5  2 -1</clus>
<clus scale="   91.681">  7  8 -1 -1</clus>
<clus scale="   38.383">  2  5  1 -1</clus>
</clustering>
</event>
<event>
 9    2  0.5608219E-005  0.9857907E+02  0.7546771E-02  0.1287696E+00
         -1   -1    0    0    0  501 -0.00000000000E+00  0.00000000000E+00  0.39029615352E+03  0.39029615352E+03  0.00000000000E+00 0.  1.
          2   -1    0    0  502    0  0.00000000000E+00 -0.00000000000E+00 -0.62180599333E+02  0.62180599333E+02  0.00000000000E+00 0. -1.
         24    2    1    2    0    0 -0.41219766683E+02 -0.22732913294E+02  0.26783050835E+03  0.28395751013E+03  0.81748589244E+02 0.  0.
         23    2    1    2    0    0  0.37832095561E+02 -0.14917456354E+02  0.20693039255E+01  0.99106713188E+02  0.90355191448E+02 0.  0.
        -11    1    3    3    0    0 -0.44407550842E+01 -0.37429745478E+02  0.50325304902E+02  0.62875611057E+02  0.00000000000E+00 0.  1.
         12    1    3    3    0    0 -0.36779011599E+02  0.14696832184E+02  0.21750520344E+03  0.22108189907E+03  0.00000000000E+00 0. -1.
        -13    1    4    4    0    0  0.63935282381E+02 -0.26092798073E+02 -0.67245390513E+01  0.69381365436E+02  0.00000000000E+00 0.  1.
         13    1    4    4    0    0 -0.26103186819E+02  0.11175341719E+02  0.87938429768E+01  0.29725347752E+02  0.00000000000E+00 0. -1.
         21    1    1    2  502  501  0.33876711218E+01  0.37650369648E+02  0.58215741917E+02  0.69412529540E+02  0.00000000000E+00 0. -1.
<scales pt_clust_5="13000.00000" pt_clust_6="13000.00000" pt_clust_7="13000.00000" pt_clust_8="13000.00000" pt_clust_9="37.80247"></scales>
<clustering>
<clus scale="   37.802">  1  9  2 -1</clus>
<clus scale="   81.749">  5  6 -1 -1</clus>
<clus scale="   90.355">  7  8 -1 -1</clus>
<clus scale="   90.756">  1  5  2 -1</clus>
<clus scale="   98.579">  2  5  1 -1</clus>
</clustering>
</event>
<event>
 9    2  0.5608219E-005  0.9807673E+02  0.7546771E-02  0.1291010E+00
          2   -1    0    0  502    0  0.00000000000E+00  0.00000000000E+00  0.10289743259E+03  0.10289743259E+03  0.00000000000E+00 0. -1.
         -1   -1    0    0    0  501 -0.00000000000E+00 -0.00000000000E+00 -0.22545806558E+03  0.22545806558E+03  0.00000000000E+00 0.  1.
         23    2    1    2    0    0 -0.27792223144E+02 -0.22188953755E+02 -0.10294352794E+03  0.14260782585E+03  0.92059028418E+02 0.  0.
         24    2    1    2    0    0  0.33873692965E+01  0.35104182962E+02  0.57099703975E+02  0.10421320830E+03  0.79726022461E+02 0.  0.
        -11    1    4    4    0    0  0.80877867770E+01  0.32462627525E+02 -0.11519368505E+02  0.35382627538E+02  0.00000000000E+00 0.  1.
         12    1    4    4    0    0 -0.47004174805E+01  0.26415554376E+01  0.68619072481E+02  0.68830580760E+02  0.00000000000E+00 0. -1.
        -13    1    3    3    0    0  0.28767459180E+02 -0.23187464617E+02 -0.64101003625E+02  0.73987592803E+02  0.00000000000E+00 0. -1.
         13    1    3    3    0    0 -0.56559682324E+02  0.99851086207E+00 -0.38842524317E+02  0.68620233050E+02  0.00000000000E+00 0.  1.
         21    1    1    2  502  501  0.24404853847E+02 -0.12915229207E+02 -0.76716809021E+02  0.81534464021E+02  0.00000000000E+00 0.  1.
<scales pt_clust_5="13000.00000" pt_clust_6="13000.00000" pt_clust_7="13000.00000" pt_clust_8="13000.00000" pt_clust_9="27.61159"></scales>
<clustering>
<clus scale="   27.612">  2  9  1 -1</clus>
<clus scale="   79.726">  5  6 -1 -1</clus>
<clus scale="   86.605">  1  5  2 -1</clus>
<clus scale="   92.059">  7  8 -1 -1</clus>
<clus scale="   86.605">  1  5  2 -1</clus>
</clustering>
</event>
<event>
 9    2  0.5608219E-005  0.1097434E+03  0.7546771E-02  0.1266139E+00
         -1   -1    0    0    0  501 -0.00000000000E+00  0.00000000000E+00  0.80292725368E+03  0.80292725368E+03  0.00000000000E+00 0.  1.
          2   -1    0    0  502    0  0.00000000000E+00 -0.00000000000E+00 -0.44103670439E+02  0.44103670439E+02  0.00000000000E+00 0. -1.
         24    2    1    2    0    0  0.18390522362E+02  0.69944864437E+02  0.63340203448E+03  0.64271644296E+03  0.81583045982E+02 0.  0.
         23    2    1    2    0    0  0.13856618837E+02 -0.53920408914E+02  0.48743613550E+02  0.11960222090E+03  0.93964541180E+02 0.  0.
        -11    1    3    3    0    0  0.25843348168E+02  0.81708993856E+02  0.40895595699E+03  0.41783874052E+03  0.00000000000E+00 0.  1.
         12    1    3    3    0    0 -0.74528258058E+01 -0.11764129419E+02  0.22444607749E+03  0.22487770243E+03  0.00000000000E+00 0. -1.
        -13    1    4    4    0    0  0.43618805822E+02 -0.39842245078E+02 -0.20037797054E+01  0.59110234708E+02  0.00000000000E+00 0. -1.
         13    1    4    4    0    0 -0.29762186985E+02 -0.14078163836E+02  0.50747393256E+02  0.60491986191E+02  0.00000000000E+00 0.  1.
         21    1    1    2  502  501 -0.32247141199E+02 -0.16024455523E+02  0.76677935213E+02  0.84712260263E+02  0.00000000000E+00 0.  1.
<scales pt_clust_5="13000.00000" pt_clust_6="13000.00000" pt_clust_7="13000.00000" pt_clust_8="13000.00000" pt_clust_9="36.00918"></scales>
<clustering>
<clus scale="   36.009">  1  9  2 -1</clus>
<clus scale="   81.583">  5  6 -1 -1</clus>
<clus scale="   93.965">  7  8 -1 -1</clus>
<clus scale="   99.348">  1  5  2 -1</clus>
<clus scale="  109.743">  2  5  1 -1</clus>
</clustering>
</event>
<event>
 9    2  0.5608219E-005  0.1238345E+03  0.7546771E-02  0.1242625E+00
          2   -1    0    0  502    0  0.00000000000E+00  0.00000000000E+00  0.54538160978E+03  0.54538160978E+03  0.00000000000E+00 0. -1.
         -1   -1    0    0    0  501 -0.00000000000E+00 -0.00000000000E+00 -0.54430016559E+03  0.54430016559E+03  0.00000000000E+00 0.  1.
         23    2    1    2    0    0 -0.93883133435E+02  0.28632083313E+02 -0.31258773638E+03  0.34203003342E+03  0.98181525172E+02 0.  0.
         24    2    1    2    0    0  0.75119038928E+02 -0.15354966473E+01  0.52365932205E+03  0.53509074890E+03  0.80360414537E+02 0.  0.
        -13    1    4    4    0    0  0.19834187048E+02 -0.14183444830E+02  0.32305701602E+02  0.40474972997E+02  0.00000000000E+00 0.  1.
         14    1    4    4    0    0  0.55284851879E+02  0.12647948183E+02  0.49135362045E+03  0.49461577590E+03  0.00000000000E+00 0. -1.
        -13    1    3    3    0    0 -0.49613578259E+02  0.25286226976E+02 -0.28358440841E+03  0.28900002961E+03  0.00000000000E+00 0.  1.
         13    1    3    3    0    0 -0.44269555175E+02  0.33458563375E+01 -0.29003327968E+02  0.53030003802E+02  0.00000000000E+00 0. -1.
         21    1    1    2  502  501  0.18764094507E+02 -0.27096586666E+02 -0.20999014147E+03  0.21256099305E+03  0.00000000000E+00 0.  1.
<scales pt_clust_5="13000.00000" pt_clust_6="13000.00000" pt_clust_7="13000.00000" pt_clust_8="13000.00000" pt_clust_9="32.95931"></scales>
<clustering>
<clus scale="   32.959">  2  9  1 -1</clus>
<clus scale="   80.360">  5  6 -1 -1</clus>
<clus scale="   98.182">  7  8 -1 -1</clus>
<clus scale="  110.241">  1  5  2 -1</clus>
<clus scale="  110.241">  1  5  2 -1</clus>
</clustering>
</event>
<event>
 9    2  0.5608219E-005  0.1573368E+03  0.7546771E-02  0.1193864E+00
         -1   -1    0    0    0  501 -0.00000000000E+00  0.00000000000E+00  0.62464902290E+02  0.62464902290E+02  0.00000000000E+00 0.  1.
          2   -1    0    0  502    0  0.00000000000E+00 -0.00000000000E+00 -0.13598328113E+04  0.13598328113E+04  0.00000000000E+00 0. -1.
         23    2    1    2    0    0  0.23055364069E+03  0.41270052053E+02 -0.35769286444E+03  0.43742063768E+03  0.92381981845E+02 0.  0.
         24    2    1    2    0    0 -0.10483131610E+03 -0.34440584427E+02 -0.71042284014E+03  0.72332532623E+03  0.79518281412E+02 0.  0.
        -11    1    4    4    0    0 -0.17950355638E+02 -0.38656683702E+02 -0.14111950324E+03  0.14741529316E+03  0.00000000000E+00 0.  1.
         12    1    4    4    0    0 -0.86880960467E+02  0.42160992747E+01 -0.56930333690E+03  0.57591003307E+03  0.00000000000E+00 0. -1.
        -11    1    3    3    0    0  0.89433915291E+02 -0.12514992638E+02 -0.19802866124E+03  0.21764742341E+03  0.00000000000E+00 0. -1.
         11    1    3    3    0    0  0.14111972540E+03  0.53785044691E+02 -0.15966420320E+03  0.21977321427E+03  0.00000000000E+00 0.  1.
         21    1    1    2  502  501 -0.12572232458E+03 -0.68294676254E+01 -0.22925220447E+03  0.26155174972E+03  0.00000000000E+00 0.  1.
<scales pt_clust_5="13000.00000" pt_clust_6="13000.00000" pt_clust_7="13000.00000" pt_clust_8="13000.00000" pt_clust_9="125.90768"></scales>
<clustering>
<clus scale="   79.518">  5  6 -1 -1</clus>
<clus scale="   92.382">  7  8 -1 -1</clus>
<clus scale="  125.908">  1  9  2 -1</clus>
<clus scale="  150.145">  2  5  1 -1</clus>
<clus scale="  150.145">  2  5  1 -1</clus>
</clustering>
</event>
<event>
 9    2  0.5608219E-005  0.1115391E+03  0.7546771E-02  0.1262093E+00
         -1   -1    0    0    0  501 -0.00000000000E+00  0.00000000000E+00  0.46950287372E+02  0.46950287372E+02  0.00000000000E+00 0.  1.
          2   -1    0    0  502    0  0.00000000000E+00 -0.00000000000E+00 -0.61084634372E+03  0.61084634372E+03  0.00000000000E+00 0. -1.
         23    2    1    2    0    0  0.79546866244E+02 -0.54382733184E+00 -0.14674172448E+03  0.19002576631E+03  0.90822125500E+02 0.  0.
         24    2    1    2    0    0 -0.22336961528E+02  0.78912785329E+02 -0.20928701283E+03  0.23837276300E+03  0.79336957749E+02 0.  0.
        -11    1    4    4    0    0 -0.43661926212E+02  0.29907866134E+02 -0.14734802438E+03  0.15656399505E+03  0.00000000000E+00 0.  1.
         12    1    4    4    0    0  0.21324964684E+02  0.49004919195E+02 -0.61938988446E+02  0.81808767952E+02  0.00000000000E+00 0. -1.
        -11    1    3    3    0    0  0.36625432611E+02  0.19453341141E+02 -0.64640883656E+01  0.41971886232E+02  0.00000000000E+00 0.  1.
         11    1    3    3    0    0  0.42921433633E+02 -0.19997168473E+02 -0.14027763611E+03  0.14805388007E+03  0.00000000000E+00 0. -1.
         21    1    1    2  502  501 -0.57209904716E+02 -0.78368957997E+02 -0.20786731904E+03  0.22939810178E+03  0.00000000000E+00 0.  1.
<scales pt_clust_5="13000.00000" pt_clust_6="13000.00000" pt_clust_7="13000.00000" pt_clust_8="13000.00000" pt_clust_9="97.02921"></scales>
<clustering>
<clus scale="   79.337">  5  6 -1 -1</clus>
<clus scale="   90.822">  7  8 -1 -1</clus>
<clus scale="   97.029">  2  9  1 -1</clus>
<clus scale="  102.404">  2  5  1 -1</clus>
<clus scale="   97.029">  2  5  1 -1</clus>
</clustering>
</event>
<event>
 9    2  0.5608219E-005  0.1008995E+03  0.7546771E-02  0.1283695E+00
         -1   -1    0    0    0  501 -0.00000000000E+00  0.00000000000E+00  0.59386388652E+03  0.59386388652E+03  0.00000000000E+00 0.  1.
          2   -1    0    0  502    0  0.00000000000E+00 -0.00000000000E+00 -0.64782759128E+02  0.64782759128E+02  0.00000000000E+00 0. -1.
         23    2    1    2    0    0 -0.65150681917E+02  0.20334417490E+02  0.39033915330E+03  0.40663227093E+03  0.91252667215E+02 0.  0.
         24    2    1    2    0    0 -0.22164337239E+02 -0.38946046147E+02  0.13400788157E+03  0.16261237852E+03  0.80477456272E+02 0.  0.
        -11    1    4    4    0    0 -0.26210410680E+02  0.53452449074E+01  0.64406989485E+01  0.27514357599E+02  0.00000000000E+00 0.  1.
         12    1    4    4    0    0  0.40460734414E+01 -0.44291291054E+02  0.12756718263E+03  0.13509802092E+03  0.00000000000E+00 0. -1.
        -13    1    3    3    0    0  0.16878600486E+02  0.19872652812E+02  0.48235689722E+02  0.54831480439E+02  0.00000000000E+00 0. -1.
         13    1    3    3    0    0 -0.82029282403E+02  0.46176467800E+00  0.34210346358E+03  0.35180079049E+03  0.00000000000E+00 0.  1.
         21    1    1    2  502  501  0.87315019155E+02  0.18611628656E+02  0.47340925129E+01  0.89401996193E+02  0.00000000000E+00 0. -1.
<scales pt_clust_5="13000.00000" pt_clust_6="13000.00000" pt_clust_7="13000.00000" pt_clust_8="13000.00000" pt_clust_9="89.27657"></scales>
<clustering>
<clus scale="   80.477">  5  6 -1 -1</clus>
<clus scale="   89.277">  2  9  1 -1</clus>
<clus scale="   91.253">  7  8 -1 -1</clus>
<clus scale="   91.270">  2  5  1 -1</clus>
<clus scale="   89.277">  2  5  1 -1</clus>
</clustering>
</event>
<event>
 9    2  0.5608219E-005  0.3204105E+03  0.7546771E-02  0.1075830E+00
          2   -1    0    0  502    0  0.00000000000E+00  0.00000000000E+00  0.19221438836E+04  0.19221438836E+04  0.00000000000E+00 0. -1.
         -1   -1    0    0    0  501 -0.00000000000E+00 -0.00000000000E+00 -0.17222782576E+03  0.17222782576E+03  0.00000000000E+00 0.  1.
         24    2    1    2    0    0 -0.99438357265E+02 -0.19411972572E+03  0.10902055060E+02  0.23314413628E+03  0.81650956324E+02 0.  0.
         23    2    1    2    0    0  0.16844099920E+03  0.27121053897E+03  0.17250540251E+04  0.17568281523E+04  0.93307237978E+02 0.  0.
        -11    1    3    3    0    0 -0.69706725536E+02 -0.18758667991E+03  0.20646263739E+02  0.20118165491E+03  0.00000000000E+00 0.  1.
         12    1    3    3    0    0 -0.29731631729E+02 -0.65330458094E+01 -0.97442086784E+01  0.31962481374E+02  0.00000000000E+00 0. -1.
        -11    1    4    4    0    0  0.23131903162E+02  0.10952807549E+03  0.47495347263E+03  0.48796750448E+03  0.00000000000E+00 0.  1.
         11    1    4    4    0    0  0.14530909603E+03  0.16168246348E+03  0.12501005524E+04  0.12688606478E+04  0.00000000000E+00 0. -1.
         21    1    1    2  502  501 -0.69002641930E+02 -0.77090813247E+02  0.13959977719E+02  0.10439942078E+03  0.00000000000E+00 0.  1.
<scales pt_clust_5="13000.00000" pt_clust_6="13000.00000" pt_clust_7="13000.00000" pt_clust_8="13000.00000" pt_clust_9="103.46187"></scales>
<clustering>
<clus scale="   81.651">  5  6 -1 -1</clus>
<clus scale="   93.307">  7  8 -1 -1</clus>
<clus scale="  103.462">  2  9  1 -1</clus>
<clus scale="  317.212">  2  5  1 -1</clus>
<clus scale="  320.411">  1  5  2 -1</clus>
</clustering>
</event>
<event>
 9    2  0.5608219E-005  0.1036661E+03  0.7546771E-02  0.1280645E+00
         -1   -1    0    0    0  501 -0.00000000000E+00  0.00000000000E+00  0.10234169007E+03  0.10234169007E+03  0.00000000000E+00 0.  1.
          2   -1    0    0  502    0  0.00000000000E+00 -0.00000000000E+00 -0.30269390658E+03  0.30269390658E+03  0.00000000000E+00 0. -1.
         23    2    1    2    0    0  0.42027950992E+02 -0.31363238272E+02 -0.34361504455E+02  0.11107057872E+03  0.91684017629E+02 0.  0.
         24    2    1    2    0    0 -0.47068039727E+02  0.10754434979E+02 -0.21923236462E+03  0.23665185335E+03  0.74901346848E+02 0.  0.
        -13    1    4    4    0    0 -0.28975855119E+02  0.16863058189E+02 -0.25863621594E+02  0.42342529841E+02  0.00000000000E+00 0.  1.
         14    1    4    4    0    0 -0.18092184608E+02 -0.61086232095E+01 -0.19336874303E+03  0.19430932351E+03  0.00000000000E+00 0. -1.
        -13    1    3    3    0    0  0.70113097016E+02 -0.11200335598E+02 -0.24647688237E+02  0.75158515327E+02  0.00000000000E+00 0.  1.
         13    1    3    3    0    0 -0.28085146024E+02 -0.20162902674E+02 -0.97138162177E+01  0.35912063390E+02  0.00000000000E+00 0. -1.
         21    1    1    2  502  501  0.50400887343E+01  0.20608803293E+02  0.53241652564E+02  0.57313164591E+02  0.00000000000E+00 0. -1.
<scales pt_clust_5="13000.00000" pt_clust_6="13000.00000" pt_clust_7="13000.00000" pt_clust_8="13000.00000" pt_clust_9="21.21616"></scales>
<clustering>
<clus scale="   21.216">  1  9  2 -1</clus>
<clus scale="   74.901">  5  6 -1 -1</clus>
<clus scale="   89.168">  2  5  1 -1</clus>
<clus scale="   91.684">  7  8 -1 -1</clus>
<clus scale="   89.168">  2  5  1 -1</clus>
</clustering>
</event>
<event>
 9    2  0.5608219E-005  0.1103565E+03  0.7546771E-02  0.1263346E+00
          2   -1    0    0  502    0  0.00000000000E+00  0.00000000000E+00  0.15688571046E+03  0.15688571046E+03  0.00000000000E+00 0. -1.
         -1   -1    0    0    0  501 -0.00000000000E+00 -0.00000000000E+00 -0.28325041126E+03  0.28325041126E+03  0.00000000000E+00 0.  1.
         24    2    1    2    0    0 -0.11775057992E+02 -0.62823936585E+02 -0.23813995879E+03  0.25968640287E+03  0.81491649032E+02 0.  0.
         23    2    1    2    0    0  0.39452301252E+02  0.49126093948E+02  0.93796033749E+02  0.14471579671E+03  0.90416307650E+02 0.  0.
        -11    1    3    3    0    0 -0.24380805296E+02 -0.78785891986E+02 -0.17744441717E+03  0.19567360994E+03  0.00000000000E+00 0.  1.
         12    1    3    3    0    0  0.12605747304E+02  0.15961955401E+02 -0.60695541622E+02  0.64012792926E+02  0.00000000000E+00 0. -1.
        -13    1    4    4    0    0  0.58410965959E+02  0.86231165219E+01  0.28471841634E+02  0.65550323026E+02  0.00000000000E+00 0.  1.
         13    1    4    4    0    0 -0.18958664706E+02  0.40502977427E+02  0.65324192114E+02  0.79165473682E+02  0.00000000000E+00 0. -1.
         21    1    1    2  502  501 -0.27677243260E+02  0.13697842637E+02  0.17979224249E+02  0.35733922147E+02  0.00000000000E+00 0. -1.
<scales pt_clust_5="13000.00000" pt_clust_6="13000.00000" pt_clust_7="13000.00000" pt_clust_8="13000.00000" pt_clust_9="30.88140"></scales>
<clustering>
<clus scale="   30.881">  1  9  2 -1</clus>
<clus scale="   81.492">  5  6 -1 -1</clus>
<clus scale="   90.416">  7  8 -1 -1</clus>
<clus scale="  103.171">  2  5  1 -1</clus>
<clus scale="   30.881">  1  5  2 -1</clus>
</clustering>
</event>
<event>
 9    2  0.5608219E-005  0.7336698E+03  0.7546771E-02  0.1025051E+00
         -1   -1    0    0    0  501 -0.00000000000E+00  0.00000000000E+00  0.68735867847E+03  0.68735867847E+03  0.00000000000E+00 0.  1.
          2   -1    0    0  502    0  0.00000000000E+00 -0.00000000000E+00 -0.21759210727E+04  0.21759210727E+04  0.00000000000E+00 0. -1.
         23    2    1    2    0    0 -0.40935906829E+02  0.49448679177E+02 -0.24782962102E+02  0.11516203366E+03  0.92342722750E+02 0.  0.
         24    2    1    2    0    0 -0.70537590150E+03 -0.17256538980E+03 -0.17832034827E+04  0.19270386934E+04  0.79558084548E+02 0.  0.
        -13    1    4    4    0    0 -0.74149904774E+02  0.61818517373E+01 -0.17375433240E+03  0.18901585039E+03  0.00000000000E+00 0.  1.
         14    1    4    4    0    0 -0.63122599672E+03 -0.17874724154E+03 -0.16094491503E+04  0.17380228430E+04  0.00000000000E+00 0. -1.
        -11    1    3    3    0    0 -0.24854593151E+01  0.65150589532E+02 -0.32609218751E+02  0.72898134214E+02  0.00000000000E+00 0.  1.
         11    1    3    3    0    0 -0.38450447514E+02 -0.15701910355E+02  0.78262566486E+01  0.42263899441E+02  0.00000000000E+00 0. -1.
         21    1    1    2  502  501  0.74631180833E+03  0.12311671063E+03  0.31942405064E+03  0.82107902409E+03  0.00000000000E+00 0.  1.
<scales pt_clust_5="13000.00000" pt_clust_6="13000.00000" pt_clust_7="13000.00000" pt_clust_8="13000.00000" pt_clust_9="729.34350"></scales>
<clustering>
<clus scale="   79.558">  5  6 -1 -1</clus>
<clus scale="   92.343">  7  8 -1 -1</clus>
<clus scale="  112.464">  1  7  2 -1</clus>
<clus scale="  729.344">  1  9  2 -1</clus>
<clus scale="  733.670">  2  5  1 -1</clus>
</clustering>
</event>
<event>
 9    2  0.5608219E-005  0.1530176E+03  0.7546771E-02  0.1200256E+00
         -1   -1    0    0    0  501 -0.00000000000E+00  0.00000000000E+00  0.50094288436E+02  0.50094288436E+02  0.00000000000E+00 0.  1.
          2   -1    0    0  502    0  0.00000000000E+00 -0.00000000000E+00 -0.92776267936E+03  0.92776267936E+03  0.00000000000E+00 0. -1.
         24    2    1    2    0    0  0.54933257504E+02 -0.12273287539E+03 -0.38016218295E+03  0.41140925115E+03  0.81567549342E+02 0.  0.
         23    2    1    2    0    0  0.16161532496E+02  0.10975804210E+03 -0.46292040896E+03  0.48632909860E+03  0.99562363260E+02 0.  0.
        -11    1    3    3    0    0  0.32299788471E+02 -0.52125280629E+02 -0.72582076246E+02  0.95018308805E+02  0.00000000000E+00 0.  1.
         12    1    3    3    0    0  0.22633469032E+02 -0.70607594756E+02 -0.30758010670E+03  0.31639094234E+03  0.00000000000E+00 0. -1.
        -13    1    4    4    0    0 -0.31008507050E+02  0.48047835602E+02 -0.10005673711E+03  0.11524527173E+03  0.00000000000E+00 0.  1.
         13    1    4    4    0    0  0.47170039546E+02  0.61710206498E+02 -0.36286367185E+03  0.37108382687E+03  0.00000000000E+00 0. -1.
         21    1    1    2  502  501 -0.71094790000E+02  0.12974833285E+02 -0.34585799016E+02  0.80118618045E+02  0.00000000000E+00 0.  1.
<scales pt_clust_5="13000.00000" pt_clust_6="13000.00000" pt_clust_7="13000.00000" pt_clust_8="13000.00000" pt_clust_9="72.26905"></scales>
<clustering>
<clus scale="   72.269">  1  9  2 -1</clus>
<clus scale="   81.568">  5  6 -1 -1</clus>
<clus scale="   99.562">  7  8 -1 -1</clus>
<clus scale="  141.968">  1  5  2 -1</clus>
<clus scale="  153.018">  2  5  1 -1</clus>
</clustering>
</event>
<event>
 9    2  0.5608219E-005  0.3067405E+03  0.7546771E-02  0.1111117E+00
         -1   -1    0    0    0  501 -0.00000000000E+00  0.00000000000E+00  0.13928039148E+03  0.13928039148E+03  0.00000000000E+00 0.  1.
          2   -1    0    0  502    0  0.00000000000E+00 -0.00000000000E+00 -0.25472683084E+04  0.25472683084E+04  0.00000000000E+00 0. -1.
         23    2    1    2    0    0 -0.94416053921E+02 -0.56373367349E+02  0.46927403296E+02  0.15057124647E+03  0.91526888393E+02 0.  0.
         24    2    1    2    0    0 -0.20901492908E+03 -0.85146811650E+02 -0.52333937445E+03  0.57559892957E+03  0.80577954503E+02 0.  0.
        -11    1    4    4    0    0 -0.20702087527E+03 -0.62664142094E+02 -0.45887689977E+03  0.50729916878E+03  0.00000000000E+00 0.  1.
         12    1    4    4    0    0 -0.19940538052E+01 -0.22482669556E+02 -0.64462474681E+02  0.68299760783E+02  0.00000000000E+00 0. -1.
        -11    1    3    3    0    0 -0.99501097672E+02 -0.17644768940E+02  0.19696206958E+02  0.10295507213E+03  0.00000000000E+00 0.  1.
         11    1    3    3    0    0  0.50850437506E+01 -0.38728598409E+02  0.27231196338E+02  0.47616174339E+02  0.00000000000E+00 0. -1.
         21    1    1    2  502  501  0.30343098300E+03  0.14152017900E+03 -0.19315759457E+04  0.19603785238E+04  0.00000000000E+00 0. -1.
<scales pt_clust_5="13000.00000" pt_clust_6="13000.00000" pt_clust_7="13000.00000" pt_clust_8="13000.00000" pt_clust_9="295.96778"></scales>
<clustering>
<clus scale="   80.578">  5  6 -1 -1</clus>
<clus scale="   91.527">  7  8 -1 -1</clus>
<clus scale="  143.072">  1  7  2 -1</clus>
<clus scale="  295.968">  2  9  1 -1</clus>
<clus scale="  295.968">  2  5  1 -1</clus>
</clustering>
</event>
<event>
 9    2  0.5608219E-005  0.9378234E+02  0.7546771E-02  0.1297583E+00
         -1   -1    0    0    0  501 -0.00000000000E+00  0.00000000000E+00  0.49744337091E+02  0.49744337091E+02  0.00000000000E+00 0.  1.
          2   -1    0    0  502    0  0.00000000000E+00 -0.00000000000E+00 -0.34345500906E+03  0.34345500906E+03  0.00000000000E+00 0. -1.
         24    2    1    2    0    0 -0.18381187997E+02  0.16672515146E+02 -0.13645906133E+02  0.87813724345E+02  0.83121589227E+02 0.  0.
         23    2    1    2    0    0  0.39504489739E+02 -0.16497570554E+02 -0.21141116963E+03  0.23355567851E+03  0.89558906734E+02 0.  0.
        -11    1    3    3    0    0  0.92570061923E+01  0.27278905674E+02  0.25679644255E+02  0.38591125761E+02  0.00000000000E+00 0.  1.
         12    1    3    3    0    0 -0.27638194189E+02 -0.10606390528E+02 -0.39325550388E+02  0.49222598584E+02  0.00000000000E+00 0. -1.
        -13    1    4    4    0    0  0.57308072995E+02 -0.36539299398E+00 -0.71676929050E+02  0.91771078780E+02  0.00000000000E+00 0.  1.
         13    1    4    4    0    0 -0.17803583256E+02 -0.16132177560E+02 -0.13973424058E+03  0.14178459973E+03  0.00000000000E+00 0. -1.
         21    1    1    2  502  501 -0.21123301742E+02 -0.17494459168E+00 -0.68653596207E+02  0.71829943299E+02  0.00000000000E+00 0. -1.
<scales pt_clust_5="13000.00000" pt_clust_6="13000.00000" pt_clust_7="13000.00000" pt_clust_8="13000.00000" pt_clust_9="21.12403"></scales>
<clustering>
<clus scale="   21.124">  2  9  1 -1</clus>
<clus scale="   83.122">  5  6 -1 -1</clus>
<clus scale="   87.656">  1  5  2 -1</clus>
<clus scale="   89.559">  7  8 -1 -1</clus>
<clus scale="   21.124">  2  5  1 -1</clus>
</clustering>
</event>
<event>
 9    2  0.5608219E-005  0.1026021E+03  0.7546771E-02  0.1283409E+00
          2   -1    0    0  502    0  0.00000000000E+00  0.00000000000E+00  0.70791539086E+03  0.70791539086E+03  0.00000000000E+00 0. -1.
         -1   -1    0    0    0  501 -0.00000000000E+00 -0.00000000000E+00 -0.52578008279E+02  0.52578008279E+02  0.00000000000E+00 0.  1.
         23    2    1    2    0    0  0.37624902450E+02 -0.10464609278E+02  0.10703411454E+02  0.10390098811E+03  0.95685479473E+02 0.  0.
         24    2    1    2    0    0 -0.11545153364E+02  0.17899819315E+02  0.58944785743E+03  0.59510303954E+03  0.79026305407E+02 0.  0.
        -13    1    4    4    0    0 -0.18157821606E+02  0.98286584301E+01  0.35580016557E+02  0.41136924899E+02  0.00000000000E+00 0.  1.
         14    1    4    4    0    0  0.66126682418E+01  0.80711608851E+01  0.55386784087E+03  0.55396611464E+03  0.00000000000E+00 0. -1.
        -11    1    3    3    0    0  0.31596011321E+02 -0.49218538017E+02 -0.10336556734E+02  0.59393743956E+02  0.00000000000E+00 0.  1.
         11    1    3    3    0    0  0.60288911284E+01  0.38753928739E+02  0.21039968188E+02  0.44507244155E+02  0.00000000000E+00 0. -1.
         21    1    1    2  502  501 -0.26079749086E+02 -0.74352100370E+01  0.55186113707E+02  0.61489371494E+02  0.00000000000E+00 0.  1.
<scales pt_clust_5="13000.00000" pt_clust_6="13000.00000" pt_clust_7="13000.00000" pt_clust_8="13000.00000" pt_clust_9="27.11892"></scales>
<clustering>
<clus scale="   27.119">  1  9  2 -1</clus>
<clus scale="   79.026">  5  6 -1 -1</clus>
<clus scale="   87.273">  1  5  2 -1</clus>
<clus scale="   95.685">  7  8 -1 -1</clus>
<clus scale="   27.119">  1  5  2 -1</clus>
</clustering>
</event>
<event>
 9    2  0.5608219E-005  0.9014036E+02  0.7546771E-02  0.1302515E+00
         -1   -1    0    0    0  501 -0.00000000000E+00  0.00000000000E+00  0.76307869443E+02  0.76307869443E+02  0.00000000000E+00 0.  1.
          2   -1    0    0  502    0  0.00000000000E+00 -0.00000000000E+00 -0.49329689183E+03  0.49329689183E+03  0.00000000000E+00 0. -1.
         23    2    1    2    0    0 -0.25447779300E+02  0.10009933236E+02  0.32758162512E+02  0.93653878268E+02  0.83367640417E+02 0.  0.
         24    2    1    2    0    0  0.26126238141E+02  0.24698519335E+02 -0.42157966606E+03  0.43124578146E+03  0.83372129748E+02 0.  0.
        -13    1    4    4    0    0 -0.26579661937E+01  0.49372378487E+02 -0.17825267335E+03  0.18498300489E+03  0.00000000000E+00 0.  1.
         14    1    4    4    0    0  0.28784204335E+02 -0.24673859152E+02 -0.24332699271E+03  0.24626277657E+03  0.00000000000E+00 0. -1.
        -11    1    3    3    0    0  0.29385130963E+02  0.10174333615E+02  0.29342428535E+01  0.31234800581E+02  0.00000000000E+00 0. -1.
         11    1    3    3    0    0 -0.54832910263E+02 -0.16440037887E+00  0.29823919658E+02  0.62419077686E+02  0.00000000000E+00 0.  1.
         21    1    1    2  502  501 -0.67845884153E+00 -0.34708452571E+02 -0.28167518837E+02  0.44705101540E+02  0.00000000000E+00 0.  1.
<scales pt_clust_5="13000.00000" pt_clust_6="13000.00000" pt_clust_7="13000.00000" pt_clust_8="13000.00000" pt_clust_9="34.71508"></scales>
<clustering>
<clus scale="   34.715">  1  9  2 -1</clus>
<clus scale="   83.368">  7  8 -1 -1</clus>
<clus scale="   83.372">  5  6 -1 -1</clus>
<clus scale="   90.136">  1  7  2 -1</clus>
<clus scale="   90.140">  2  5  1 -1</clus>
</clustering>
</event>
<event>
 9    2  0.5608219E-005  0.1139782E+03  0.7546771E-02  0.1253674E+00
          2   -1    0    0  502    0  0.00000000000E+00  0.00000000000E+00  0.62850255093E+02  0.62850255093E+02  0.00000000000E+00 0. -1.
         -1   -1    0    0    0  501 -0.00000000000E+00 -0.00000000000E+00 -0.65846362360E+03  0.65846362360E+03  0.00000000000E+00 0.  1.
         24    2    1    2    0    0  0.47230347150E+02 -0.34528028098E+02 -0.49810975378E+03  0.50952438056E+03  0.89882574288E+02 0.  0.
         23    2    1    2    0    0 -0.65772244051E+02  0.25186978400E+02 -0.28577915974E+01  0.11489321860E+03  0.90729888902E+02 0.  0.
        -13    1    3    3    0    0  0.42373869233E+02 -0.64034468866E+02 -0.33402342530E+03  0.34273547620E+03  0.00000000000E+00 0.  1.
         14    1    3    3    0    0  0.48564779165E+01  0.29506440767E+02 -0.16408632848E+03  0.16678890436E+03  0.00000000000E+00 0. -1.
        -11    1    4    4    0    0 -0.51253787290E+02  0.47248692229E+02 -0.31006909057E+02  0.76294285750E+02  0.00000000000E+00 0. -1.
         11    1    4    4    0    0 -0.14518456761E+02 -0.22061713829E+02  0.28149117459E+02  0.38598932854E+02  0.00000000000E+00 0.  1.
         21    1    1    2  502  501  0.18541896901E+02  0.93410496983E+01 -0.94645823128E+02  0.96896279525E+02  0.00000000000E+00 0. -1.
<scales pt_clust_5="13000.00000" pt_clust_6="13000.00000" pt_clust_7="13000.00000" pt_clust_8="13000.00000" pt_clust_9="20.76192"></scales>
<clustering>
<clus scale="   20.762">  2  9  1 -1</clus>
<clus scale="   89.883">  5  6 -1 -1</clus>
<clus scale="   90.730">  7  8 -1 -1</clus>
<clus scale="  113.305">  2  5  1 -1</clus>
<clus scale="  113.978">  1  5  2 -1</clus>
</clustering>
</event>
<event>
 9    2  0.5608219E-005  0.1631577E+03  0.7546771E-02  0.1187525E+00
         -1   -1    0    0    0  501 -0.00000000000E+00  0.00000000000E+00  0.46815615391E+02  0.46815615391E+02  0.00000000000E+00 0.  1.
          2   -1    0    0  502    0  0.00000000000E+00 -0.00000000000E+00 -0.87751184755E+03  0.87751184755E+03  0.00000000000E+00 0. -1.
         24    2    1    2    0    0  0.54135172941E+02 -0.98585080161E+02 -0.11763652026E+03  0.18122834685E+03  0.79722818700E+02 0.  0.
         23    2    1    2    0    0 -0.67089756286E+02  0.12211708437E+03 -0.67961064020E+03  0.70019903627E+03  0.94839076466E+02 0.  0.
        -11    1    3    3    0    0  0.66275051656E+02 -0.49837112786E+02 -0.49496391049E+02  0.96571284603E+02  0.00000000000E+00 0.  1.
         12    1    3    3    0    0 -0.12139878716E+02 -0.48747967374E+02 -0.68140129216E+02  0.84657062245E+02  0.00000000000E+00 0. -1.
        -13    1    4    4    0    0 -0.50228939011E+02  0.10430854166E+03 -0.65606503479E+03  0.66620158214E+03  0.00000000000E+00 0. -1.
         13    1    4    4    0    0 -0.16860817275E+02  0.17808542714E+02 -0.23545605406E+02  0.33997454121E+02  0.00000000000E+00 0.  1.
         21    1    1    2  502  501  0.12954583345E+02 -0.23532004212E+02 -0.33449071699E+02  0.42900079830E+02  0.00000000000E+00 0. -1.
<scales pt_clust_5="13000.00000" pt_clust_6="13000.00000" pt_clust_7="13000.00000" pt_clust_8="13000.00000" pt_clust_9="26.86218"></scales>
<clustering>
<clus scale="   26.862">  1  9  2 -1</clus>
<clus scale="   79.723">  5  6 -1 -1</clus>
<clus scale="   94.839">  7  8 -1 -1</clus>
<clus scale="  154.860">  1  5  2 -1</clus>
<clus scale="  163.158">  2  5  1 -1</clus>
</clustering>
</event>
<event>
 9    2  0.5608219E-005  0.1269857E+03  0.7546771E-02  0.1236541E+00
          2   -1    0    0  502    0  0.00000000000E+00  0.00000000000E+00  0.48077420280E+03  0.48077420280E+03  0.00000000000E+00 0. -1.
         -1   -1    0    0    0  501 -0.00000000000E+00 -0.00000000000E+00 -0.15063169044E+03  0.15063169044E+03  0.00000000000E+00 0.  1.
         23    2    1    2    0    0 -0.42217995321E+02 -0.96608155838E+02  0.41880808460E+02  0.14656545628E+03  0.92800516987E+02 0.  0.
         24    2    1    2    0    0  0.44081002662E+02  0.71291837331E+02  0.37637929547E+03  0.39313930981E+03  0.76625596196E+02 0.  0.
        -11    1    4    4    0    0  0.40707388740E+02  0.35901982090E+02  0.94112052547E+02  0.10864217528E+03  0.00000000000E+00 0.  1.
         12    1    4    4    0    0  0.33736139227E+01  0.35389855241E+02  0.28226724292E+03  0.28449713452E+03  0.00000000000E+00 0. -1.
        -13    1    3    3    0    0 -0.52477302084E+02 -0.66773309107E+02 -0.10340288461E+02  0.85553863785E+02  0.00000000000E+00 0.  1.
         13    1    3    3    0    0  0.10259306763E+02 -0.29834846732E+02  0.52221096921E+02  0.61011592492E+02  0.00000000000E+00 0. -1.
         21    1    1    2  502  501 -0.18630073416E+01  0.25316318507E+02 -0.88117591565E+02  0.91701127159E+02  0.00000000000E+00 0.  1.
<scales pt_clust_5="13000.00000" pt_clust_6="13000.00000" pt_clust_7="13000.00000" pt_clust_8="13000.00000" pt_clust_9="25.38477"></scales>
<clustering>
<clus scale="   25.385">  2  9  1 -1</clus>
<clus scale="   76.626">  5  6 -1 -1</clus>
<clus scale="   92.801">  7  8 -1 -1</clus>
<clus scale="  115.693">  1  5  2 -1</clus>
<clus scale="  115.693">  1  5  2 -1</clus>
</clustering>
</event>
<event>
 9    2  0.5608219E-005  0.1117300E+03  0.7546771E-02  0.1261054E+00
         -1   -1    0    0    0  501 -0.00000000000E+00  0.00000000000E+00  0.94259255624E+02  0.94259255624E+02  0.00000000000E+00 0.  1.
          2   -1    0    0  502    0  0.00000000000E+00 -0.00000000000E+00 -0.58346305260E+03  0.58346305260E+03  0.00000000000E+00 0. -1.
         23    2    1    2    0    0  0.30084512535E+02 -0.55904710232E+02  0.40726658100E+02  0.11752495932E+03  0.90127913896E+02 0.  0.
         24    2    1    2    0    0 -0.35859416619E+02  0.92842046428E+02 -0.48583516996E+03  0.50238635953E+03  0.80316240752E+02 0.  0.
        -11    1    4    4    0    0 -0.55748121670E+02  0.43639931314E+02 -0.33744294278E+03  0.34478984369E+03  0.00000000000E+00 0.  1.
         12    1    4    4    0    0  0.19888705051E+02  0.49202115114E+02 -0.14839222718E+03  0.15759651585E+03  0.00000000000E+00 0. -1.
        -13    1    3    3    0    0  0.17153903684E+02 -0.39271146468E+02  0.69628325073E+02  0.81759299220E+02  0.00000000000E+00 0.  1.
         13    1    3    3    0    0  0.12930608851E+02 -0.16633563764E+02 -0.28901666973E+02  0.35765660103E+02  0.00000000000E+00 0. -1.
         21    1    1    2  502  501  0.57749040835E+01 -0.36937336196E+02 -0.44095285115E+02  0.57810989369E+02  0.00000000000E+00 0. -1.
<scales pt_clust_5="13000.00000" pt_clust_6="13000.00000" pt_clust_7="13000.00000" pt_clust_8="13000.00000" pt_clust_9="37.38604"></scales>
<clustering>
<clus scale="   37.386">  2  9  1 -1</clus>
<clus scale="   80.316">  5  6 -1 -1</clus>
<clus scale="   90.128">  7  8 -1 -1</clus>
<clus scale="  103.977">  2  5  1 -1</clus>
<clus scale="   37.386">  2  5  1 -1</clus>
</clustering>
</event>
<event>
 9    2  0.5608219E-005  0.9280839E+02  0.7546771E-02  0.1302668E+00
         -3   -1    0    0    0  501 -0.00000000000E+00  0.00000000000E+00  0.95200086638E+02  0.95200086638E+02  0.00000000000E+00 0.  1.
          4   -1    0    0  502    0  0.00000000000E+00 -0.00000000000E+00 -0.23353868915E+03  0.23353868915E+03  0.00000000000E+00 0. -1.
         24    2    1    2    0    0  0.27134426429E+02  0.12932708404E+02 -0.48834905581E+01  0.87518824838E+02  0.82049766464E+02 0.  0.
         23    2    1    2    0    0 -0.11380437346E+01  0.18535971997E+01 -0.17025981749E+03  0.19379597921E+03  0.92540505401E+02 0.  0.
        -13    1    3    3    0    0 -0.13536796644E+02 -0.26892143871E+02  0.20442615983E+01  0.30176336273E+02  0.00000000000E+00 0.  1.
         14    1    3    3    0    0  0.40671223073E+02  0.39824852274E+02 -0.69277521564E+01  0.57342488565E+02  0.00000000000E+00 0. -1.
        -11    1    4    4    0    0  0.36633515452E+02  0.18049464765E+02 -0.13000385291E+03  0.13626738203E+03  0.00000000000E+00 0. -1.
         11    1    4    4    0    0 -0.37771559187E+02 -0.16195867566E+02 -0.40255964576E+02  0.57528597180E+02  0.00000000000E+00 0.  1.
         21    1    1    2  502  501 -0.25996382694E+02 -0.14786305603E+02  0.36804705532E+02  0.47423971743E+02  0.00000000000E+00 0. -1.
<scales pt_clust_5="13000.00000" pt_clust_6="13000.00000" pt_clust_7="13000.00000" pt_clust_8="13000.00000" pt_clust_9="29.90730"></scales>
<clustering>
<clus scale="   29.907">  1  9  2 -1</clus>
<clus scale="   82.050">  5  6 -1 -1</clus>
<clus scale="   82.352">  1  5  2 -1</clus>
<clus scale="   92.541">  7  8 -1 -1</clus>
<clus scale="   92.808">  2  5  1 -1</clus>
</clustering>
</event>
<event>
 9    2  0.5608219E-005  0.9907758E+02  0.7546771E-02  0.1287693E+00
         -1   -1    0    0    0  501 -0.00000000000E+00  0.00000000000E+00  0.58561947239E+02  0.58561947239E+02  0.00000000000E+00 0.  1.
          2   -1    0    0  502    0  0.00000000000E+00 -0.00000000000E+00 -0.82024738815E+03  0.82024738815E+03  0.00000000000E+00 0. -1.
         23    2    1    2    0    0  0.14731376588E+02 -0.20179288279E+02 -0.14593748162E+03  0.17326125382E+03  0.89986090045E+02 0.  0.
         24    2    1    2    0    0 -0.18231357074E+02  0.41578374564E+02 -0.65466410273E+03  0.66099881696E+03  0.79203566889E+02 0.  0.
        -11    1    4    4    0    0  0.89042689975E+01  0.24992690886E+02 -0.61451818189E+02  0.66934643966E+02  0.00000000000E+00 0.  1.
         12    1    4    4    0    0 -0.27135626071E+02  0.16585683677E+02 -0.59321228454E+03  0.59406417300E+03  0.00000000000E+00 0. -1.
        -13    1    3    3    0    0  0.15189591607E+02  0.33513500098E+02 -0.39106306948E+02  0.53695266319E+02  0.00000000000E+00 0. -1.
         13    1    3    3    0    0 -0.45821501839E+00 -0.53692788377E+02 -0.10683117467E+03  0.11956598750E+03  0.00000000000E+00 0.  1.
         21    1    1    2  502  501  0.34999804854E+01 -0.21399086285E+02  0.38916143439E+02  0.44549264611E+02  0.00000000000E+00 0.  1.
<scales pt_clust_5="13000.00000" pt_clust_6="13000.00000" pt_clust_7="13000.00000" pt_clust_8="13000.00000" pt_clust_9="21.68342"></scales>
<clustering>
<clus scale="   21.683">  1  9  2 -1</clus>
<clus scale="   79.204">  5  6 -1 -1</clus>
<clus scale="   89.398">  2  5  1 -1</clus>
<clus scale="   89.986">  7  8 -1 -1</clus>
<clus scale="   89.398">  2  5  1 -1</clus>
</clustering>
</event>
<event>
 9    2  0.5608219E-005  0.1937441E+03  0.7546771E-02  0.1156558E+00
          2   -1    0    0  502    0  0.00000000000E+00  0.00000000000E+00  0.11403955631E+04  0.11403955631E+04  0.00000000000E+00 0. -1.
         -1   -1    0    0    0  501 -0.00000000000E+00 -0.00000000000E+00 -0.74948211686E+02  0.74948211686E+02  0.00000000000E+00 0.  1.
         23    2    1    2    0    0 -0.15438979058E+03  0.78742905239E+02  0.13298297834E+03  0.23702280630E+03  0.91971112958E+02 0.  0.
         24    2    1    2    0    0  0.15952496544E+03 -0.59334415742E+02  0.93881086570E+03  0.95726538840E+03  0.77604089973E+02 0.  0.
        -13    1    4    4    0    0  0.47506172512E+02  0.83427387927E+01  0.14698322738E+03  0.15469488307E+03  0.00000000000E+00 0.  1.
         14    1    4    4    0    0  0.11201879293E+03 -0.67677154535E+02  0.79182763833E+03  0.80257050534E+03  0.00000000000E+00 0. -1.
        -13    1    3    3    0    0  0.28449763825E+01  0.27137160129E+02  0.48152349084E+01  0.27707505079E+02  0.00000000000E+00 0. -1.
         13    1    3    3    0    0 -0.15723476696E+03  0.51605745110E+02  0.12816774343E+03  0.20931530122E+03  0.00000000000E+00 0.  1.
         21    1    1    2  502  501 -0.51351748591E+01 -0.19408489497E+02 -0.63464926019E+01  0.21055580109E+02  0.00000000000E+00 0.  1.
<scales pt_clust_5="13000.00000" pt_clust_6="13000.00000" pt_clust_7="13000.00000" pt_clust_8="13000.00000" pt_clust_9="20.07634"></scales>
<clustering>
<clus scale="   20.076">  2  9  1 -1</clus>
<clus scale="   77.604">  5  6 -1 -1</clus>
<clus scale="   91.971">  7  8 -1 -1</clus>
<clus scale="  187.351">  1  5  2 -1</clus>
<clus scale="  187.351">  1  5  2 -1</clus>
</clustering>
</event>
<event>
 9    2  0.5608219E-005  0.1015692E+03  0.7546771E-02  0.1283481E+00
         -1   -1    0    0    0  501 -0.00000000000E+00  0.00000000000E+00  0.86303218293E+02  0.86303218293E+02  0.00000000000E+00 0.  1.
          2   -1    0    0  502    0  0.00000000000E+00 -0.00000000000E+00 -0.25203048453E+03  0.25203048453E+03  0.00000000000E+00 0. -1.
         24    2    1    2    0    0  0.30749210860E+01 -0.57566275548E+02  0.24335748824E+02  0.10042649482E+03  0.78548844497E+02 0.  0.
         23    2    1    2    0    0  0.21048885616E+02  0.36517722420E+02 -0.17608826443E+03  0.20297451137E+03  0.91733176992E+02 0.  0.
        -11    1    3    3    0    0 -0.33046812914E+02 -0.10546101108E+02 -0.36130149964E+01  0.34876438604E+02  0.00000000000E+00 0.  1.
         12    1    3    3    0    0  0.36121734000E+02 -0.47020174439E+02  0.27948763821E+02  0.65550056221E+02  0.00000000000E+00 0. -1.
        -13    1    4    4    0    0 -0.18978443861E+02  0.22807766872E+02 -0.15078241374E+03  0.15367404418E+03  0.00000000000E+00 0. -1.
         13    1    4    4    0    0  0.40027329476E+02  0.13709955548E+02 -0.25305850681E+02  0.49300467187E+02  0.00000000000E+00 0.  1.
         21    1    1    2  502  501 -0.24123806702E+02  0.21048553127E+02 -0.13974750640E+02  0.34932696632E+02  0.00000000000E+00 0.  1.
<scales pt_clust_5="13000.00000" pt_clust_6="13000.00000" pt_clust_7="13000.00000" pt_clust_8="13000.00000" pt_clust_9="32.01562"></scales>
<clustering>
<clus scale="   32.016">  1  9  2 -1</clus>
<clus scale="   78.549">  5  6 -1 -1</clus>
<clus scale="   89.840">  1  5  2 -1</clus>
<clus scale="   91.733">  7  8 -1 -1</clus>
<clus scale="  101.569">  2  5  1 -1</clus>
</clustering>
</event>
<event>
 9    2  0.5608219E-005  0.9555757E+02  0.7546771E-02  0.1297382E+00
         -1   -1    0    0    0  501 -0.00000000000E+00  0.00000000000E+00  0.15949760102E+03  0.15949760102E+03  0.00000000000E+00 0.  1.
          2   -1    0    0  502    0  0.00000000000E+00 -0.00000000000E+00 -0.13765346122E+03  0.13765346122E+03  0.00000000000E+00 0. -1.
         23    2    1    2    0    0 -0.81270884336E+01  0.13908025940E+02  0.10332653928E+03  0.14000005568E+03  0.93081464961E+02 0.  0.
         24    2    1    2    0    0  0.66911671376E+01 -0.51435190613E+02 -0.67699021464E+02  0.11714686342E+03  0.80311142136E+02 0.  0.
        -11    1    4    4    0    0  0.35045006508E+02 -0.55372109388E+01 -0.74130495725E+01  0.36245916875E+02  0.00000000000E+00 0.  1.
         12    1    4    4    0    0 -0.28353839371E+02 -0.45897979674E+02 -0.60285971892E+02  0.80900946546E+02  0.00000000000E+00 0. -1.
        -13    1    3    3    0    0  0.13404990609E+02 -0.36912040342E+02  0.43254343610E+02  0.58422005585E+02  0.00000000000E+00 0. -1.
         13    1    3    3    0    0 -0.21532079043E+02  0.50820066283E+02  0.60072195668E+02  0.81578050095E+02  0.00000000000E+00 0.  1.
         21    1    1    2  502  501  0.14359212960E+01  0.37527164672E+02 -0.13783378020E+02  0.40004143135E+02  0.00000000000E+00 0. -1.
<scales pt_clust_5="13000.00000" pt_clust_6="13000.00000" pt_clust_7="13000.00000" pt_clust_8="13000.00000" pt_clust_9="37.55463"></scales>
<clustering>
<clus scale="   37.555">  2  9  1 -1</clus>
<clus scale="   80.311">  5  6 -1 -1</clus>
<clus scale="   83.168">  2  5  1 -1</clus>
<clus scale="   93.081">  7  8 -1 -1</clus>
<clus scale="   37.555">  2  5  1 -1</clus>
</clustering>
</event>
<event>
 9    2  0.5608219E-005  0.9427549E+02  0.7546771E-02  0.1298817E+00
          2   -1    0    0  502    0  0.00000000000E+00  0.00000000000E+00  0.22960601390E+03  0.22960601390E+03  0.00000000000E+00 0. -1.
         -1   -1    0    0    0  501 -0.00000000000E+00 -0.00000000000E+00 -0.25152785722E+03  0.25152785722E+03  0.00000000000E+00 0.  1.
         24    2    1    2    0    0 -0.44266467381E+00 -0.21372555010E+02 -0.12764157140E+03  0.15217929137E+03  0.80057378883E+02 0.  0.
         23    2    1    2    0    0  0.24386486587E+02  0.13116631512E+02  0.20538204976E+03  0.22612440303E+03  0.90463874191E+02 0.  0.
        -13    1    3    3    0    0 -0.93977522119E+01  0.29433333751E+02 -0.54967528341E+02  0.63056070717E+02  0.00000000000E+00 0.  1.
         14    1    3    3    0    0  0.89550875381E+01 -0.50805888760E+02 -0.72674043060E+02  0.89123220657E+02  0.00000000000E+00 0. -1.
        -11    1    4    4    0    0 -0.58127609041E+00  0.31617929294E+02  0.18418870305E+02  0.36596258252E+02  0.00000000000E+00 0.  1.
         11    1    4    4    0    0  0.24967762678E+02 -0.18501297782E+02  0.18696317945E+03  0.18952814478E+03  0.00000000000E+00 0. -1.
         21    1    1    2  502  501 -0.23943821914E+02  0.82559234979E+01 -0.99662321682E+02  0.10283017672E+03  0.00000000000E+00 0.  1.
<scales pt_clust_5="13000.00000" pt_clust_6="13000.00000" pt_clust_7="13000.00000" pt_clust_8="13000.00000" pt_clust_9="25.32720"></scales>
<clustering>
<clus scale="   25.327">  2  9  1 -1</clus>
<clus scale="   80.057">  5  6 -1 -1</clus>
<clus scale="   84.341">  2  5  1 -1</clus>
<clus scale="   90.464">  7  8 -1 -1</clus>
<clus scale="   94.275">  1  5  2 -1</clus>
</clustering>
</event>
<event>
 9    2  0.5608219E-005  0.9325120E+02  0.7546771E-02  0.1301946E+00
         -1   -1    0    0    0  501 -0.00000000000E+00  0.00000000000E+00  0.18196045480E+03  0.18196045480E+03  0.00000000000E+00 0.  1.
          2   -1    0    0  502    0  0.00000000000E+00 -0.00000000000E+00 -0.11780986818E+03  0.11780986818E+03  0.00000000000E+00 0. -1.
         23    2    1    2    0    0  0.12892464046E+02 -0.93905882633E+01  0.13356868481E+03  0.16282872536E+03  0.91750757294E+02 0.  0.
         24    2    1    2    0    0 -0.26335910518E+02 -0.80967035270E+01 -0.27328994532E+02  0.89422924727E+02  0.80563321269E+02 0.  0.
        -11    1    4    4    0    0 -0.94110065339E+01 -0.37626327099E+02 -0.37449112332E+02  0.53914223999E+02  0.00000000000E+00 0.  1.
         12    1    4    4    0    0 -0.16924903984E+02  0.29529623572E+02  0.10120117800E+02  0.35508700729E+02  0.00000000000E+00 0. -1.
        -13    1    3    3    0    0 -0.11661720526E+02  0.37998494773E+02  0.56063559628E+02  0.68724115483E+02  0.00000000000E+00 0. -1.
         13    1    3    3    0    0  0.24554184572E+02 -0.47389083037E+02  0.77505125181E+02  0.94104609879E+02  0.00000000000E+00 0.  1.
         21    1    1    2  502  501  0.13443446471E+02  0.17487291790E+02 -0.42089103653E+02  0.47518672893E+02  0.00000000000E+00 0. -1.
<scales pt_clust_5="13000.00000" pt_clust_6="13000.00000" pt_clust_7="13000.00000" pt_clust_8="13000.00000" pt_clust_9="22.05746"></scales>
<clustering>
<clus scale="   22.057">  2  9  1 -1</clus>
<clus scale="   80.563">  5  6 -1 -1</clus>
<clus scale="   82.268">  2  5  1 -1</clus>
<clus scale="   91.751">  7  8 -1 -1</clus>
<clus scale="   22.057">  2  5  1 -1</clus>
</clustering>
</event>
<event>
 9    2  0.5608219E-005  0.1009744E+03  0.7546771E-02  0.1280896E+00
          4   -1    0    0  502    0  0.00000000000E+00  0.00000000000E+00  0.15069778187E+04  0.15069778187E+04  0.00000000000E+00 0. -1.
         -3   -1    0    0    0  501 -0.00000000000E+00 -0.00000000000E+00 -0.10758531014E+03  0.10758531014E+03  0.00000000000E+00 0.  1.
         23    2    1    2    0    0  0.27919837627E+02 -0.41474580064E+02 -0.57081504213E+02  0.11506745104E+03  0.86501803680E+02 0.  0.
         24    2    1    2    0    0 -0.51482085092E+02  0.97502241445E+01  0.14568043582E+04  0.14599770317E+04  0.80675417767E+02 0.  0.
        -11    1    4    4    0    0 -0.34634127065E+02  0.63729227901E+01  0.20143553159E+03  0.20449061174E+03  0.00000000000E+00 0.  1.
         12    1    4    4    0    0 -0.16847958027E+02  0.33773013544E+01  0.12553688266E+04  0.12554864199E+04  0.00000000000E+00 0. -1.
        -11    1    3    3    0    0 -0.69831705505E+01  0.23893713606E+02 -0.78514029340E+01  0.26102083228E+02  0.00000000000E+00 0. -1.
         11    1    3    3    0    0  0.34903008178E+02 -0.65368293670E+02 -0.49230101279E+02  0.88965367808E+02  0.00000000000E+00 0.  1.
         21    1    1    2  502  501  0.23562247465E+02  0.31724355920E+02 -0.33034541043E+00  0.39518646133E+02  0.00000000000E+00 0.  1.
<scales pt_clust_5="13000.00000" pt_clust_6="13000.00000" pt_clust_7="13000.00000" pt_clust_8="13000.00000" pt_clust_9="39.51727"></scales>
<clustering>
<clus scale="   39.517">  2  9  1 -1</clus>
<clus scale="   80.675">  5  6 -1 -1</clus>
<clus scale="   86.502">  7  8 -1 -1</clus>
<clus scale="   96.030">  1  5  2 -1</clus>
<clus scale="   96.030">  1  5  2 -1</clus>
</clustering>
</event>
<event>
 9    2  0.5608219E-005  0.1237504E+03  0.7546771E-02  0.1238356E+00
         -1   -1    0    0    0  501 -0.00000000000E+00  0.00000000000E+00  0.12553583795E+03  0.12553583795E+03  0.00000000000E+00 0.  1.
          2   -1    0    0  502    0  0.00000000000E+00 -0.00000000000E+00 -0.32893636392E+03  0.32893636392E+03  0.00000000000E+00 0. -1.
         23    2    1    2    0    0 -0.36708170349E+02 -0.11798282204E+03  0.14606439638E+02  0.15074987305E+03  0.85116038911E+02 0.  0.
         24    2    1    2    0    0 -0.33254457067E+01  0.84882716518E+02 -0.22276439962E+03  0.25155969298E+03  0.80263112567E+02 0.  0.
        -11    1    4    4    0    0  0.35411985102E+01  0.91223615149E+02 -0.13304315743E+03  0.16135293547E+03  0.00000000000E+00 0.  1.
         12    1    4    4    0    0 -0.68666442170E+01 -0.63408986304E+01 -0.89721242196E+02  0.90206757505E+02  0.00000000000E+00 0. -1.
        -13    1    3    3    0    0 -0.20403727046E+02  0.83448942578E+01 -0.26805040499E+01  0.22206630531E+02  0.00000000000E+00 0. -1.
         13    1    3    3    0    0 -0.16304443302E+02 -0.12632771630E+03  0.17286943688E+02  0.12854324252E+03  0.00000000000E+00 0.  1.
         21    1    1    2  502  501  0.40033616056E+02  0.33100105519E+02  0.47574340148E+01  0.52162635845E+02  0.00000000000E+00 0.  1.
<scales pt_clust_5="13000.00000" pt_clust_6="13000.00000" pt_clust_7="13000.00000" pt_clust_8="13000.00000" pt_clust_9="51.94523"></scales>
<clustering>
<clus scale="   51.945">  1  9  2 -1</clus>
<clus scale="   80.263">  5  6 -1 -1</clus>
<clus scale="   85.116">  7  8 -1 -1</clus>
<clus scale="  120.464">  2  5  1 -1</clus>
<clus scale="  120.464">  2  5  1 -1</clus>
</clustering>
</event>
<event>
 9    2  0.5608219E-005  0.9489594E+02  0.7546771E-02  0.1297013E+00
         -1   -1    0    0    0  501 -0.00000000000E+00  0.00000000000E+00  0.64959877636E+02  0.64959877636E+02  0.00000000000E+00 0.  1.
          2   -1    0    0  502    0  0.00000000000E+00 -0.00000000000E+00 -0.58741648821E+03  0.58741648821E+03  0.00000000000E+00 0. -1.
         23    2    1    2    0    0 -0.11914033102E+02 -0.44636983926E+02 -0.96423755675E+02  0.14008499565E+03  0.90508899173E+02 0.  0.
         24    2    1    2    0    0 -0.36924122663E+02 -0.13396300713E+02 -0.42712427890E+03  0.43643480297E+03  0.80606053782E+02 0.  0.
        -11    1    4    4    0    0 -0.58322211835E+02 -0.24883206377E+02 -0.26373715170E+03  0.27125253831E+03  0.00000000000E+00 0.  1.
         12    1    4    4    0    0  0.21398089172E+02  0.11486905664E+02 -0.16338712720E+03  0.16518226466E+03  0.00000000000E+00 0. -1.
        -11    1    3    3    0    0 -0.26130111018E+02  0.11269251527E+02 -0.87106549110E+00  0.28469940058E+02  0.00000000000E+00 0.  1.
         11    1    3    3    0    0  0.14216077916E+02 -0.55906235453E+02 -0.95552690184E+02  0.11161505559E+03  0.00000000000E+00 0. -1.
         21    1    1    2  502  501  0.48838155765E+02  0.58033284639E+02  0.10914240078E+01  0.75856567223E+02  0.00000000000E+00 0.  1.
<scales pt_clust_5="13000.00000" pt_clust_6="13000.00000" pt_clust_7="13000.00000" pt_clust_8="13000.00000" pt_clust_9="75.84872"></scales>
<clustering>
<clus scale="   75.849">  1  9  2 -1</clus>
<clus scale="   80.606">  5  6 -1 -1</clus>
<clus scale="   85.503">  2  5  1 -1</clus>
<clus scale="   90.509">  7  8 -1 -1</clus>
<clus scale="   85.503">  2  5  1 -1</clus>
</clustering>
</event>
<event>
 9    2  0.5608219E-005  0.1138082E+03  0.7546771E-02  0.1258692E+00
          2   -1    0    0  502    0  0.00000000000E+00  0.00000000000E+00  0.61031912486E+02  0.61031912486E+02  0.00000000000E+00 0. -1.
         -1   -1    0    0    0  501 -0.00000000000E+00 -0.00000000000E+00 -0.31473140383E+03  0.31473140383E+03  0.00000000000E+00 0.  1.
         23    2    1    2    0    0  0.45417692417E+02 -0.27314611836E+02 -0.85925282975E+02  0.13843969355E+03  0.94728769086E+02 0.  0.
         24    2    1    2    0    0 -0.71911856145E+02  0.13007888293E+02 -0.58786154941E+02  0.12425276515E+03  0.81501027133E+02 0.  0.
        -13    1    4    4    0    0 -0.77772469350E+02 -0.16200922337E+02 -0.39080688627E+02  0.88534327224E+02  0.00000000000E+00 0.  1.
         14    1    4    4    0    0  0.58606132052E+01  0.29208810630E+02 -0.19705466314E+02  0.35718437931E+02  0.00000000000E+00 0. -1.
        -11    1    3    3    0    0  0.22742615147E+02  0.27905683854E+02 -0.28099410292E+01  0.36108856305E+02  0.00000000000E+00 0. -1.
         11    1    3    3    0    0  0.22675077270E+02 -0.55220295690E+02 -0.83115341945E+02  0.10233083725E+03  0.00000000000E+00 0.  1.
         21    1    1    2  502  501  0.26494163728E+02  0.14306723543E+02 -0.10898805343E+03  0.11307085761E+03  0.00000000000E+00 0. -1.
<scales pt_clust_5="13000.00000" pt_clust_6="13000.00000" pt_clust_7="13000.00000" pt_clust_8="13000.00000" pt_clust_9="30.11018"></scales>
<clustering>
<clus scale="   30.110">  2  9  1 -1</clus>
<clus scale="   81.501">  5  6 -1 -1</clus>
<clus scale="   94.729">  7  8 -1 -1</clus>
<clus scale="  103.059">  1  5  2 -1</clus>
<clus scale="  103.059">  1  5  2 -1</clus>
</clustering>
</event>
<event>
 9    2  0.5608219E-005  0.1344664E+03  0.7546771E-02  0.1223688E+00
         -3   -1    0    0    0  501 -0.00000000000E+00  0.00000000000E+00  0.24288050621E+03  0.24288050621E+03  0.00000000000E+00 0.  1.
          4   -1    0    0  502    0  0.00000000000E+00 -0.00000000000E+00 -0.18407796598E+03  0.18407796598E+03  0.00000000000E+00 0. -1.
         24    2    1    2    0    0 -0.11078412135E+03 -0.26579047274E+02  0.12779235388E+03  0.18891266276E+03  0.79859508787E+02 0.  0.
         23    2    1    2    0    0  0.24606613123E+02  0.67787496555E+02 -0.81101875760E+02  0.14175769351E+03  0.91198132215E+02 0.  0.
        -11    1    3    3    0    0 -0.43640480987E+02  0.17627990872E+02  0.86647110333E+02  0.98605067679E+02  0.00000000000E+00 0.  1.
         12    1    3    3    0    0 -0.67143640366E+02 -0.44207038147E+02  0.41145243551E+02  0.90307595086E+02  0.00000000000E+00 0. -1.
        -11    1    4    4    0    0  0.19616478996E+01  0.75901311507E+02 -0.23732340245E+02  0.79549237108E+02  0.00000000000E+00 0.  1.
         11    1    4    4    0    0  0.22644965223E+02 -0.81138149518E+01 -0.57369535515E+02  0.62208456404E+02  0.00000000000E+00 0. -1.
         21    1    1    2  502  501  0.86177508229E+02 -0.41208449281E+02  0.12112062109E+02  0.96288115909E+02  0.00000000000E+00 0.  1.
<scales pt_clust_5="13000.00000" pt_clust_6="13000.00000" pt_clust_7="13000.00000" pt_clust_8="13000.00000" pt_clust_9="95.52329"></scales>
<clustering>
<clus scale="   79.860">  5  6 -1 -1</clus>
<clus scale="   91.198">  7  8 -1 -1</clus>
<clus scale="   95.523">  2  9  1 -1</clus>
<clus scale="  127.050">  1  5  2 -1</clus>
<clus scale="   95.523">  2  5  1 -1</clus>
</clustering>
</event>
<event>
 9    2  0.5608219E-005  0.2599044E+03  0.7546771E-02  0.1107791E+00
         -1   -1    0    0    0  501 -0.00000000000E+00  0.00000000000E+00  0.45047315742E+03  0.45047315742E+03  0.00000000000E+00 0.  1.
          2   -1    0    0  502    0  0.00000000000E+00 -0.00000000000E+00 -0.11930041462E+04  0.11930041462E+04  0.00000000000E+00 0. -1.
         23    2    1    2    0    0 -0.15868398537E+03 -0.34942188226E+02 -0.19131064581E+02  0.18654523726E+03  0.89618994547E+02 0.  0.
         24    2    1    2    0    0  0.24471718677E+03 -0.10868574737E+03 -0.10519063895E+04  0.10882218911E+04  0.77593420171E+02 0.  0.
        -13    1    4    4    0    0  0.43991090189E+02 -0.33661667127E+02 -0.12265924628E+03  0.13458682903E+03  0.00000000000E+00 0.  1.
         14    1    4    4    0    0  0.20072609658E+03 -0.75024080240E+02 -0.92924714317E+03  0.95363506204E+03  0.00000000000E+00 0. -1.
        -13    1    3    3    0    0 -0.11936992514E+03 -0.65058784132E+02 -0.11448037545E+02  0.13642903644E+03  0.00000000000E+00 0.  1.
         13    1    3    3    0    0 -0.39314060231E+02  0.30116595905E+02 -0.76830270359E+01  0.50116200826E+02  0.00000000000E+00 0. -1.
         21    1    1    2  502  501 -0.86033201403E+02  0.14362793559E+03  0.32850646527E+03  0.36871017527E+03  0.00000000000E+00 0.  1.
<scales pt_clust_5="13000.00000" pt_clust_6="13000.00000" pt_clust_7="13000.00000" pt_clust_8="13000.00000" pt_clust_9="167.42370"></scales>
<clustering>
<clus scale="   77.593">  5  6 -1 -1</clus>
<clus scale="   89.619">  7  8 -1 -1</clus>
<clus scale="  167.424">  1  9  2 -1</clus>
<clus scale="  256.007">  2  5  1 -1</clus>
<clus scale="  256.007">  2  5  1 -1</clus>
</clustering>
</event>
<event>
 9    2  0.5608219E-005  0.9031670E+02  0.7546771E-02  0.1312780E+00
          2   -1    0    0  502    0  0.00000000000E+00  0.00000000000E+00  0.83018429116E+03  0.83018429116E+03  0.00000000000E+00 0. -1.
         -1   -1    0    0    0  501 -0.00000000000E+00 -0.00000000000E+00 -0.17603451990E+02  0.17603451990E+02  0.00000000000E+00 0.  1.
         23    2    1    2    0    0 -0.77995259708E+01 -0.10229905742E+02  0.14046742686E+03  0.16695155892E+03  0.89309805956E+02 0.  0.
         24    2    1    2    0    0  0.27602836498E+02 -0.10310228295E+02  0.53607786741E+03  0.54184072499E+03  0.73100437341E+02 0.  0.
        -13    1    4    4    0    0  0.21799636179E+02 -0.34764715530E+02  0.16926797877E+03  0.17417077315E+03  0.00000000000E+00 0.  1.
         14    1    4    4    0    0  0.58032003194E+01  0.24454487235E+02  0.36680988864E+03  0.36766995183E+03  0.00000000000E+00 0. -1.
        -11    1    3    3    0    0  0.35457015461E+02  0.13700579610E+02  0.82030025700E+02  0.90409241472E+02  0.00000000000E+00 0.  1.
         11    1    3    3    0    0 -0.43256541432E+02 -0.23930485352E+02  0.58437401161E+02  0.76542317448E+02  0.00000000000E+00 0. -1.
         21    1    1    2  502  501 -0.19803310527E+02  0.20540134037E+02  0.13603554490E+03  0.13899545924E+03  0.00000000000E+00 0. -1.
<scales pt_clust_5="13000.00000" pt_clust_6="13000.00000" pt_clust_7="13000.00000" pt_clust_8="13000.00000" pt_clust_9="28.53188"></scales>
<clustering>
<clus scale="   28.532">  1  9  2 -1</clus>
<clus scale="   73.100">  5  6 -1 -1</clus>
<clus scale="   74.327">  1  5  2 -1</clus>
<clus scale="   89.310">  7  8 -1 -1</clus>
<clus scale="   28.532">  1  5  2 -1</clus>
</clustering>
</event>
<event>
 9    2  0.5608219E-005  0.9057468E+02  0.7546771E-02  0.1307649E+00
          2   -1    0    0  502    0  0.00000000000E+00  0.00000000000E+00  0.59381012400E+02  0.59381012400E+02  0.00000000000E+00 0. -1.
         -1   -1    0    0    0  501 -0.00000000000E+00 -0.00000000000E+00 -0.18896374189E+03  0.18896374189E+03  0.00000000000E+00 0.  1.
         23    2    1    2    0    0 -0.34329163715E+01  0.15540403276E+02 -0.94426045140E+02  0.13150796683E+03  0.90137552060E+02 0.  0.
         24    2    1    2    0    0 -0.17101970000E+02  0.50266021479E+01 -0.25212771046E+02  0.86119289473E+02  0.80393433117E+02 0.  0.
        -11    1    4    4    0    0  0.18255340792E+02  0.32091218207E+02 -0.51367188819E+01  0.37275858600E+02  0.00000000000E+00 0.  1.
         12    1    4    4    0    0 -0.35357310793E+02 -0.27064616059E+02 -0.20076052164E+02  0.48843430873E+02  0.00000000000E+00 0. -1.
        -13    1    3    3    0    0 -0.34734194830E+02  0.33094608722E+02 -0.79040389533E+02  0.92461346489E+02  0.00000000000E+00 0.  1.
         13    1    3    3    0    0  0.31301278458E+02 -0.17554205446E+02 -0.15385655606E+02  0.39046620345E+02  0.00000000000E+00 0. -1.
         21    1    1    2  502  501  0.20534886372E+02 -0.20567005424E+02 -0.99439133021E+01  0.30717497980E+02  0.00000000000E+00 0. -1.
<scales pt_clust_5="13000.00000" pt_clust_6="13000.00000" pt_clust_7="13000.00000" pt_clust_8="13000.00000" pt_clust_9="29.06344"></scales>
<clustering>
<clus scale="   29.063">  1  9  2 -1</clus>
<clus scale="   80.393">  5  6 -1 -1</clus>
<clus scale="   80.883">  1  5  2 -1</clus>
<clus scale="   90.138">  7  8 -1 -1</clus>
<clus scale="   29.063">  1  5  2 -1</clus>
</clustering>
</event>
<event>
 9    2  0.5608219E-005  0.1200196E+03  0.7546771E-02  0.1244054E+00
         -3   -1    0    0    0  501 -0.00000000000E+00  0.00000000000E+00  0.15254665858E+03  0.15254665858E+03  0.00000000000E+00 0.  1.
          4   -1    0    0  502    0  0.00000000000E+00 -0.00000000000E+00 -0.15623857617E+03  0.15623857617E+03  0.00000000000E+00 0. -1.
         23    2    1    2    0    0  0.11865005996E+02 -0.74455475506E+02  0.57087184099E+02  0.12900022702E+03  0.87736627369E+02 0.  0.
         24    2    1    2    0    0  0.23616660896E+02  0.87270205834E+02 -0.31454950962E+02  0.13200350698E+03  0.90893764452E+02 0.  0.
        -11    1    4    4    0    0  0.47136662758E+02  0.17984778765E+02  0.41695267218E+01  0.50623138941E+02  0.00000000000E+00 0.  1.
         12    1    4    4    0    0 -0.23520001861E+02  0.69285427068E+02 -0.35624477684E+02  0.81380368037E+02  0.00000000000E+00 0. -1.
        -13    1    3    3    0    0  0.30314690276E+02 -0.26768741161E+02  0.65699129497E+02  0.77148697763E+02  0.00000000000E+00 0.  1.
         13    1    3    3    0    0 -0.18449684280E+02 -0.47686734345E+02 -0.86119453978E+01  0.51851529255E+02  0.00000000000E+00 0. -1.
         21    1    1    2  502  501 -0.35481666892E+02 -0.12814730328E+02 -0.29324150721E+02  0.47781500754E+02  0.00000000000E+00 0. -1.
<scales pt_clust_5="13000.00000" pt_clust_6="13000.00000" pt_clust_7="13000.00000" pt_clust_8="13000.00000" pt_clust_9="37.72487"></scales>
<clustering>
<clus scale="   37.725">  2  9  1 -1</clus>
<clus scale="   87.737">  7  8 -1 -1</clus>
<clus scale="   90.894">  5  6 -1 -1</clus>
<clus scale="  117.647">  1  7  2 -1</clus>
<clus scale="   37.725">  2  5  1 -1</clus>
</clustering>
</event>
<event>
 9    2  0.5608219E-005  0.2219729E+03  0.7546771E-02  0.1133831E+00
         -1   -1    0    0    0  501 -0.00000000000E+00  0.00000000000E+00  0.41017012818E+02  0.41017012818E+02  0.00000000000E+00 0.  1.
          2   -1    0    0  502    0  0.00000000000E+00 -0.00000000000E+00 -0.21446149701E+04  0.21446149701E+04  0.00000000000E+00 0. -1.
         24    2    1    2    0    0 -0.18988782886E+03  0.75925831790E+02 -0.10086397737E+04  0.10322339236E+04  0.79564819380E+02 0.  0.
         23    2    1    2    0    0  0.17293357849E+03 -0.89621286841E+02 -0.11071538947E+04  0.11284231225E+04  0.98035703793E+02 0.  0.
        -13    1    3    3    0    0 -0.10786483969E+03  0.62654108141E+02 -0.43236481227E+03  0.44999965755E+03  0.00000000000E+00 0.  1.
         14    1    3    3    0    0 -0.82022989162E+02  0.13271723649E+02 -0.57627496145E+03  0.58223426608E+03  0.00000000000E+00 0. -1.
        -11    1    4    4    0    0  0.10668310119E+03 -0.40676593736E+00 -0.56933951269E+03  0.57924859106E+03  0.00000000000E+00 0. -1.
         11    1    4    4    0    0  0.66250477305E+02 -0.89214520903E+02 -0.53781438201E+03  0.54917453144E+03  0.00000000000E+00 0.  1.
         21    1    1    2  502  501  0.16954250363E+02  0.13695455050E+02  0.12195711178E+02  0.24974936748E+02  0.00000000000E+00 0.  1.
<scales pt_clust_5="13000.00000" pt_clust_6="13000.00000" pt_clust_7="13000.00000" pt_clust_8="13000.00000" pt_clust_9="21.79477"></scales>
<clustering>
<clus scale="   21.795">  1  9  2 -1</clus>
<clus scale="   79.565">  5  6 -1 -1</clus>
<clus scale="   98.036">  7  8 -1 -1</clus>
<clus scale="  214.456">  1  5  2 -1</clus>
<clus scale="  221.973">  2  5  1 -1</clus>
</clustering>
</event>
<event>
 9    2  0.5608219E-005  0.1312380E+03  0.7546771E-02  0.1247303E+00
         -1   -1    0    0    0  501 -0.00000000000E+00  0.00000000000E+00  0.21303753490E+03  0.21303753490E+03  0.00000000000E+00 0.  1.
          2   -1    0    0  502    0  0.00000000000E+00 -0.00000000000E+00 -0.19817728231E+03  0.19817728231E+03  0.00000000000E+00 0. -1.
         24    2    1    2    0    0  0.14198624448E+02  0.13510340176E+02  0.75839759071E+02  0.11338491496E+03  0.81977677789E+02 0.  0.
         23    2    1    2    0    0  0.19794259709E+01 -0.97061395936E+02 -0.13146768179E+03  0.18732609647E+03  0.91555897431E+02 0.  0.
        -13    1    3    3    0    0  0.45729494699E+02 -0.19905474937E+01  0.58280390655E+02  0.74106362073E+02  0.00000000000E+00 0.  1.
         14    1    3    3    0    0 -0.31530870252E+02  0.15500887669E+02  0.17559368416E+02  0.39278552883E+02  0.00000000000E+00 0. -1.
        -11    1    4    4    0    0  0.35393377809E+02 -0.89015366058E+02 -0.11357337047E+03  0.14857771390E+03  0.00000000000E+00 0. -1.
         11    1    4    4    0    0 -0.33413951838E+02 -0.80460298778E+01 -0.17894311325E+02  0.38748382573E+02  0.00000000000E+00 0.  1.
         21    1    1    2  502  501 -0.16178050419E+02  0.83551055760E+02  0.70488175314E+02  0.11050380579E+03  0.00000000000E+00 0.  1.
<scales pt_clust_5="13000.00000" pt_clust_6="13000.00000" pt_clust_7="13000.00000" pt_clust_8="13000.00000" pt_clust_9="94.02622"></scales>
<clustering>
<clus scale="   81.978">  5  6 -1 -1</clus>
<clus scale="   84.288">  1  5  2 -1</clus>
<clus scale="   91.556">  7  8 -1 -1</clus>
<clus scale="   94.026">  1  9  2 -1</clus>
<clus scale="  131.238">  2  5  1 -1</clus>
</clustering>
</event>
<event>
 9    2  0.5608219E-005  0.1505853E+03  0.7546771E-02  0.1201244E+00
         -1   -1    0    0    0  501 -0.00000000000E+00  0.00000000000E+00  0.13857650204E+03  0.13857650204E+03  0.00000000000E+00 0.  1.
          2   -1    0    0  502    0  0.00000000000E+00 -0.00000000000E+00 -0.47906266336E+03  0.47906266336E+03  0.00000000000E+00 0. -1.
         24    2    1    2    0    0 -0.38796429673E+02  0.38660908515E+02  0.49096996516E+02  0.11139404405E+03  0.83655777921E+02 0.  0.
         23    2    1    2    0    0  0.80864090419E+02 -0.10450638909E+03 -0.39641442010E+03  0.42781055284E+03  0.91743611106E+02 0.  0.
        -13    1    3    3    0    0 -0.59971817272E+02  0.43897863425E+02  0.49978663069E+02  0.89562872008E+02  0.00000000000E+00 0.  1.
         14    1    3    3    0    0  0.21175387599E+02 -0.52369549100E+01 -0.88166655287E+00  0.21831172039E+02  0.00000000000E+00 0. -1.
        -11    1    4    4    0    0  0.85258585215E+02 -0.84982279828E+02 -0.38774395224E+03  0.40600047628E+03  0.00000000000E+00 0. -1.
         11    1    4    4    0    0 -0.43944947959E+01 -0.19524109257E+02 -0.86704678597E+01  0.21810076563E+02  0.00000000000E+00 0.  1.
         21    1    1    2  502  501 -0.42067660746E+02  0.65845480570E+02  0.68312622655E+01  0.78434568503E+02  0.00000000000E+00 0.  1.
<scales pt_clust_5="13000.00000" pt_clust_6="13000.00000" pt_clust_7="13000.00000" pt_clust_8="13000.00000" pt_clust_9="78.13652"></scales>
<clustering>
<clus scale="   78.137">  1  9  2 -1</clus>
<clus scale="   83.656">  5  6 -1 -1</clus>
<clus scale="   91.744">  7  8 -1 -1</clus>
<clus scale="  145.799">  1  5  2 -1</clus>
<clus scale="  150.585">  2  5  1 -1</clus>
</clustering>
</event>
<event>
 9    2  0.5608219E-005  0.1826802E+03  0.7546771E-02  0.1169020E+00
          2   -1    0    0  502    0  0.00000000000E+00  0.00000000000E+00  0.64505270511E+03  0.64505270511E+03  0.00000000000E+00 0. -1.
         -1   -1    0    0    0  501 -0.00000000000E+00 -0.00000000000E+00 -0.31857261172E+03  0.31857261172E+03  0.00000000000E+00 0.  1.
         24    2    1    2    0    0  0.11136425368E+03 -0.10089117270E+02  0.85414823281E+02  0.16249728750E+03  0.81276621014E+02 0.  0.
         23    2    1    2    0    0 -0.15188686889E+03  0.66015197787E+02  0.49747480679E+03  0.53558018181E+03  0.10925804537E+03 0.  0.
        -11    1    3    3    0    0  0.91225607147E+02  0.41646599718E+01  0.21261366119E+02  0.93763006998E+02  0.00000000000E+00 0.  1.
         12    1    3    3    0    0  0.20138646528E+02 -0.14253777242E+02  0.64153457162E+02  0.68734280498E+02  0.00000000000E+00 0. -1.
        -11    1    4    4    0    0 -0.13243369274E+03  0.95099028752E+02  0.42153426262E+03  0.45196641778E+03  0.00000000000E+00 0.  1.
         11    1    4    4    0    0 -0.19453176144E+02 -0.29083830966E+02  0.75940544171E+02  0.83613764027E+02  0.00000000000E+00 0. -1.
         21    1    1    2  502  501  0.40522615211E+02 -0.55926080517E+02 -0.25640953668E+03  0.26554784752E+03  0.00000000000E+00 0.  1.
<scales pt_clust_5="13000.00000" pt_clust_6="13000.00000" pt_clust_7="13000.00000" pt_clust_8="13000.00000" pt_clust_9="69.06380"></scales>
<clustering>
<clus scale="   69.064">  2  9  1 -1</clus>
<clus scale="   81.277">  5  6 -1 -1</clus>
<clus scale="  109.258">  7  8 -1 -1</clus>
<clus scale="  167.453">  2  5  1 -1</clus>
<clus scale="  182.680">  1  5  2 -1</clus>
</clustering>
</event>
<event>
 9    2  0.5608219E-005  0.2739194E+03  0.7546771E-02  0.1099633E+00
         -1   -1    0    0    0  501 -0.00000000000E+00  0.00000000000E+00  0.11347191312E+03  0.11347191312E+03  0.00000000000E+00 0.  1.
          2   -1    0    0  502    0  0.00000000000E+00 -0.00000000000E+00 -0.11909153123E+04  0.11909153123E+04  0.00000000000E+00 0. -1.
         23    2    1    2    0    0  0.26862865768E+03  0.67899395788E+02 -0.57345255134E+03  0.64389226150E+03  0.94750895027E+02 0.  0.
         24    2    1    2    0    0 -0.22970527798E+03 -0.73360081889E+02 -0.54627353104E+03  0.60276564832E+03  0.82252293133E+02 0.  0.
        -11    1    4    4    0    0 -0.11668173591E+03 -0.34754086958E+00 -0.30418446792E+03  0.32579585449E+03  0.00000000000E+00 0.  1.
         12    1    4    4    0    0 -0.11302354207E+03 -0.73012541019E+02 -0.24208906313E+03  0.27696979383E+03  0.00000000000E+00 0. -1.
        -11    1    3    3    0    0  0.21323719778E+03  0.30499323771E+02 -0.35301656213E+03  0.41354685878E+03  0.00000000000E+00 0.  1.
         11    1    3    3    0    0  0.55391459897E+02  0.37400072018E+02 -0.22043598921E+03  0.23034540272E+03  0.00000000000E+00 0. -1.
         21    1    1    2  502  501 -0.38923379693E+02  0.54606861007E+01  0.42282683211E+02  0.57729315594E+02  0.00000000000E+00 0. -1.
<scales pt_clust_5="13000.00000" pt_clust_6="13000.00000" pt_clust_7="13000.00000" pt_clust_8="13000.00000" pt_clust_9="39.30456"></scales>
<clustering>
<clus scale="   39.305">  1  9  2 -1</clus>
<clus scale="   82.252">  5  6 -1 -1</clus>
<clus scale="   94.751">  7  8 -1 -1</clus>
<clus scale="  269.851">  2  5  1 -1</clus>
<clus scale="  269.851">  2  5  1 -1</clus>
</clustering>
</event>
<event>
 9    2  0.5608219E-005  0.9511954E+02  0.7546771E-02  0.1294637E+00
         -1   -1    0    0    0  501 -0.00000000000E+00  0.00000000000E+00  0.57997064160E+02  0.57997064160E+02  0.00000000000E+00 0.  1.
          2   -1    0    0  502    0  0.00000000000E+00 -0.00000000000E+00 -0.52104420874E+03  0.52104420874E+03  0.00000000000E+00 0. -1.
         23    2    1    2    0    0  0.95625088971E+01 -0.27160271700E+02  0.17004669905E+01  0.95859847668E+02  0.91417158519E+02 0.  0.
         24    2    1    2    0    0 -0.23066786933E+02 -0.44853253386E+01 -0.40310271334E+03  0.41258466316E+03  0.84747341963E+02 0.  0.
        -11    1    4    4    0    0 -0.35055899927E+01  0.38280679065E+02 -0.13404661066E+03  0.13944960874E+03  0.00000000000E+00 0.  1.
         12    1    4    4    0    0 -0.19561196940E+02 -0.42766004404E+02 -0.26905610268E+03  0.27313505441E+03  0.00000000000E+00 0. -1.
        -11    1    3    3    0    0 -0.17135893288E+02 -0.49225922596E+02  0.21017053283E+02  0.56200950373E+02  0.00000000000E+00 0. -1.
         11    1    3    3    0    0  0.26698402185E+02  0.22065650896E+02 -0.19316586292E+02  0.39658897295E+02  0.00000000000E+00 0.  1.
         21    1    1    2  502  501  0.13504278036E+02  0.31645597038E+02 -0.61644898233E+02  0.70596762074E+02  0.00000000000E+00 0. -1.
<scales pt_clust_5="13000.00000" pt_clust_6="13000.00000" pt_clust_7="13000.00000" pt_clust_8="13000.00000" pt_clust_9="34.40653"></scales>
<clustering>
<clus scale="   34.407">  2  9  1 -1</clus>
<clus scale="   84.747">  5  6 -1 -1</clus>
<clus scale="   88.728">  2  5  1 -1</clus>
<clus scale="   91.417">  7  8 -1 -1</clus>
<clus scale="   34.407">  2  5  1 -1</clus>
</clustering>
</event>
<event>
 9    2  0.5608219E-005  0.9509918E+02  0.7546771E-02  0.1298501E+00
          2   -1    0    0  502    0  0.00000000000E+00  0.00000000000E+00  0.15832627934E+03  0.15832627934E+03  0.00000000000E+00 0. -1.
         -1   -1    0    0    0  501 -0.00000000000E+00 -0.00000000000E+00 -0.78442782440E+02  0.78442782440E+02  0.00000000000E+00 0.  1.
         23    2    1    2    0    0  0.12033496555E+02 -0.13890157317E+02  0.32833611402E+01  0.92717133419E+02  0.90818196742E+02 0.  0.
         24    2    1    2    0    0 -0.34021775313E+02  0.17141546292E+01  0.82398440023E+02  0.11825735962E+03  0.77684494361E+02 0.  0.
        -11    1    4    4    0    0  0.16013422197E+01 -0.22603127581E+02 -0.27321061614E+01  0.22823892688E+02  0.00000000000E+00 0.  1.
         12    1    4    4    0    0 -0.35623117533E+02  0.24317282210E+02  0.85130546184E+02  0.95433466931E+02  0.00000000000E+00 0. -1.
        -11    1    3    3    0    0  0.17844321975E+02 -0.50123209586E+02  0.12972461498E+02  0.54763498092E+02  0.00000000000E+00 0.  1.
         11    1    3    3    0    0 -0.58108254203E+01  0.36233052269E+02 -0.96891003578E+01  0.37953635327E+02  0.00000000000E+00 0. -1.
         21    1    1    2  502  501  0.21988278758E+02  0.12176002688E+02 -0.57983042645E+01  0.25794568741E+02  0.00000000000E+00 0. -1.
<scales pt_clust_5="13000.00000" pt_clust_6="13000.00000" pt_clust_7="13000.00000" pt_clust_8="13000.00000" pt_clust_9="25.13443"></scales>
<clustering>
<clus scale="   25.134">  2  9  1 -1</clus>
<clus scale="   77.684">  5  6 -1 -1</clus>
<clus scale="   82.649">  1  5  2 -1</clus>
<clus scale="   90.818">  7  8 -1 -1</clus>
<clus scale="   82.649">  1  5  2 -1</clus>
</clustering>
</event>
<event>
 9    2  0.5608219E-005  0.1124314E+03  0.7546771E-02  0.1260612E+00
          2   -1    0    0  502    0  0.00000000000E+00  0.00000000000E+00  0.79801974154E+03  0.79801974154E+03  0.00000000000E+00 0. -1.
         -1   -1    0    0    0  501 -0.00000000000E+00 -0.00000000000E+00 -0.28160085440E+02  0.28160085440E+02  0.00000000000E+00 0.  1.
         23    2    1    2    0    0 -0.33570511417E+02  0.56764523520E+02  0.23193888195E+03  0.25832783794E+03  0.92673817915E+02 0.  0.
         24    2    1    2    0    0  0.12867048462E+02 -0.62461821652E+02  0.53653686741E+03  0.54633437342E+03  0.80885087542E+02 0.  0.
        -11    1    4    4    0    0  0.31532505493E+02 -0.62440138420E+01  0.84058152500E+02  0.89994775477E+02  0.00000000000E+00 0.  1.
         12    1    4    4    0    0 -0.18665457031E+02 -0.56217807810E+02  0.45247871491E+03  0.45633959794E+03  0.00000000000E+00 0. -1.
        -11    1    3    3    0    0 -0.48218967328E+02 -0.66017576510E+01  0.96004362013E+02  0.10763591194E+03  0.00000000000E+00 0. -1.
         11    1    3    3    0    0  0.14648455911E+02  0.63366281171E+02  0.13593451994E+03  0.15069192600E+03  0.00000000000E+00 0.  1.
         21    1    1    2  502  501  0.20703462955E+02  0.56972981322E+01  0.13839067415E+01  0.21517615625E+02  0.00000000000E+00 0.  1.
<scales pt_clust_5="13000.00000" pt_clust_6="13000.00000" pt_clust_7="13000.00000" pt_clust_8="13000.00000" pt_clust_9="21.47307"></scales>
<clustering>
<clus scale="   21.473">  2  9  1 -1</clus>
<clus scale="   80.885">  5  6 -1 -1</clus>
<clus scale="   92.674">  7  8 -1 -1</clus>
<clus scale="  102.931">  1  5  2 -1</clus>
<clus scale="  102.931">  1  5  2 -1</clus>
</clustering>
</event>
<event>
 9    2  0.5608219E-005  0.1430009E+03  0.7546771E-02  0.1210616E+00
         -1   -1    0    0    0  501 -0.00000000000E+00  0.00000000000E+00  0.26868706833E+03  0.26868706833E+03  0.00000000000E+00 0.  1.
          2   -1    0    0  502    0  0.00000000000E+00 -0.00000000000E+00 -0.23919269461E+03  0.23919269461E+03  0.00000000000E+00 0. -1.
         24    2    1    2    0    0  0.40922012132E+01 -0.70580681606E+02  0.17579129162E+03  0.20652721538E+03  0.82173802133E+02 0.  0.
         23    2    1    2    0    0  0.21952502786E+02  0.11617993949E+03 -0.18456177403E+03  0.23637702802E+03  0.88494972868E+02 0.  0.
        -11    1    3    3    0    0  0.81219768707E+01 -0.84948252727E+02  0.17055649912E+03  0.19071363754E+03  0.00000000000E+00 0.  1.
         12    1    3    3    0    0 -0.40297756576E+01  0.14367571121E+02  0.52347924987E+01  0.15813577845E+02  0.00000000000E+00 0. -1.
        -13    1    4    4    0    0 -0.19421275902E+02  0.10204970800E+03 -0.12620751150E+03  0.16346150868E+03  0.00000000000E+00 0. -1.
         13    1    4    4    0    0  0.41373778689E+02  0.14130231487E+02 -0.58354262528E+02  0.72915519336E+02  0.00000000000E+00 0.  1.
         21    1    1    2  502  501 -0.26044703999E+02 -0.45599257879E+02  0.38264856124E+02  0.64975519542E+02  0.00000000000E+00 0.  1.
<scales pt_clust_5="13000.00000" pt_clust_6="13000.00000" pt_clust_7="13000.00000" pt_clust_8="13000.00000" pt_clust_9="52.51304"></scales>
<clustering>
<clus scale="   52.513">  1  9  2 -1</clus>
<clus scale="   82.174">  5  6 -1 -1</clus>
<clus scale="   88.495">  7  8 -1 -1</clus>
<clus scale="  139.178">  1  5  2 -1</clus>
<clus scale="  143.001">  2  5  1 -1</clus>
</clustering>
</event>
<event>
 9    2  0.5608219E-005  0.1065652E+03  0.7546771E-02  0.1272718E+00
         -1   -1    0    0    0  501 -0.00000000000E+00  0.00000000000E+00  0.19538937075E+03  0.19538937075E+03  0.00000000000E+00 0.  1.
          2   -1    0    0  502    0  0.00000000000E+00 -0.00000000000E+00 -0.17433145447E+03  0.17433145447E+03  0.00000000000E+00 0. -1.
         24    2    1    2    0    0 -0.40867285799E+02 -0.45588196514E+02  0.10076773561E+03  0.14171655383E+03  0.78619503810E+02 0.  0.
         23    2    1    2    0    0  0.10616422906E+02  0.53275524089E+02 -0.13043201799E+03  0.16844798583E+03  0.91712718372E+02 0.  0.
        -13    1    3    3    0    0 -0.47314915425E+02 -0.59757571774E+02  0.10051583401E+03  0.12614714223E+03  0.00000000000E+00 0.  1.
         14    1    3    3    0    0  0.64476296257E+01  0.14169375260E+02  0.25190159650E+00  0.15569411597E+02  0.00000000000E+00 0. -1.
        -11    1    4    4    0    0  0.20525546196E+02  0.34904513908E+02 -0.44357871887E+01  0.40734498227E+02  0.00000000000E+00 0.  1.
         11    1    4    4    0    0 -0.99091232906E+01  0.18371010181E+02 -0.12599623081E+03  0.12771348761E+03  0.00000000000E+00 0. -1.
         21    1    1    2  502  501  0.30250862893E+02 -0.76873275757E+01  0.50722198665E+02  0.59556285550E+02  0.00000000000E+00 0.  1.
<scales pt_clust_5="13000.00000" pt_clust_6="13000.00000" pt_clust_7="13000.00000" pt_clust_8="13000.00000" pt_clust_9="31.21233"></scales>
<clustering>
<clus scale="   31.212">  1  9  2 -1</clus>
<clus scale="   78.620">  5  6 -1 -1</clus>
<clus scale="   91.713">  7  8 -1 -1</clus>
<clus scale="   95.530">  1  5  2 -1</clus>
<clus scale="  106.565">  2  5  1 -1</clus>
</clustering>
</event>
<event>
 9    2  0.5608219E-005  0.1402346E+03  0.7546771E-02  0.1217925E+00
          2   -1    0    0  502    0  0.00000000000E+00  0.00000000000E+00  0.77325307271E+02  0.77325307271E+02  0.00000000000E+00 0. -1.
         -1   -1    0    0    0  501 -0.00000000000E+00 -0.00000000000E+00 -0.40040444097E+03  0.40040444097E+03  0.00000000000E+00 0.  1.
         23    2    1    2    0    0  0.21735351995E+02  0.95413934828E+02 -0.26332070937E+03  0.29625057606E+03  0.94076369739E+02 0.  0.
         24    2    1    2    0    0 -0.37118394777E+02 -0.11825436799E+03 -0.44558857496E+02  0.15002523405E+03  0.71834589792E+02 0.  0.
        -11    1    4    4    0    0 -0.27176817354E+02 -0.20970649587E+02 -0.39175047278E+02  0.52086772551E+02  0.00000000000E+00 0.  1.
         12    1    4    4    0    0 -0.99415774224E+01 -0.97283718406E+02 -0.53838102186E+01  0.97938461500E+02  0.00000000000E+00 0. -1.
        -13    1    3    3    0    0 -0.11039688121E+02  0.40767749763E+02 -0.23971895482E+02  0.48564759935E+02  0.00000000000E+00 0. -1.
         13    1    3    3    0    0  0.32775040115E+02  0.54646185065E+02 -0.23934881389E+03  0.24768581612E+03  0.00000000000E+00 0.  1.
         21    1    1    2  502  501  0.15383042782E+02  0.22840433165E+02 -0.15199566835E+02  0.31453938138E+02  0.00000000000E+00 0.  1.
<scales pt_clust_5="13000.00000" pt_clust_6="13000.00000" pt_clust_7="13000.00000" pt_clust_8="13000.00000" pt_clust_9="27.53767"></scales>
<clustering>
<clus scale="   27.538">  1  9  2 -1</clus>
<clus scale="   71.835">  5  6 -1 -1</clus>
<clus scale="   94.076">  7  8 -1 -1</clus>
<clus scale="  126.395">  1  5  2 -1</clus>
<clus scale="   27.538">  1  5  2 -1</clus>
</clustering>
</event>
<event>
 9    2  0.5608219E-005  0.1521420E+03  0.7546771E-02  0.1199282E+00
          2   -1    0    0  502    0  0.00000000000E+00  0.00000000000E+00  0.40185966789E+03  0.40185966789E+03  0.00000000000E+00 0. -1.
         -1   -1    0    0    0  501 -0.00000000000E+00 -0.00000000000E+00 -0.19778146779E+03  0.19778146779E+03  0.00000000000E+00 0.  1.
         23    2    1    2    0    0 -0.59220159885E+02  0.38487467136E+02 -0.12505209470E+03  0.16824536076E+03  0.87636536708E+02 0.  0.
         24    2    1    2    0    0  0.13257661154E+03  0.98726419902E+01  0.30211368041E+03  0.33947316285E+03  0.79343086785E+02 0.  0.
        -13    1    4    4    0    0  0.96836796139E+02 -0.29546996825E+02  0.18671274532E+03  0.21239594952E+03  0.00000000000E+00 0.  1.
         14    1    4    4    0    0  0.35739815403E+02  0.39419638815E+02  0.11540093509E+03  0.12707721333E+03  0.00000000000E+00 0. -1.
        -13    1    3    3    0    0 -0.82419456224E+02  0.27805554591E+02 -0.95008123092E+02  0.12881249584E+03  0.00000000000E+00 0.  1.
         13    1    3    3    0    0  0.23199296339E+02  0.10681912544E+02 -0.30043971609E+02  0.39432864926E+02  0.00000000000E+00 0. -1.
         21    1    1    2  502  501 -0.73356451657E+02 -0.48360109126E+02  0.27016614389E+02  0.91922612057E+02  0.00000000000E+00 0.  1.
<scales pt_clust_5="13000.00000" pt_clust_6="13000.00000" pt_clust_7="13000.00000" pt_clust_8="13000.00000" pt_clust_9="87.86279"></scales>
<clustering>
<clus scale="   79.343">  5  6 -1 -1</clus>
<clus scale="   87.637">  7  8 -1 -1</clus>
<clus scale="   87.863">  2  9  1 -1</clus>
<clus scale="  147.521">  1  5  2 -1</clus>
<clus scale="  147.521">  1  5  2 -1</clus>
</clustering>
</event>
<event>
 9    2  0.5608219E-005  0.1027392E+03  0.7546771E-02  0.1276961E+00
          2   -1    0    0  502    0  0.00000000000E+00  0.00000000000E+00  0.33832080330E+03  0.33832080330E+03  0.00000000000E+00 0. -1.
         -1   -1    0    0    0  501 -0.00000000000E+00 -0.00000000000E+00 -0.60179415103E+03  0.60179415103E+03  0.00000000000E+00 0.  1.
         24    2    1    2    0    0 -0.58747681153E+01  0.85225997695E+01 -0.30147746861E+03  0.31203122953E+03  0.79797722491E+02 0.  0.
         23    2    1    2    0    0 -0.66151511137E+02  0.64336339351E+01  0.32081078211E+03  0.33586620058E+03  0.73953584794E+02 0.  0.
        -13    1    3    3    0    0 -0.12822208115E+01  0.44298659714E+02 -0.17306873381E+03  0.17865274127E+03  0.00000000000E+00 0.  1.
         14    1    3    3    0    0 -0.45925473038E+01 -0.35776059944E+02 -0.12840873480E+03  0.13337848826E+03  0.00000000000E+00 0. -1.
        -13    1    4    4    0    0 -0.49276136440E+02  0.36248396688E+02  0.15668787644E+03  0.16820575052E+03  0.00000000000E+00 0.  1.
         13    1    4    4    0    0 -0.16875374698E+02 -0.29814762753E+02  0.16412290567E+03  0.16766045006E+03  0.00000000000E+00 0. -1.
         21    1    1    2  502  501  0.72026279253E+02 -0.14956233705E+02 -0.28280666122E+03  0.29221752422E+03  0.00000000000E+00 0.  1.
<scales pt_clust_5="13000.00000" pt_clust_6="13000.00000" pt_clust_7="13000.00000" pt_clust_8="13000.00000" pt_clust_9="73.56272"></scales>
<clustering>
<clus scale="   73.563">  2  9  1 -1</clus>
<clus scale="   73.954">  7  8 -1 -1</clus>
<clus scale="   79.798">  5  6 -1 -1</clus>
<clus scale="   98.269">  1  7  2 -1</clus>
<clus scale="   98.269">  1  5  2 -1</clus>
</clustering>
</event>
<event>
 9    2  0.5608219E-005  0.1052795E+03  0.7546771E-02  0.1274452E+00
          4   -1    0    0  502    0  0.00000000000E+00  0.00000000000E+00  0.97049175529E+02  0.97049175529E+02  0.00000000000E+00 0. -1.
         -3   -1    0    0    0  501 -0.00000000000E+00 -0.00000000000E+00 -0.16051842189E+03  0.16051842189E+03  0.00000000000E+00 0.  1.
         23    2    1    2    0    0  0.38124088436E+01  0.35887863425E+02 -0.21892508193E+02  0.99922075236E+02  0.90568570719E+02 0.  0.
         24    2    1    2    0    0 -0.37472774496E+02 -0.62849185923E+02 -0.37664267633E+02  0.11434147442E+03  0.79379762636E+02 0.  0.
        -11    1    4    4    0    0  0.24644735267E+02 -0.11311142431E+02 -0.11924294232E+02  0.29622520359E+02  0.00000000000E+00 0.  1.
         12    1    4    4    0    0 -0.62117509763E+02 -0.51538043493E+02 -0.25739973401E+02  0.84718954060E+02  0.00000000000E+00 0. -1.
        -11    1    3    3    0    0 -0.26192963586E+02  0.33661234475E+02 -0.44987709623E+02  0.61992290367E+02  0.00000000000E+00 0. -1.
         11    1    3    3    0    0  0.30005372430E+02  0.22266289501E+01  0.23095201430E+02  0.37929784869E+02  0.00000000000E+00 0.  1.
         21    1    1    2  502  501  0.33660365653E+02  0.26961322498E+02 -0.39124705317E+01  0.43304047760E+02  0.00000000000E+00 0.  1.
<scales pt_clust_5="13000.00000" pt_clust_6="13000.00000" pt_clust_7="13000.00000" pt_clust_8="13000.00000" pt_clust_9="43.12694"></scales>
<clustering>
<clus scale="   43.127">  1  9  2 -1</clus>
<clus scale="   79.380">  5  6 -1 -1</clus>
<clus scale="   90.569">  7  8 -1 -1</clus>
<clus scale="   95.824">  1  5  2 -1</clus>
<clus scale="   43.127">  1  5  2 -1</clus>
</clustering>
</event>
<event>
 9    2  0.5608219E-005  0.1341947E+03  0.7546771E-02  0.1224591E+00
          2   -1    0    0  502    0  0.00000000000E+00  0.00000000000E+00  0.64179848797E+03  0.64179848797E+03  0.00000000000E+00 0. -1.
         -1   -1    0    0    0  501 -0.00000000000E+00 -0.00000000000E+00 -0.66980791112E+02  0.66980791112E+02  0.00000000000E+00 0.  1.
         23    2    1    2    0    0  0.97193811461E+02 -0.93939870690E+02  0.12247514059E+03  0.20428445529E+03  0.91981749923E+02 0.  0.
         24    2    1    2    0    0 -0.15551377822E+02  0.92136822777E+02  0.36513520205E+03  0.38502156075E+03  0.78656512776E+02 0.  0.
        -13    1    4    4    0    0 -0.39551515088E+02  0.52825652621E+02  0.13431477721E+03  0.14965069762E+03  0.00000000000E+00 0.  1.
         14    1    4    4    0    0  0.24000137266E+02  0.39311170155E+02  0.23082042484E+03  0.23537086313E+03  0.00000000000E+00 0. -1.
        -11    1    3    3    0    0  0.38618288192E+02 -0.60470778495E+02  0.90580781989E+01  0.72319679309E+02  0.00000000000E+00 0.  1.
         11    1    3    3    0    0  0.58575523269E+02 -0.33469092195E+02  0.11341706239E+03  0.13196477598E+03  0.00000000000E+00 0. -1.
         21    1    1    2  502  501 -0.81642433639E+02  0.18030479133E+01  0.87207354219E+02  0.11947326304E+03  0.00000000000E+00 0.  1.
<scales pt_clust_5="13000.00000" pt_clust_6="13000.00000" pt_clust_7="13000.00000" pt_clust_8="13000.00000" pt_clust_9="81.66234"></scales>
<clustering>
<clus scale="   78.657">  5  6 -1 -1</clus>
<clus scale="   81.662">  2  9  1 -1</clus>
<clus scale="   91.982">  7  8 -1 -1</clus>
<clus scale="  125.437">  1  5  2 -1</clus>
<clus scale="  125.437">  1  5  2 -1</clus>
</clustering>
</event>
<event>
 9    2  0.5608219E-005  0.1074597E+03  0.7546771E-02  0.1268889E+00
         -1   -1    0    0    0  501 -0.00000000000E+00  0.00000000000E+00  0.35057309907E+02  0.35057309907E+02  0.00000000000E+00 0.  1.
          2   -1    0    0  502    0  0.00000000000E+00 -0.00000000000E+00 -0.70929533429E+03  0.70929533429E+03  0.00000000000E+00 0. -1.
         23    2    1    2    0    0 -0.43049658469E+02 -0.81094802954E+00 -0.13995331378E+03  0.17171872998E+03  0.89702070525E+02 0.  0.
         24    2    1    2    0    0  0.63275083386E+02  0.11400738965E+02 -0.53941065235E+03  0.54923547914E+03  0.81006460555E+02 0.  0.
        -13    1    4    4    0    0 -0.15040949378E+02 -0.14473189212E+02 -0.10119189007E+03  0.10332232083E+03  0.00000000000E+00 0.  1.
         14    1    4    4    0    0  0.78316032764E+02  0.25873928177E+02 -0.43821876228E+03  0.44591315831E+03  0.00000000000E+00 0. -1.
        -13    1    3    3    0    0 -0.71599196349E+01 -0.43239377256E+02 -0.65558171854E+02  0.78859254951E+02  0.00000000000E+00 0.  1.
         13    1    3    3    0    0 -0.35889738834E+02  0.42428429226E+02 -0.74395141927E+02  0.92859475028E+02  0.00000000000E+00 0. -1.
         21    1    1    2  502  501 -0.20225424917E+02 -0.10589790935E+02  0.51259417493E+01  0.23398435075E+02  0.00000000000E+00 0.  1.
<scales pt_clust_5="13000.00000" pt_clust_6="13000.00000" pt_clust_7="13000.00000" pt_clust_8="13000.00000" pt_clust_9="22.83006"></scales>
<clustering>
<clus scale="   22.830">  1  9  2 -1</clus>
<clus scale="   81.006">  5  6 -1 -1</clus>
<clus scale="   89.702">  7  8 -1 -1</clus>
<clus scale="  100.315">  2  5  1 -1</clus>
<clus scale="  100.315">  2  5  1 -1</clus>
</clustering>
</event>
<event>
 9    2  0.5608219E-005  0.1058236E+03  0.7546771E-02  0.1272958E+00
         -1   -1    0    0    0  501 -0.00000000000E+00  0.00000000000E+00  0.24889905599E+03  0.24889905599E+03  0.00000000000E+00 0.  1.
          2   -1    0    0  502    0  0.00000000000E+00 -0.00000000000E+00 -0.12177341463E+03  0.12177341463E+03  0.00000000000E+00 0. -1.
         24    2    1    2    0    0  0.56040607456E+02 -0.39794790315E+02 -0.97252658188E+01  0.10606590278E+03  0.80194887101E+02 0.  0.
         23    2    1    2    0    0 -0.40193445081E+02  0.16994727328E+02 -0.22369161563E+02  0.10298353199E+03  0.90558791336E+02 0.  0.
        -11    1    3    3    0    0 -0.60680197554E+01 -0.34474010204E+02  0.16178403893E+02  0.38561885273E+02  0.00000000000E+00 0.  1.
         12    1    3    3    0    0  0.62108627211E+02 -0.53207801110E+01 -0.25903669712E+02  0.67504017507E+02  0.00000000000E+00 0. -1.
        -11    1    4    4    0    0 -0.32106003535E+02 -0.14814410207E+02  0.26449942486E+02  0.44157238028E+02  0.00000000000E+00 0.  1.
         11    1    4    4    0    0 -0.80874415461E+01  0.31809137535E+02 -0.48819104049E+02  0.58826293965E+02  0.00000000000E+00 0. -1.
         21    1    1    2  502  501 -0.15847162375E+02  0.22800062987E+02  0.15922006874E+03  0.16162303585E+03  0.00000000000E+00 0.  1.
<scales pt_clust_5="13000.00000" pt_clust_6="13000.00000" pt_clust_7="13000.00000" pt_clust_8="13000.00000" pt_clust_9="27.76644"></scales>
<clustering>
<clus scale="   27.766">  1  9  2 -1</clus>
<clus scale="   80.195">  5  6 -1 -1</clus>
<clus scale="   90.559">  7  8 -1 -1</clus>
<clus scale="   97.103">  1  5  2 -1</clus>
<clus scale="  105.824">  2  5  1 -1</clus>
</clustering>
</event>
<event>
 9    2  0.5608219E-005  0.1026351E+03  0.7546771E-02  0.1279485E+00
          2   -1    0    0  502    0  0.00000000000E+00  0.00000000000E+00  0.15452891115E+03  0.15452891115E+03  0.00000000000E+00 0. -1.
         -1   -1    0    0    0  501 -0.00000000000E+00 -0.00000000000E+00 -0.17316511736E+03  0.17316511736E+03  0.00000000000E+00 0.  1.
         24    2    1    2    0    0  0.22263742001E+02 -0.47358485825E+02 -0.12059399584E+03  0.15413547244E+03  0.80475658707E+02 0.  0.
         23    2    1    2    0    0  0.73241328608E+01  0.26249714553E+02  0.99358258778E+02  0.13711983869E+03  0.90482573670E+02 0.  0.
        -13    1    3    3    0    0  0.52185395981E+02 -0.30535312261E+02 -0.88218951092E+02  0.10695000786E+03  0.00000000000E+00 0.  1.
         14    1    3    3    0    0 -0.29921653980E+02 -0.16823173564E+02 -0.32375044751E+02  0.47185464587E+02  0.00000000000E+00 0. -1.
        -11    1    4    4    0    0 -0.59144864060E+01  0.55893696744E+02  0.38449588028E+02  0.68098878879E+02  0.00000000000E+00 0. -1.
         11    1    4    4    0    0  0.13238619267E+02 -0.29643982191E+02  0.60908670750E+02  0.69020959808E+02  0.00000000000E+00 0.  1.
         21    1    1    2  502  501 -0.29587874861E+02  0.21108771272E+02  0.25995308541E+01  0.36438717377E+02  0.00000000000E+00 0.  1.
<scales pt_clust_5="13000.00000" pt_clust_6="13000.00000" pt_clust_7="13000.00000" pt_clust_8="13000.00000" pt_clust_9="36.34587"></scales>
<clustering>
<clus scale="   36.346">  1  9  2 -1</clus>
<clus scale="   80.476">  5  6 -1 -1</clus>
<clus scale="   90.483">  7  8 -1 -1</clus>
<clus scale="   93.932">  2  5  1 -1</clus>
<clus scale="   36.346">  1  5  2 -1</clus>
</clustering>
</event>
<event>
 9    2  0.5608219E-005  0.1616773E+03  0.7546771E-02  0.1188817E+00
          2   -1    0    0  502    0  0.00000000000E+00  0.00000000000E+00  0.13873545060E+04  0.13873545060E+04  0.00000000000E+00 0. -1.
         -1   -1    0    0    0  501 -0.00000000000E+00 -0.00000000000E+00 -0.53350369306E+02  0.53350369306E+02  0.00000000000E+00 0.  1.
         23    2    1    2    0    0 -0.52492561170E+02  0.15490544750E+02  0.47596534185E+02  0.11557164262E+03  0.89977489162E+02 0.  0.
         24    2    1    2    0    0  0.14672075408E+03 -0.25025567382E+02  0.11296310716E+04  0.11419700551E+04  0.76655006551E+02 0.  0.
        -13    1    4    4    0    0  0.80608229658E+02 -0.27003855809E+01  0.34770953985E+03  0.35694103557E+03  0.00000000000E+00 0.  1.
         14    1    4    4    0    0  0.66112524420E+02 -0.22325181802E+02  0.78192153174E+03  0.78502901948E+03  0.00000000000E+00 0. -1.
        -11    1    3    3    0    0 -0.32179792705E+02  0.49351442069E+02  0.76628190119E+01  0.59412310913E+02  0.00000000000E+00 0.  1.
         11    1    3    3    0    0 -0.20312768465E+02 -0.33860897319E+02  0.39933715173E+02  0.56159331704E+02  0.00000000000E+00 0. -1.
         21    1    1    2  502  501 -0.94228192909E+02  0.95350226321E+01  0.15677653092E+03  0.18316317764E+03  0.00000000000E+00 0. -1.
<scales pt_clust_5="13000.00000" pt_clust_6="13000.00000" pt_clust_7="13000.00000" pt_clust_8="13000.00000" pt_clust_9="94.70939"></scales>
<clustering>
<clus scale="   76.655">  5  6 -1 -1</clus>
<clus scale="   89.977">  7  8 -1 -1</clus>
<clus scale="   94.709">  2  9  1 -1</clus>
<clus scale="  154.660">  1  5  2 -1</clus>
<clus scale="  154.660">  1  5  2 -1</clus>
</clustering>
</event>
<event>
 9    2  0.5608219E-005  0.1083223E+03  0.7546771E-02  0.1269139E+00
         -1   -1    0    0    0  501 -0.00000000000E+00  0.00000000000E+00  0.35106676048E+02  0.35106676048E+02  0.00000000000E+00 0.  1.
          2   -1    0    0  502    0  0.00000000000E+00 -0.00000000000E+00 -0.75562403800E+03  0.75562403800E+03  0.00000000000E+00 0. -1.
         23    2    1    2    0    0 -0.26751944614E+02 -0.68345448336E-01 -0.67480297535E+02  0.11833954247E+03  0.93461144569E+02 0.  0.
         24    2    1    2    0    0  0.58980914176E+02  0.57645252484E+01 -0.61088118255E+03  0.61902197335E+03  0.80625097301E+02 0.  0.
        -13    1    4    4    0    0 -0.31893813782E+01 -0.20680570205E+02 -0.51698592977E+02  0.55772776992E+02  0.00000000000E+00 0.  1.
         14    1    4    4    0    0  0.62170295554E+02  0.26445095453E+02 -0.55918258957E+03  0.56324919636E+03  0.00000000000E+00 0. -1.
        -11    1    3    3    0    0 -0.15841532784E+02  0.34522194502E+02 -0.72378652794E+02  0.81739864537E+02  0.00000000000E+00 0. -1.
         11    1    3    3    0    0 -0.10910411830E+02 -0.34590539950E+02  0.48983552595E+01  0.36599677930E+02  0.00000000000E+00 0.  1.
         21    1    1    2  502  501 -0.32228969562E+02 -0.56961798001E+01 -0.42155881872E+02  0.53369198231E+02  0.00000000000E+00 0.  1.
<scales pt_clust_5="13000.00000" pt_clust_6="13000.00000" pt_clust_7="13000.00000" pt_clust_8="13000.00000" pt_clust_9="32.72847"></scales>
<clustering>
<clus scale="   32.728">  1  9  2 -1</clus>
<clus scale="   80.625">  5  6 -1 -1</clus>
<clus scale="   93.461">  7  8 -1 -1</clus>
<clus scale="   97.464">  2  5  1 -1</clus>
<clus scale="   97.464">  2  5  1 -1</clus>
</clustering>
</event>
<event>
 9    2  0.5608219E-005  0.1878347E+03  0.7546771E-02  0.1161778E+00
         -1   -1    0    0    0  501 -0.00000000000E+00  0.00000000000E+00  0.14932279528E+03  0.14932279528E+03  0.00000000000E+00 0.  1.
          2   -1    0    0  502    0  0.00000000000E+00 -0.00000000000E+00 -0.44107815801E+03  0.44107815801E+03  0.00000000000E+00 0. -1.
         24    2    1    2    0    0  0.11936130258E+03  0.12178781284E+03 -0.12875671739E+03  0.22765016022E+03  0.78529683973E+02 0.  0.
         23    2    1    2    0    0 -0.96014717534E+02 -0.12882007500E+03 -0.22793335620E+03  0.29338918683E+03  0.91160091998E+02 0.  0.
        -11    1    3    3    0    0  0.57684377968E+02  0.10383888737E+03 -0.10687988434E+03  0.15979146307E+03  0.00000000000E+00 0.  1.
         12    1    3    3    0    0  0.61676924614E+02  0.17948925471E+02 -0.21876833048E+02  0.67858697155E+02  0.00000000000E+00 0. -1.
        -11    1    4    4    0    0 -0.29611571411E+02 -0.69296845649E+02 -0.39873431476E+02  0.85257190406E+02  0.00000000000E+00 0.  1.
         11    1    4    4    0    0 -0.66403146123E+02 -0.59523229354E+02 -0.18805992473E+03  0.20813199643E+03  0.00000000000E+00 0. -1.
         21    1    1    2  502  501 -0.23346585048E+02  0.70322621646E+01  0.64934710870E+02  0.69361606241E+02  0.00000000000E+00 0.  1.
<scales pt_clust_5="13000.00000" pt_clust_6="13000.00000" pt_clust_7="13000.00000" pt_clust_8="13000.00000" pt_clust_9="24.38269"></scales>
<clustering>
<clus scale="   24.383">  1  9  2 -1</clus>
<clus scale="   78.530">  5  6 -1 -1</clus>
<clus scale="   91.160">  7  8 -1 -1</clus>
<clus scale="  182.040">  1  5  2 -1</clus>
<clus scale="  187.835">  2  5  1 -1</clus>
</clustering>
</event>
<event>
 9    2  0.5608219E-005  0.1181287E+03  0.7546771E-02  0.1248564E+00
         -1   -1    0    0    0  501 -0.00000000000E+00  0.00000000000E+00  0.41720408659E+02  0.41720408659E+02  0.00000000000E+00 0.  1.
          2   -1    0    0  502    0  0.00000000000E+00 -0.00000000000E+00 -0.49451853276E+03  0.49451853276E+03  0.00000000000E+00 0. -1.
         24    2    1    2    0    0 -0.61548607718E+02  0.97834151335E+01 -0.10748430655E+03  0.14971891123E+03  0.83539989845E+02 0.  0.
         23    2    1    2    0    0  0.82834143207E+02  0.14142995367E+02 -0.32705372349E+03  0.34965570901E+03  0.90738399787E+02 0.  0.
        -11    1    3    3    0    0 -0.53219946744E+02  0.25538476491E+02 -0.22963139003E+02  0.63339421104E+02  0.00000000000E+00 0.  1.
         12    1    3    3    0    0 -0.83286609735E+01 -0.15755061357E+02 -0.84521167544E+02  0.86379490129E+02  0.00000000000E+00 0. -1.
        -11    1    4    4    0    0  0.20433406501E+02 -0.50931936995E+01 -0.58138540426E+01  0.21846409823E+02  0.00000000000E+00 0.  1.
         11    1    4    4    0    0  0.62400736706E+02  0.19236189066E+02 -0.32123986945E+03  0.32780929919E+03  0.00000000000E+00 0. -1.
         21    1    1    2  502  501 -0.21285535490E+02 -0.23926410500E+02 -0.18260094064E+02  0.36864321175E+02  0.00000000000E+00 0. -1.
<scales pt_clust_5="13000.00000" pt_clust_6="13000.00000" pt_clust_7="13000.00000" pt_clust_8="13000.00000" pt_clust_9="32.02416"></scales>
<clustering>
<clus scale="   32.024">  1  9  2 -1</clus>
<clus scale="   83.540">  5  6 -1 -1</clus>
<clus scale="   90.738">  7  8 -1 -1</clus>
<clus scale="  112.694">  1  5  2 -1</clus>
<clus scale="  118.129">  2  5  1 -1</clus>
</clustering>
</event>
<event>
 9    2  0.5608219E-005  0.1093569E+03  0.7546771E-02  0.1266851E+00
          2   -1    0    0  502    0  0.00000000000E+00  0.00000000000E+00  0.14739610497E+03  0.14739610497E+03  0.00000000000E+00 0. -1.
         -1   -1    0    0    0  501 -0.00000000000E+00 -0.00000000000E+00 -0.40706714882E+03  0.40706714882E+03  0.00000000000E+00 0.  1.
         23    2    1    2    0    0  0.29982548160E+02 -0.13141594779E+02 -0.16111750964E+03  0.18832494436E+03  0.91846491762E+02 0.  0.
         24    2    1    2    0    0 -0.39212844991E+02  0.48911581009E+02  0.11287674189E+03  0.15150501297E+03  0.79262980809E+02 0.  0.
        -11    1    4    4    0    0 -0.36414532482E+02 -0.10498489886E+02  0.25027427787E+02  0.45415951024E+02  0.00000000000E+00 0.  1.
         12    1    4    4    0    0 -0.27983125090E+01  0.59410070895E+02  0.87849314101E+02  0.10608906195E+03  0.00000000000E+00 0. -1.
        -13    1    3    3    0    0  0.56860691501E+02  0.94832118803E+01 -0.12643798207E+03  0.13895910498E+03  0.00000000000E+00 0. -1.
         13    1    3    3    0    0 -0.26878143341E+02 -0.22624806659E+02 -0.34679527564E+02  0.49365839382E+02  0.00000000000E+00 0.  1.
         21    1    1    2  502  501  0.92302968307E+01 -0.35769986230E+02 -0.21143027611E+03  0.21463329646E+03  0.00000000000E+00 0.  1.
<scales pt_clust_5="13000.00000" pt_clust_6="13000.00000" pt_clust_7="13000.00000" pt_clust_8="13000.00000" pt_clust_9="36.94171"></scales>
<clustering>
<clus scale="   36.942">  2  9  1 -1</clus>
<clus scale="   79.263">  5  6 -1 -1</clus>
<clus scale="   91.846">  7  8 -1 -1</clus>
<clus scale="   99.024">  1  5  2 -1</clus>
<clus scale="   99.024">  1  5  2 -1</clus>
</clustering>
</event>
<event>
 9    2  0.5608219E-005  0.1476503E+03  0.7546771E-02  0.1204996E+00
         -1   -1    0    0    0  501 -0.00000000000E+00  0.00000000000E+00  0.11901211682E+03  0.11901211682E+03  0.00000000000E+00 0.  1.
          2   -1    0    0  502    0  0.00000000000E+00 -0.00000000000E+00 -0.65312916888E+03  0.65312916888E+03  0.00000000000E+00 0. -1.
         24    2    1    2    0    0 -0.27202479045E+02 -0.80641187725E+02  0.53940042985E+02  0.13012895019E+03  0.82347066836E+02 0.  0.
         23    2    1    2    0    0  0.81958987794E+02  0.88486150698E+02 -0.55999935210E+03  0.57998769819E+03  0.90771036997E+02 0.  0.
        -13    1    3    3    0    0 -0.48857070218E+02 -0.31332509368E+02  0.65801374243E+01  0.58412649847E+02  0.00000000000E+00 0.  1.
         14    1    3    3    0    0  0.21654591174E+02 -0.49308678357E+02  0.47359905560E+02  0.71716300343E+02  0.00000000000E+00 0. -1.
        -13    1    4    4    0    0  0.68268987844E+02  0.16388515725E+02 -0.36380497132E+03  0.37051760458E+03  0.00000000000E+00 0.  1.
         13    1    4    4    0    0  0.13689999950E+02  0.72097634973E+02 -0.19619438078E+03  0.20947009361E+03  0.00000000000E+00 0. -1.
         21    1    1    2  502  501 -0.54756508749E+02 -0.78449629734E+01 -0.28057742950E+02  0.62024637314E+02  0.00000000000E+00 0. -1.
<scales pt_clust_5="13000.00000" pt_clust_6="13000.00000" pt_clust_7="13000.00000" pt_clust_8="13000.00000" pt_clust_9="55.31563"></scales>
<clustering>
<clus scale="   55.316">  1  9  2 -1</clus>
<clus scale="   82.347">  5  6 -1 -1</clus>
<clus scale="   90.771">  7  8 -1 -1</clus>
<clus scale="  142.626">  1  5  2 -1</clus>
<clus scale="  147.650">  2  5  1 -1</clus>
</clustering>
</event>
<event>
 9    2  0.5608219E-005  0.2210742E+03  0.7546771E-02  0.1133612E+00
         -1   -1    0    0    0  501 -0.00000000000E+00  0.00000000000E+00  0.39728498657E+03  0.39728498657E+03  0.00000000000E+00 0.  1.
          2   -1    0    0  502    0  0.00000000000E+00 -0.00000000000E+00 -0.47720746708E+03  0.47720746708E+03  0.00000000000E+00 0. -1.
         23    2    1    2    0    0 -0.60400682497E+02 -0.28633812394E+03  0.31733966298E+02  0.30608163179E+03  0.83911602516E+02 0.  0.
         24    2    1    2    0    0  0.14230596099E+02  0.18780231471E+03 -0.29322921372E+03  0.35672791688E+03  0.76152581220E+02 0.  0.
        -13    1    4    4    0    0  0.34112906082E+02  0.40086040960E+02 -0.96384586637E+02  0.10982062458E+03  0.00000000000E+00 0.  1.
         14    1    4    4    0    0 -0.19882309983E+02  0.14771627375E+03 -0.19684462708E+03  0.24690729230E+03  0.00000000000E+00 0. -1.
        -13    1    3    3    0    0 -0.28494372944E+02 -0.96962045623E+02 -0.28162516164E+02  0.10491279663E+03  0.00000000000E+00 0. -1.
         13    1    3    3    0    0 -0.31906309553E+02 -0.18937607831E+03  0.59896482462E+02  0.20116883516E+03  0.00000000000E+00 0.  1.
         21    1    1    2  502  501  0.46170086398E+02  0.98535809226E+02  0.18157276691E+03  0.21168290498E+03  0.00000000000E+00 0.  1.
<scales pt_clust_5="13000.00000" pt_clust_6="13000.00000" pt_clust_7="13000.00000" pt_clust_8="13000.00000" pt_clust_9="108.81628"></scales>
<clustering>
<clus scale="   76.153">  5  6 -1 -1</clus>
<clus scale="   83.912">  7  8 -1 -1</clus>
<clus scale="  108.816">  1  9  2 -1</clus>
<clus scale="  218.247">  2  5  1 -1</clus>
<clus scale="  218.247">  2  5  1 -1</clus>
</clustering>
</event>
<event>
 9    2  0.5608219E-005  0.1073102E+03  0.7546771E-02  0.1269361E+00
          2   -1    0    0  502    0  0.00000000000E+00  0.00000000000E+00  0.30479338473E+03  0.30479338473E+03  0.00000000000E+00 0. -1.
         -1   -1    0    0    0  501 -0.00000000000E+00 -0.00000000000E+00 -0.99617964604E+02  0.99617964604E+02  0.00000000000E+00 0.  1.
         24    2    1    2    0    0 -0.61403313657E+01 -0.34859587383E+02 -0.40857347037E+02  0.95360484811E+02  0.78558288898E+02 0.  0.
         23    2    1    2    0    0  0.56867907804E+02  0.37959861048E+02  0.23037318865E+03  0.25587078266E+03  0.87881405213E+02 0.  0.
        -11    1    3    3    0    0  0.27860970505E+02 -0.40108741422E+02 -0.11591597278E+02  0.50192727993E+02  0.00000000000E+00 0.  1.
         12    1    3    3    0    0 -0.34001301870E+02  0.52491540394E+01 -0.29265749758E+02  0.45167756817E+02  0.00000000000E+00 0. -1.
        -11    1    4    4    0    0  0.55810756055E+02  0.58478031714E+01  0.58665587440E+02  0.81183055147E+02  0.00000000000E+00 0.  1.
         11    1    4    4    0    0  0.10571517489E+01  0.32112057877E+02  0.17170760121E+03  0.17468772751E+03  0.00000000000E+00 0. -1.
         21    1    1    2  502  501 -0.50727576438E+02 -0.31002736654E+01  0.15659578519E+02  0.53180081868E+02  0.00000000000E+00 0.  1.
<scales pt_clust_5="13000.00000" pt_clust_6="13000.00000" pt_clust_7="13000.00000" pt_clust_8="13000.00000" pt_clust_9="50.82223"></scales>
<clustering>
<clus scale="   50.822">  2  9  1 -1</clus>
<clus scale="   78.558">  5  6 -1 -1</clus>
<clus scale="   87.881">  7  8 -1 -1</clus>
<clus scale="   99.818">  2  5  1 -1</clus>
<clus scale="  107.310">  1  5  2 -1</clus>
</clustering>
</event>
<event>
 9    2  0.5608219E-005  0.1300967E+03  0.7546771E-02  0.1246514E+00
          2   -1    0    0  502    0  0.00000000000E+00  0.00000000000E+00  0.30942236965E+03  0.30942236965E+03  0.00000000000E+00 0. -1.
         -1   -1    0    0    0  501 -0.00000000000E+00 -0.00000000000E+00 -0.14057509706E+03  0.14057509706E+03  0.00000000000E+00 0.  1.
         24    2    1    2    0    0  0.23193582139E+02  0.33579946665E+02 -0.67059783681E+02  0.11056604534E+03  0.77860649400E+02 0.  0.
         23    2    1    2    0    0  0.43748532787E+02 -0.90991019004E+02  0.20587429075E+03  0.24626895585E+03  0.89838050747E+02 0.  0.
        -11    1    3    3    0    0  0.13298195280E+02  0.44726734736E+02 -0.52171813965E+01  0.46952548169E+02  0.00000000000E+00 0.  1.
         12    1    3    3    0    0  0.98953868583E+01 -0.11146788071E+02 -0.61842602284E+02  0.63613497174E+02  0.00000000000E+00 0. -1.
        -11    1    4    4    0    0  0.52057343733E+01 -0.60215672787E+02  0.18140871925E+03  0.19121231744E+03  0.00000000000E+00 0.  1.
         11    1    4    4    0    0  0.38542798414E+02 -0.30775346217E+02  0.24465571501E+02  0.55056638412E+02  0.00000000000E+00 0. -1.
         21    1    1    2  502  501 -0.66942114926E+02  0.57411072339E+02  0.30032765521E+02  0.93162465525E+02  0.00000000000E+00 0. -1.
<scales pt_clust_5="13000.00000" pt_clust_6="13000.00000" pt_clust_7="13000.00000" pt_clust_8="13000.00000" pt_clust_9="94.09715"></scales>
<clustering>
<clus scale="   77.861">  5  6 -1 -1</clus>
<clus scale="   87.908">  2  5  1 -1</clus>
<clus scale="   89.838">  7  8 -1 -1</clus>
<clus scale="   94.097">  2  9  1 -1</clus>
<clus scale="  130.097">  1  5  2 -1</clus>
</clustering>
</event>
<event>
 9    2  0.5608219E-005  0.8523364E+02  0.7546771E-02  0.1314952E+00
          2   -1    0    0  502    0  0.00000000000E+00  0.00000000000E+00  0.47125352537E+03  0.47125352537E+03  0.00000000000E+00 0. -1.
         -1   -1    0    0    0  501 -0.00000000000E+00 -0.00000000000E+00 -0.55492698521E+02  0.55492698521E+02  0.00000000000E+00 0.  1.
         23    2    1    2    0    0 -0.25567578804E+02 -0.45810519970E+02  0.75876171338E+01  0.96634962912E+02  0.80798758019E+02 0.  0.
         24    2    1    2    0    0  0.78300277685E+01  0.23323125642E+02  0.38242553433E+03  0.39159832279E+03  0.80589574871E+02 0.  0.
        -13    1    4    4    0    0 -0.16351406904E+02  0.44277018917E+02  0.15787825576E+03  0.16478278597E+03  0.00000000000E+00 0.  1.
         14    1    4    4    0    0  0.24181434672E+02 -0.20953893276E+02  0.22454727858E+03  0.22681553682E+03  0.00000000000E+00 0. -1.
        -13    1    3    3    0    0  0.70314097906E+01 -0.58884247115E+02 -0.45428510606E+01  0.59476321152E+02  0.00000000000E+00 0. -1.
         13    1    3    3    0    0 -0.32598988595E+02  0.13073727145E+02  0.12130468194E+02  0.37158641760E+02  0.00000000000E+00 0.  1.
         21    1    1    2  502  501  0.17737551036E+02  0.22487394329E+02  0.25747675388E+02  0.38512938194E+02  0.00000000000E+00 0.  1.
<scales pt_clust_5="13000.00000" pt_clust_6="13000.00000" pt_clust_7="13000.00000" pt_clust_8="13000.00000" pt_clust_9="28.64094"></scales>
<clustering>
<clus scale="   28.641">  2  9  1 -1</clus>
<clus scale="   80.590">  5  6 -1 -1</clus>
<clus scale="   80.799">  7  8 -1 -1</clus>
<clus scale="   85.035">  1  5  2 -1</clus>
<clus scale="   85.035">  1  5  2 -1</clus>
</clustering>
</event>
<event>
 9    2  0.5608219E-005  0.1383130E+03  0.7546771E-02  0.1218192E+00
          2   -1    0    0  502    0  0.00000000000E+00  0.00000000000E+00  0.29170193774E+03  0.29170193774E+03  0.00000000000E+00 0. -1.
         -1   -1    0    0    0  501 -0.00000000000E+00 -0.00000000000E+00 -0.10308837915E+03  0.10308837915E+03  0.00000000000E+00 0.  1.
         23    2    1    2    0    0 -0.35430153645E+02 -0.88159578999E+02  0.87533921209E+01  0.13215942365E+03  0.91444432472E+02 0.  0.
         24    2    1    2    0    0 -0.87105512928E+01  0.11006090304E+03  0.15814147584E+03  0.20878136816E+03  0.79947840677E+02 0.  0.
        -13    1    4    4    0    0 -0.29901302867E+02  0.84372222188E+02  0.67190223700E+02  0.11192535884E+03  0.00000000000E+00 0.  1.
         14    1    4    4    0    0  0.21190751574E+02  0.25688680851E+02  0.90951252143E+02  0.96856009326E+02  0.00000000000E+00 0. -1.
        -11    1    3    3    0    0 -0.62340427314E+00 -0.94941220124E+02  0.15094517582E+02  0.96135676898E+02  0.00000000000E+00 0. -1.
         11    1    3    3    0    0 -0.34806749372E+02  0.67816411249E+01 -0.63411254610E+01  0.36023746755E+02  0.00000000000E+00 0.  1.
         21    1    1    2  502  501  0.44140704938E+02 -0.21901324040E+02  0.21718690626E+02  0.53849525064E+02  0.00000000000E+00 0. -1.
<scales pt_clust_5="13000.00000" pt_clust_6="13000.00000" pt_clust_7="13000.00000" pt_clust_8="13000.00000" pt_clust_9="49.27545"></scales>
<clustering>
<clus scale="   49.275">  2  9  1 -1</clus>
<clus scale="   79.948">  5  6 -1 -1</clus>
<clus scale="   91.444">  7  8 -1 -1</clus>
<clus scale="  130.996">  1  5  2 -1</clus>
<clus scale="  130.996">  1  5  2 -1</clus>
</clustering>
</event>
<event>
 9    2  0.5608219E-005  0.1130697E+03  0.7546771E-02  0.1259678E+00
          2   -1    0    0  502    0  0.00000000000E+00  0.00000000000E+00  0.17806165382E+03  0.17806165382E+03  0.00000000000E+00 0. -1.
         -1   -1    0    0    0  501 -0.00000000000E+00 -0.00000000000E+00 -0.31302257708E+03  0.31302257708E+03  0.00000000000E+00 0.  1.
         23    2    1    2    0    0  0.29446266235E+02  0.35316479097E+01 -0.22557706410E+03  0.24543801347E+03  0.92061129018E+02 0.  0.
         24    2    1    2    0    0  0.14521031917E+02 -0.70001559678E+02  0.12000309522E+03  0.16070526402E+03  0.79462949200E+02 0.  0.
        -11    1    4    4    0    0  0.20428513814E+02  0.74968230202E+01  0.57250383671E+01  0.22501168778E+02  0.00000000000E+00 0.  1.
         12    1    4    4    0    0 -0.59074818973E+01 -0.77498382699E+02  0.11427805685E+03  0.13820409524E+03  0.00000000000E+00 0. -1.
        -13    1    3    3    0    0 -0.16874079842E+02  0.33927888815E+02 -0.12492377193E+03  0.13054418793E+03  0.00000000000E+00 0. -1.
         13    1    3    3    0    0  0.46320346077E+02 -0.30396240905E+02 -0.10065329217E+03  0.11489382554E+03  0.00000000000E+00 0.  1.
         21    1    1    2  502  501 -0.43967298152E+02  0.66469911769E+02 -0.29386954381E+02  0.84940953403E+02  0.00000000000E+00 0.  1.
<scales pt_clust_5="13000.00000" pt_clust_6="13000.00000" pt_clust_7="13000.00000" pt_clust_8="13000.00000" pt_clust_9="79.69550"></scales>
<clustering>
<clus scale="   79.463">  5  6 -1 -1</clus>
<clus scale="   79.695">  2  9  1 -1</clus>
<clus scale="   92.061">  7  8 -1 -1</clus>
<clus scale="  103.072">  1  5  2 -1</clus>
<clus scale="  103.072">  1  5  2 -1</clus>
</clustering>
</event>
<event>
 9    2  0.5608219E-005  0.1690764E+03  0.7546771E-02  0.1181720E+00
         -1   -1    0    0    0  501 -0.00000000000E+00  0.00000000000E+00  0.61136809669E+02  0.61136809669E+02  0.00000000000E+00 0.  1.
          2   -1    0    0  502    0  0.00000000000E+00 -0.00000000000E+00 -0.59774955022E+03  0.59774955022E+03  0.00000000000E+00 0. -1.
         23    2    1    2    0    0 -0.76619030799E+02  0.11493590814E+03 -0.15523822002E+03  0.22735022723E+03  0.92241433243E+02 0.  0.
         24    2    1    2    0    0  0.10050891986E+03 -0.10326197688E+03 -0.36858404438E+03  0.40203013748E+03  0.70773970028E+02 0.  0.
        -11    1    4    4    0    0  0.89425087425E+02 -0.45394762503E+02 -0.25639444484E+03  0.27531008348E+03  0.00000000000E+00 0.  1.
         12    1    4    4    0    0  0.11083832440E+02 -0.57867214372E+02 -0.11218959954E+03  0.12672005400E+03  0.00000000000E+00 0. -1.
        -13    1    3    3    0    0 -0.49348246553E+02  0.91094066632E+01 -0.21379129237E+02  0.54546291299E+02  0.00000000000E+00 0.  1.
         13    1    3    3    0    0 -0.27270784246E+02  0.10582650148E+03 -0.13385909078E+03  0.17280393593E+03  0.00000000000E+00 0. -1.
         21    1    1    2  502  501 -0.23889889066E+02 -0.11673931269E+02 -0.12790476149E+02  0.29505995170E+02  0.00000000000E+00 0. -1.
<scales pt_clust_5="13000.00000" pt_clust_6="13000.00000" pt_clust_7="13000.00000" pt_clust_8="13000.00000" pt_clust_9="26.58961"></scales>
<clustering>
<clus scale="   26.590">  1  9  2 -1</clus>
<clus scale="   70.774">  5  6 -1 -1</clus>
<clus scale="   92.241">  7  8 -1 -1</clus>
<clus scale="  158.390">  2  5  1 -1</clus>
<clus scale="  158.390">  2  5  1 -1</clus>
</clustering>
</event>
<event>
 9    2  0.5608219E-005  0.1411610E+03  0.7546771E-02  0.1232424E+00
         -1   -1    0    0    0  501 -0.00000000000E+00  0.00000000000E+00  0.33399641279E+02  0.33399641279E+02  0.00000000000E+00 0.  1.
          2   -1    0    0  502    0  0.00000000000E+00 -0.00000000000E+00 -0.14718933735E+04  0.14718933735E+04  0.00000000000E+00 0. -1.
         23    2    1    2    0    0  0.12060694596E+03  0.13210286364E+02 -0.21786540902E+03  0.26536284193E+03  0.90727913829E+02 0.  0.
         24    2    1    2    0    0 -0.27825148022E+02 -0.27363131177E+02 -0.93043797960E+03  0.93493968027E+03  0.82911953620E+02 0.  0.
        -11    1    4    4    0    0 -0.20893819137E+01 -0.22854564492E+02 -0.62040390506E+02  0.66149124628E+02  0.00000000000E+00 0.  1.
         12    1    4    4    0    0 -0.25735766108E+02 -0.45085666852E+01 -0.86839758910E+03  0.86879055565E+03  0.00000000000E+00 0. -1.
        -11    1    3    3    0    0  0.50255047920E+02  0.22523393594E+02 -0.26209288029E+02  0.60990162152E+02  0.00000000000E+00 0.  1.
         11    1    3    3    0    0  0.70351898042E+02 -0.93131072299E+01 -0.19165612100E+03  0.20437267978E+03  0.00000000000E+00 0. -1.
         21    1    1    2  502  501 -0.92781797940E+02  0.14152844813E+02 -0.29019034357E+03  0.30499049255E+03  0.00000000000E+00 0. -1.
<scales pt_clust_5="13000.00000" pt_clust_6="13000.00000" pt_clust_7="13000.00000" pt_clust_8="13000.00000" pt_clust_9="108.14284"></scales>
<clustering>
<clus scale="   82.912">  5  6 -1 -1</clus>
<clus scale="   90.728">  7  8 -1 -1</clus>
<clus scale="   91.637">  2  5  1 -1</clus>
<clus scale="  108.143">  2  9  1 -1</clus>
<clus scale="   91.637">  2  5  1 -1</clus>
</clustering>
</event>
<event>
 9    2  0.5608219E-005  0.1515222E+03  0.7546771E-02  0.1221812E+00
          2   -1    0    0  502    0  0.00000000000E+00  0.00000000000E+00  0.70019443426E+03  0.70019443426E+03  0.00000000000E+00 0. -1.
         -1   -1    0    0    0  501 -0.00000000000E+00 -0.00000000000E+00 -0.11573238034E+03  0.11573238034E+03  0.00000000000E+00 0.  1.
         23    2    1    2    0    0  0.84826787865E+02 -0.18145003751E+02  0.34813182402E+03  0.37029223943E+03  0.91628328523E+02 0.  0.
         24    2    1    2    0    0  0.24147807647E+02 -0.42779269417E+02  0.29396224597E+03  0.30812574343E+03  0.78195199345E+02 0.  0.
        -13    1    4    4    0    0 -0.26101573538E+02 -0.26962858031E+02  0.90905839506E+02  0.98347137786E+02  0.00000000000E+00 0.  1.
         14    1    4    4    0    0  0.50249381185E+02 -0.15816411386E+02  0.20305640647E+03  0.20977860564E+03  0.00000000000E+00 0. -1.
        -11    1    3    3    0    0  0.99830513922E+02  0.21129497388E+01  0.25633086188E+03  0.27509290579E+03  0.00000000000E+00 0.  1.
         11    1    3    3    0    0 -0.15003726058E+02 -0.20257953490E+02  0.91800962144E+02  0.95199333641E+02  0.00000000000E+00 0. -1.
         21    1    1    2  502  501 -0.10897459551E+03  0.60924273168E+02 -0.57632016071E+02  0.13750883173E+03  0.00000000000E+00 0.  1.
<scales pt_clust_5="13000.00000" pt_clust_6="13000.00000" pt_clust_7="13000.00000" pt_clust_8="13000.00000" pt_clust_9="120.67816"></scales>
<clustering>
<clus scale="   78.195">  5  6 -1 -1</clus>
<clus scale="   91.628">  7  8 -1 -1</clus>
<clus scale="   92.345">  1  5  2 -1</clus>
<clus scale="  120.678">  2  9  1 -1</clus>
<clus scale="   92.345">  1  5  2 -1</clus>
</clustering>
</event>
<event>
 9    2  0.5608219E-005  0.2049011E+03  0.7546771E-02  0.1146247E+00
         -1   -1    0    0    0  501 -0.00000000000E+00  0.00000000000E+00  0.40479119309E+03  0.40479119309E+03  0.00000000000E+00 0.  1.
          2   -1    0    0  502    0  0.00000000000E+00 -0.00000000000E+00 -0.55753331438E+03  0.55753331438E+03  0.00000000000E+00 0. -1.
         23    2    1    2    0    0 -0.46125103188E+02  0.11805292118E+03 -0.37380628327E+02  0.15915534518E+03  0.88707920623E+02 0.  0.
         24    2    1    2    0    0  0.10904214807E+03 -0.18255659467E+03 -0.42414863155E+03  0.48150353561E+03  0.82015198877E+02 0.  0.
        -11    1    4    4    0    0  0.10626776297E+02 -0.82489816471E+02 -0.11438491782E+03  0.14142633284E+03  0.00000000000E+00 0.  1.
         12    1    4    4    0    0  0.98415371775E+02 -0.10006677820E+03 -0.30976371374E+03  0.34007720278E+03  0.00000000000E+00 0. -1.
        -13    1    3    3    0    0  0.72474852842E+01  0.92593356035E+02 -0.37122956639E+02  0.10002084550E+03  0.00000000000E+00 0.  1.
         13    1    3    3    0    0 -0.53372588472E+02  0.25459565147E+02 -0.25767168888E+00  0.59134499680E+02  0.00000000000E+00 0. -1.
         21    1    1    2  502  501 -0.62917044885E+02  0.64503673486E+02  0.30878713859E+03  0.32166562668E+03  0.00000000000E+00 0.  1.
<scales pt_clust_5="13000.00000" pt_clust_6="13000.00000" pt_clust_7="13000.00000" pt_clust_8="13000.00000" pt_clust_9="90.10704"></scales>
<clustering>
<clus scale="   82.015">  5  6 -1 -1</clus>
<clus scale="   88.708">  7  8 -1 -1</clus>
<clus scale="   90.107">  1  9  2 -1</clus>
<clus scale="  202.094">  2  5  1 -1</clus>
<clus scale="  202.094">  2  5  1 -1</clus>
</clustering>
</event>
<event>
 9    2  0.5608219E-005  0.9517861E+02  0.7546771E-02  0.1298441E+00
         -1   -1    0    0    0  501 -0.00000000000E+00  0.00000000000E+00  0.52063208613E+02  0.52063208613E+02  0.00000000000E+00 0.  1.
          2   -1    0    0  502    0  0.00000000000E+00 -0.00000000000E+00 -0.65406039325E+03  0.65406039325E+03  0.00000000000E+00 0. -1.
         23    2    1    2    0    0 -0.37129542391E+02 -0.17269154925E+02 -0.20969152372E+03  0.23387655635E+03  0.95136122790E+02 0.  0.
         24    2    1    2    0    0 -0.10779950739E+02 -0.91668062512E+01 -0.40705965703E+03  0.41557377160E+03  0.82484893075E+02 0.  0.
        -13    1    4    4    0    0 -0.78200976771E+01 -0.30966370325E+02 -0.61357660085E+02  0.69172483474E+02  0.00000000000E+00 0.  1.
         14    1    4    4    0    0 -0.29598530623E+01  0.21799564074E+02 -0.34570199694E+03  0.34640128813E+03  0.00000000000E+00 0. -1.
        -13    1    3    3    0    0  0.27836340436E+02  0.18668222806E+00 -0.25370991930E+02  0.37664093387E+02  0.00000000000E+00 0.  1.
         13    1    3    3    0    0 -0.64965882827E+02 -0.17455837153E+02 -0.18432053179E+03  0.19621246296E+03  0.00000000000E+00 0. -1.
         21    1    1    2  502  501  0.47909493130E+02  0.26435961176E+02  0.14753996110E+02  0.56673273917E+02  0.00000000000E+00 0.  1.
<scales pt_clust_5="13000.00000" pt_clust_6="13000.00000" pt_clust_7="13000.00000" pt_clust_8="13000.00000" pt_clust_9="54.71910"></scales>
<clustering>
<clus scale="   54.719">  1  9  2 -1</clus>
<clus scale="   82.485">  5  6 -1 -1</clus>
<clus scale="   82.534">  2  5  1 -1</clus>
<clus scale="   95.136">  7  8 -1 -1</clus>
<clus scale="   82.534">  2  5  1 -1</clus>
</clustering>
</event>
<event>
 9    2  0.5608219E-005  0.1337182E+03  0.7546771E-02  0.1223843E+00
         -1   -1    0    0    0  501 -0.00000000000E+00  0.00000000000E+00  0.11447686921E+03  0.11447686921E+03  0.00000000000E+00 0.  1.
          2   -1    0    0  502    0  0.00000000000E+00 -0.00000000000E+00 -0.96600017343E+03  0.96600017343E+03  0.00000000000E+00 0. -1.
         23    2    1    2    0    0 -0.98954222778E+02 -0.83663036480E+02  0.17057512971E+02  0.15880099169E+03  0.90196199105E+02 0.  0.
         24    2    1    2    0    0  0.69515842569E+02  0.67816233223E+02 -0.87778141173E+03  0.88700055035E+03  0.82693867185E+02 0.  0.
        -11    1    4    4    0    0  0.15264929419E+02  0.65676742445E+02 -0.35014456110E+03  0.35657771416E+03  0.00000000000E+00 0.  1.
         12    1    4    4    0    0  0.54250913150E+02  0.21394907773E+01 -0.52763685064E+03  0.53042283619E+03  0.00000000000E+00 0. -1.
        -11    1    3    3    0    0 -0.97367751688E+02 -0.52980938849E+02  0.42694258922E+02  0.11878660991E+03  0.00000000000E+00 0.  1.
         11    1    3    3    0    0 -0.15864710899E+01 -0.30682097631E+02 -0.25636745951E+02  0.40014381771E+02  0.00000000000E+00 0. -1.
         21    1    1    2  502  501  0.29438380209E+02  0.15846803257E+02  0.92005945367E+01  0.34675500611E+02  0.00000000000E+00 0. -1.
<scales pt_clust_5="13000.00000" pt_clust_6="13000.00000" pt_clust_7="13000.00000" pt_clust_8="13000.00000" pt_clust_9="33.43261"></scales>
<clustering>
<clus scale="   33.433">  1  9  2 -1</clus>
<clus scale="   82.694">  5  6 -1 -1</clus>
<clus scale="   90.196">  7  8 -1 -1</clus>
<clus scale="  128.777">  2  5  1 -1</clus>
<clus scale="  128.777">  2  5  1 -1</clus>
</clustering>
</event>
<event>
 9    2  0.5608219E-005  0.1247175E+03  0.7546771E-02  0.1239520E+00
         -1   -1    0    0    0  501 -0.00000000000E+00  0.00000000000E+00  0.94821980834E+02  0.94821980834E+02  0.00000000000E+00 0.  1.
          2   -1    0    0  502    0  0.00000000000E+00 -0.00000000000E+00 -0.32785423660E+03  0.32785423660E+03  0.00000000000E+00 0. -1.
         24    2    1    2    0    0 -0.19846307304E+02 -0.10071442489E+03  0.38269962854E+01  0.12924277757E+03  0.78433273286E+02 0.  0.
         23    2    1    2    0    0  0.23132587986E+02  0.28572717966E+02 -0.15725935494E+03  0.18595614395E+03  0.92182785362E+02 0.  0.
        -13    1    3    3    0    0  0.23009459681E+02 -0.34351268960E+02 -0.21082897554E+02  0.46410488936E+02  0.00000000000E+00 0.  1.
         14    1    3    3    0    0 -0.42855766985E+02 -0.66363155927E+02  0.24909893840E+02  0.82832288630E+02  0.00000000000E+00 0. -1.
        -11    1    4    4    0    0  0.47986421019E+02  0.15790402318E+01 -0.38152370653E+02  0.61325307636E+02  0.00000000000E+00 0.  1.
         11    1    4    4    0    0 -0.24853833032E+02  0.26993677734E+02 -0.11910698429E+03  0.12463083631E+03  0.00000000000E+00 0. -1.
         21    1    1    2  502  501 -0.32862806824E+01  0.72141706922E+02 -0.79599897114E+02  0.10747729592E+03  0.00000000000E+00 0.  1.
<scales pt_clust_5="13000.00000" pt_clust_6="13000.00000" pt_clust_7="13000.00000" pt_clust_8="13000.00000" pt_clust_9="72.21652"></scales>
<clustering>
<clus scale="   72.217">  2  9  1 -1</clus>
<clus scale="   78.433">  5  6 -1 -1</clus>
<clus scale="   92.183">  7  8 -1 -1</clus>
<clus scale="  114.928">  1  5  2 -1</clus>
<clus scale="   72.217">  2  5  1 -1</clus>
</clustering>
</event>
<event>
 9    2  0.5608219E-005  0.9502166E+02  0.7546771E-02  0.1296697E+00
         -1   -1    0    0    0  501 -0.00000000000E+00  0.00000000000E+00  0.17805570439E+03  0.17805570439E+03  0.00000000000E+00 0.  1.
          2   -1    0    0  502    0  0.00000000000E+00 -0.00000000000E+00 -0.74182362963E+03  0.74182362963E+03  0.00000000000E+00 0. -1.
         23    2    1    2    0    0  0.74474529084E+02  0.49454015589E+02  0.46358917720E+02  0.13478918573E+03  0.89592523112E+02 0.  0.
         24    2    1    2    0    0 -0.43269336312E+01 -0.30475269889E+02 -0.67937231296E+03  0.68471179876E+03  0.79599267062E+02 0.  0.
        -11    1    4    4    0    0 -0.30241056815E+02  0.10748652350E+02 -0.16888726786E+03  0.17190975624E+03  0.00000000000E+00 0.  1.
         12    1    4    4    0    0  0.25914123184E+02 -0.41223922239E+02 -0.51048504510E+03  0.51280204252E+03  0.00000000000E+00 0. -1.
        -13    1    3    3    0    0  0.43677793307E+02 -0.18403165674E+02  0.36076162737E+02  0.59564382418E+02  0.00000000000E+00 0.  1.
         13    1    3    3    0    0  0.30796735777E+02  0.67857181263E+02  0.10282754983E+02  0.75224803313E+02  0.00000000000E+00 0. -1.
         21    1    1    2  502  501 -0.70147595453E+02 -0.18978745700E+02  0.69245470009E+02  0.10037834952E+03  0.00000000000E+00 0.  1.
<scales pt_clust_5="13000.00000" pt_clust_6="13000.00000" pt_clust_7="13000.00000" pt_clust_8="13000.00000" pt_clust_9="72.66965"></scales>
<clustering>
<clus scale="   72.670">  1  9  2 -1</clus>
<clus scale="   79.599">  5  6 -1 -1</clus>
<clus scale="   85.664">  2  5  1 -1</clus>
<clus scale="   89.593">  7  8 -1 -1</clus>
<clus scale="   85.664">  2  5  1 -1</clus>
</clustering>
</event>
<event>
 9    2  0.5608219E-005  0.1540671E+03  0.7546771E-02  0.1199323E+00
         -1   -1    0    0    0  501 -0.00000000000E+00  0.00000000000E+00  0.72627705578E+02  0.72627705578E+02  0.00000000000E+00 0.  1.
          2   -1    0    0  502    0  0.00000000000E+00 -0.00000000000E+00 -0.10703161909E+04  0.10703161909E+04  0.00000000000E+00 0. -1.
         23    2    1    2    0    0  0.12417882240E+03 -0.90350809581E+02 -0.10921986310E+03  0.21088516990E+03  0.94656894429E+02 0.  0.
         24    2    1    2    0    0 -0.10707120538E+03  0.50440096778E+02 -0.87584543505E+03  0.88683837264E+03  0.73270913078E+02 0.  0.
        -11    1    4    4    0    0 -0.59992083690E+02  0.58997086666E+02 -0.41019119794E+03  0.41873204464E+03  0.00000000000E+00 0.  1.
         12    1    4    4    0    0 -0.47079121690E+02 -0.85569898885E+01 -0.46565423710E+03  0.46810632799E+03  0.00000000000E+00 0. -1.
        -13    1    3    3    0    0  0.85581037667E+02 -0.81730823496E+01 -0.74239307091E+02  0.11358867902E+03  0.00000000000E+00 0.  1.
         13    1    3    3    0    0  0.38597784730E+02 -0.82177727231E+02 -0.34980556007E+02  0.97296490880E+02  0.00000000000E+00 0. -1.
         21    1    1    2  502  501 -0.17107617016E+02  0.39910712803E+02 -0.12623187175E+02  0.45220353945E+02  0.00000000000E+00 0.  1.
<scales pt_clust_5="13000.00000" pt_clust_6="13000.00000" pt_clust_7="13000.00000" pt_clust_8="13000.00000" pt_clust_9="43.42275"></scales>
<clustering>
<clus scale="   43.423">  1  9  2 -1</clus>
<clus scale="   73.271">  5  6 -1 -1</clus>
<clus scale="   94.657">  7  8 -1 -1</clus>
<clus scale="  141.934">  2  5  1 -1</clus>
<clus scale="  141.934">  2  5  1 -1</clus>
</clustering>
</event>
<event>
 9    2  0.5608219E-005  0.9720217E+02  0.7546771E-02  0.1291465E+00
          2   -1    0    0  502    0  0.00000000000E+00  0.00000000000E+00  0.38220662038E+03  0.38220662038E+03  0.00000000000E+00 0. -1.
         -1   -1    0    0    0  501 -0.00000000000E+00 -0.00000000000E+00 -0.73586962469E+02  0.73586962469E+02  0.00000000000E+00 0.  1.
         23    2    1    2    0    0 -0.19866853353E+02 -0.18177333004E+02 -0.23830123171E+01  0.97133624974E+02  0.93296061308E+02 0.  0.
         24    2    1    2    0    0  0.28157133449E+02 -0.14349051663E+01  0.32252737823E+03  0.33444864802E+03  0.83887456387E+02 0.  0.
        -13    1    4    4    0    0  0.38103227153E+02  0.29342775478E+02  0.11872559647E+03  0.12809614221E+03  0.00000000000E+00 0.  1.
         14    1    4    4    0    0 -0.99460937044E+01 -0.30777680644E+02  0.20380178176E+03  0.20635250582E+03  0.00000000000E+00 0. -1.
        -11    1    3    3    0    0 -0.54015042038E+02  0.63389205158E+01 -0.70381114718E+01  0.54839234976E+02  0.00000000000E+00 0.  1.
         11    1    3    3    0    0  0.34148188685E+02 -0.24516253520E+02  0.46550991547E+01  0.42294389998E+02  0.00000000000E+00 0. -1.
         21    1    1    2  502  501 -0.82902800961E+01  0.19612238170E+02 -0.11524708003E+02  0.24211309851E+02  0.00000000000E+00 0.  1.
<scales pt_clust_5="13000.00000" pt_clust_6="13000.00000" pt_clust_7="13000.00000" pt_clust_8="13000.00000" pt_clust_9="21.29245"></scales>
<clustering>
<clus scale="   21.292">  2  9  1 -1</clus>
<clus scale="   83.887">  5  6 -1 -1</clus>
<clus scale="   88.211">  1  5  2 -1</clus>
<clus scale="   93.296">  7  8 -1 -1</clus>
<clus scale="   88.211">  1  5  2 -1</clus>
</clustering>
</event>
<event>
 9    2  0.5608219E-005  0.1057928E+03  0.7546771E-02  0.1274235E+00
          2   -1    0    0  502    0  0.00000000000E+00  0.00000000000E+00  0.70580641263E+02  0.70580641263E+02  0.00000000000E+00 0. -1.
         -1   -1    0    0    0  501 -0.00000000000E+00 -0.00000000000E+00 -0.19148395045E+03  0.19148395045E+03  0.00000000000E+00 0.  1.
         23    2    1    2    0    0 -0.45120529807E+02 -0.42370836684E+02 -0.62738858113E+02  0.12717477035E+03  0.91684829092E+02 0.  0.
         24    2    1    2    0    0  0.21560863238E+02  0.43095240379E+02 -0.27787561846E+02  0.96440659487E+02  0.78781861123E+02 0.  0.
        -11    1    4    4    0    0  0.39098196984E+02  0.56473935552E+02 -0.28514078114E+02  0.74370875044E+02  0.00000000000E+00 0.  1.
         12    1    4    4    0    0 -0.17537333746E+02 -0.13378695173E+02  0.72651626769E+00  0.22069784443E+02  0.00000000000E+00 0. -1.
        -11    1    3    3    0    0  0.21461300244E+02 -0.33014189831E+02 -0.40173002051E+02  0.56252948653E+02  0.00000000000E+00 0.  1.
         11    1    3    3    0    0 -0.66581830052E+02 -0.93566468524E+01 -0.22565856062E+02  0.70921821699E+02  0.00000000000E+00 0. -1.
         21    1    1    2  502  501  0.23559666569E+02 -0.72440369526E+00 -0.30376889224E+02  0.38449161870E+02  0.00000000000E+00 0.  1.
<scales pt_clust_5="13000.00000" pt_clust_6="13000.00000" pt_clust_7="13000.00000" pt_clust_8="13000.00000" pt_clust_9="23.57080"></scales>
<clustering>
<clus scale="   23.571">  2  9  1 -1</clus>
<clus scale="   78.782">  5  6 -1 -1</clus>
<clus scale="   91.685">  7  8 -1 -1</clus>
<clus scale="   94.829">  1  5  2 -1</clus>
<clus scale="   94.829">  1  5  2 -1</clus>
</clustering>
</event>
<event>
 9    2  0.5608219E-005  0.1148735E+03  0.7546771E-02  0.1254699E+00
          2   -1    0    0  502    0  0.00000000000E+00  0.00000000000E+00  0.80126594902E+03  0.80126594902E+03  0.00000000000E+00 0. -1.
         -1   -1    0    0    0  501 -0.00000000000E+00 -0.00000000000E+00 -0.25398891981E+02  0.25398891981E+02  0.00000000000E+00 0.  1.
         23    2    1    2    0    0  0.21616359474E+01  0.68593944763E+02  0.19738761123E+03  0.22719038027E+03  0.89127986002E+02 0.  0.
         24    2    1    2    0    0 -0.22313298056E+02 -0.71100114716E+02  0.56385068092E+03  0.57444705305E+03  0.80676618650E+02 0.  0.
        -11    1    4    4    0    0 -0.24903539667E+02 -0.75428321850E+02  0.29378001836E+03  0.30432929075E+03  0.00000000000E+00 0.  1.
         12    1    4    4    0    0  0.25902416111E+01  0.43282071331E+01  0.27007066256E+03  0.27011776229E+03  0.00000000000E+00 0. -1.
        -13    1    3    3    0    0  0.39989824758E+02  0.54569136237E+02  0.15252221134E+03  0.16685323391E+03  0.00000000000E+00 0. -1.
         13    1    3    3    0    0 -0.37828188810E+02  0.14024808527E+02  0.44865399891E+02  0.60337146355E+02  0.00000000000E+00 0.  1.
         21    1    1    2  502  501  0.20151662109E+02  0.25061699534E+01  0.14628764889E+02  0.25027407692E+02  0.00000000000E+00 0. -1.
<scales pt_clust_5="13000.00000" pt_clust_6="13000.00000" pt_clust_7="13000.00000" pt_clust_8="13000.00000" pt_clust_9="20.30690"></scales>
<clustering>
<clus scale="   20.307">  2  9  1 -1</clus>
<clus scale="   80.677">  5  6 -1 -1</clus>
<clus scale="   89.128">  7  8 -1 -1</clus>
<clus scale="  108.447">  1  5  2 -1</clus>
<clus scale="  108.447">  1  5  2 -1</clus>
</clustering>
</event>
<event>
 9    2  0.5608219E-005  0.1218698E+03  0.7546771E-02  0.1242526E+00
          2   -1    0    0  502    0  0.00000000000E+00  0.00000000000E+00  0.46095466397E+03  0.46095466397E+03  0.00000000000E+00 0. -1.
         -1   -1    0    0    0  501 -0.00000000000E+00 -0.00000000000E+00 -0.63844781855E+02  0.63844781855E+02  0.00000000000E+00 0.  1.
         23    2    1    2    0    0  0.52603326368E+02 -0.22625228773E+02  0.24931939047E+02  0.10983392437E+03  0.90348649332E+02 0.  0.
         24    2    1    2    0    0 -0.89309224119E+02 -0.10406323586E+02  0.32337360747E+03  0.34553736035E+03  0.82104496267E+02 0.  0.
        -11    1    4    4    0    0 -0.21347343054E+02  0.49519382826E+01  0.92623315388E+01  0.23791207068E+02  0.00000000000E+00 0.  1.
         12    1    4    4    0    0 -0.67961881065E+02 -0.15358261869E+02  0.31411127593E+03  0.32174615328E+03  0.00000000000E+00 0. -1.
        -13    1    3    3    0    0  0.60381804562E+02 -0.50063848239E+02  0.17619328827E+02  0.80391491907E+02  0.00000000000E+00 0.  1.
         13    1    3    3    0    0 -0.77784781945E+01  0.27438619465E+02  0.73126102202E+01  0.29442432465E+02  0.00000000000E+00 0. -1.
         21    1    1    2  502  501  0.36705897751E+02  0.33031552360E+02  0.48804335600E+02  0.69428161105E+02  0.00000000000E+00 0.  1.
<scales pt_clust_5="13000.00000" pt_clust_6="13000.00000" pt_clust_7="13000.00000" pt_clust_8="13000.00000" pt_clust_9="49.38022"></scales>
<clustering>
<clus scale="   49.380">  2  9  1 -1</clus>
<clus scale="   82.104">  5  6 -1 -1</clus>
<clus scale="   90.349">  7  8 -1 -1</clus>
<clus scale="  115.890">  1  5  2 -1</clus>
<clus scale="  115.890">  1  5  2 -1</clus>
</clustering>
</event>
<event>
 9    2  0.5608219E-005  0.1489287E+03  0.7546771E-02  0.1203631E+00
          2   -1    0    0  502    0  0.00000000000E+00  0.00000000000E+00  0.38181674133E+03  0.38181674133E+03  0.00000000000E+00 0. -1.
         -1   -1    0    0    0  501 -0.00000000000E+00 -0.00000000000E+00 -0.23810591177E+03  0.23810591177E+03  0.00000000000E+00 0.  1.
         23    2    1    2    0    0  0.12468155280E+03 -0.69312022384E+01 -0.16304129503E+03  0.22442261219E+03  0.90495932529E+02 0.  0.
         24    2    1    2    0    0 -0.11380206050E+03  0.31092770873E+02  0.33040832770E+03  0.35997876985E+03  0.80606341940E+02 0.  0.
        -11    1    4    4    0    0 -0.28429864527E+02  0.44815323475E+02  0.89870745841E+02  0.10437155443E+03  0.00000000000E+00 0.  1.
         12    1    4    4    0    0 -0.85372195971E+02 -0.13722552602E+02  0.24053758185E+03  0.25560721543E+03  0.00000000000E+00 0. -1.
        -11    1    3    3    0    0  0.65085337461E+02  0.32098671013E+02 -0.41653848496E+02  0.83674780715E+02  0.00000000000E+00 0. -1.
         11    1    3    3    0    0  0.59596215335E+02 -0.39029873251E+02 -0.12138744653E+03  0.14074783147E+03  0.00000000000E+00 0.  1.
         21    1    1    2  502  501 -0.10879492299E+02 -0.24161568635E+02 -0.23656203111E+02  0.35521271053E+02  0.00000000000E+00 0.  1.
<scales pt_clust_5="13000.00000" pt_clust_6="13000.00000" pt_clust_7="13000.00000" pt_clust_8="13000.00000" pt_clust_9="26.49801"></scales>
<clustering>
<clus scale="   26.498">  2  9  1 -1</clus>
<clus scale="   80.606">  5  6 -1 -1</clus>
<clus scale="   90.496">  7  8 -1 -1</clus>
<clus scale="  143.135">  1  5  2 -1</clus>
<clus scale="  143.135">  1  5  2 -1</clus>
</clustering>
</event>
<event>
 9    2  0.5608219E-005  0.2873722E+03  0.7546771E-02  0.1092062E+00
         -3   -1    0    0    0  501 -0.00000000000E+00  0.00000000000E+00  0.24987973297E+03  0.24987973297E+03  0.00000000000E+00 0.  1.
          4   -1    0    0  502    0  0.00000000000E+00 -0.00000000000E+00 -0.40370035609E+03  0.40370035609E+03  0.00000000000E+00 0. -1.
         24    2    1    2    0    0  0.29248445595E+03 -0.20087677869E+02 -0.81165874064E+02  0.31487671433E+03  0.81294368460E+02 0.  0.
         23    2    1    2    0    0 -0.25405006007E+03  0.38361234956E+02 -0.97915575549E+02  0.28921362802E+03  0.89688601975E+02 0.  0.
        -11    1    3    3    0    0  0.10116669742E+03 -0.65032424571E+01 -0.69124660577E+02  0.12269968024E+03  0.00000000000E+00 0.  1.
         12    1    3    3    0    0  0.19131775852E+03 -0.13584435412E+02 -0.12041213486E+02  0.19217703409E+03  0.00000000000E+00 0. -1.
        -11    1    4    4    0    0 -0.10836462068E+03 -0.25545955555E+02 -0.24472105017E+02  0.11399285409E+03  0.00000000000E+00 0. -1.
         11    1    4    4    0    0 -0.14568543939E+03  0.63907190511E+02 -0.73443470532E+02  0.17522077392E+03  0.00000000000E+00 0.  1.
         21    1    1    2  502  501 -0.38434395871E+02 -0.18273557087E+02  0.25260826496E+02  0.49489746715E+02  0.00000000000E+00 0.  1.
<scales pt_clust_5="13000.00000" pt_clust_6="13000.00000" pt_clust_7="13000.00000" pt_clust_8="13000.00000" pt_clust_9="42.55732"></scales>
<clustering>
<clus scale="   42.557">  1  9  2 -1</clus>
<clus scale="   81.294">  5  6 -1 -1</clus>
<clus scale="   89.689">  7  8 -1 -1</clus>
<clus scale="  284.864">  1  5  2 -1</clus>
<clus scale="  287.372">  2  5  1 -1</clus>
</clustering>
</event>
<event>
 9    2  0.5608219E-005  0.1153147E+03  0.7546771E-02  0.1256172E+00
          2   -1    0    0  502    0  0.00000000000E+00  0.00000000000E+00  0.70190135108E+03  0.70190135108E+03  0.00000000000E+00 0. -1.
         -1   -1    0    0    0  501 -0.00000000000E+00 -0.00000000000E+00 -0.84007532175E+02  0.84007532175E+02  0.00000000000E+00 0.  1.
         23    2    1    2    0    0 -0.64034443249E+02  0.90764429217E+01  0.11785350023E+03  0.16368049101E+03  0.93375927741E+02 0.  0.
         24    2    1    2    0    0  0.65907382776E+02  0.22301248899E+02  0.55174512940E+03  0.56171843523E+03  0.79144070263E+02 0.  0.
        -11    1    4    4    0    0 -0.20558498357E+01 -0.23193291284E+02  0.10524747228E+03  0.10779232672E+03  0.00000000000E+00 0.  1.
         12    1    4    4    0    0  0.67963232611E+02  0.45494540183E+02  0.44649765712E+03  0.45392610851E+03  0.00000000000E+00 0. -1.
        -11    1    3    3    0    0 -0.88550550588E+02  0.46456134315E+01  0.91762096064E+02  0.12760510965E+03  0.00000000000E+00 0.  1.
         11    1    3    3    0    0  0.24516107339E+02  0.44308294902E+01  0.26091404169E+02  0.36075381364E+02  0.00000000000E+00 0. -1.
         21    1    1    2  502  501 -0.18729395263E+01 -0.31377691821E+02 -0.51704810722E+02  0.60509957017E+02  0.00000000000E+00 0.  1.
<scales pt_clust_5="13000.00000" pt_clust_6="13000.00000" pt_clust_7="13000.00000" pt_clust_8="13000.00000" pt_clust_9="31.43354"></scales>
<clustering>
<clus scale="   31.434">  2  9  1 -1</clus>
<clus scale="   79.144">  5  6 -1 -1</clus>
<clus scale="   93.376">  7  8 -1 -1</clus>
<clus scale="  104.126">  1  5  2 -1</clus>
<clus scale="  104.126">  1  5  2 -1</clus>
</clustering>
</event>
<event>
 9    2  0.5608219E-005  0.1188428E+03  0.7546771E-02  0.1249137E+00
         -1   -1    0    0    0  501 -0.00000000000E+00  0.00000000000E+00  0.63825013524E+02  0.63825013524E+02  0.00000000000E+00 0.  1.
          2   -1    0    0  502    0  0.00000000000E+00 -0.00000000000E+00 -0.46909825226E+03  0.46909825226E+03  0.00000000000E+00 0. -1.
         23    2    1    2    0    0 -0.57376090520E+02 -0.17913579581E+02 -0.96632083144E+02  0.14521464328E+03  0.90203220745E+02 0.  0.
         24    2    1    2    0    0  0.85379599515E+02 -0.29124477700E+01 -0.32809912577E+03  0.34775198932E+03  0.77357943233E+02 0.  0.
        -13    1    4    4    0    0  0.14307286524E+02  0.32696674906E+02 -0.96312025443E+02  0.10271210855E+03  0.00000000000E+00 0.  1.
         14    1    4    4    0    0  0.71072312990E+02 -0.35609122676E+02 -0.23178710033E+03  0.24503988078E+03  0.00000000000E+00 0. -1.
        -13    1    3    3    0    0 -0.57489470661E+02  0.82335963308E+01 -0.10305247570E+03  0.11829050720E+03  0.00000000000E+00 0.  1.
         13    1    3    3    0    0  0.11338014030E+00 -0.26147175912E+02  0.64203925528E+01  0.26924136082E+02  0.00000000000E+00 0. -1.
         21    1    1    2  502  501 -0.28003508995E+02  0.20826027351E+02  0.19457970185E+02  0.39956633178E+02  0.00000000000E+00 0.  1.
<scales pt_clust_5="13000.00000" pt_clust_6="13000.00000" pt_clust_7="13000.00000" pt_clust_8="13000.00000" pt_clust_9="34.89871"></scales>
<clustering>
<clus scale="   34.899">  1  9  2 -1</clus>
<clus scale="   77.358">  5  6 -1 -1</clus>
<clus scale="   90.203">  7  8 -1 -1</clus>
<clus scale="  109.413">  2  5  1 -1</clus>
<clus scale="  109.413">  2  5  1 -1</clus>
</clustering>
</event>
<event>
 9    2  0.5608219E-005  0.1258622E+03  0.7546771E-02  0.1237193E+00
          2   -1    0    0  502    0  0.00000000000E+00  0.00000000000E+00  0.55316561848E+03  0.55316561848E+03  0.00000000000E+00 0. -1.
         -1   -1    0    0    0  501 -0.00000000000E+00 -0.00000000000E+00 -0.52797173927E+03  0.52797173927E+03  0.00000000000E+00 0.  1.
         23    2    1    2    0    0 -0.67119675310E+02 -0.34362126817E+02 -0.23325651040E+03  0.26163275120E+03  0.91418216356E+02 0.  0.
         24    2    1    2    0    0  0.83776118688E+02 -0.24673126936E+02  0.52906079781E+03  0.54202921788E+03  0.79140027801E+02 0.  0.
        -13    1    4    4    0    0  0.15750553309E+02  0.16573683796E+02  0.36389307072E+02  0.42976139813E+02  0.00000000000E+00 0.  1.
         14    1    4    4    0    0  0.68025565379E+02 -0.41246810732E+02  0.49267149074E+03  0.49905307807E+03  0.00000000000E+00 0. -1.
        -13    1    3    3    0    0 -0.54860721548E+02 -0.62004896221E+02 -0.13073605631E+03  0.15474566987E+03  0.00000000000E+00 0. -1.
         13    1    3    3    0    0 -0.12258953762E+02  0.27642769404E+02 -0.10252045409E+03  0.10688708133E+03  0.00000000000E+00 0.  1.
         21    1    1    2  502  501 -0.16656443378E+02  0.59035253753E+02 -0.27061040819E+03  0.27747538867E+03  0.00000000000E+00 0. -1.
<scales pt_clust_5="13000.00000" pt_clust_6="13000.00000" pt_clust_7="13000.00000" pt_clust_8="13000.00000" pt_clust_9="61.34002"></scales>
<clustering>
<clus scale="   61.340">  2  9  1 -1</clus>
<clus scale="   79.140">  5  6 -1 -1</clus>
<clus scale="   91.418">  7  8 -1 -1</clus>
<clus scale="  117.248">  1  5  2 -1</clus>
<clus scale="  117.248">  1  5  2 -1</clus>
</clustering>
</event>
<event>
 9    2  0.5608219E-005  0.1622660E+03  0.7546771E-02  0.1206334E+00
          2   -1    0    0  502    0  0.00000000000E+00  0.00000000000E+00  0.42498681813E+03  0.42498681813E+03  0.00000000000E+00 0. -1.
         -1   -1    0    0    0  501 -0.00000000000E+00 -0.00000000000E+00 -0.16146133727E+03  0.16146133727E+03  0.00000000000E+00 0.  1.
         24    2    1    2    0    0 -0.60013918483E+02 -0.15263019718E+03 -0.16205483239E+01  0.18244349642E+03  0.79908420756E+02 0.  0.
         23    2    1    2    0    0  0.11864169815E+02  0.37580691542E+02  0.25886721862E+03  0.27912787768E+03  0.96680237472E+02 0.  0.
        -11    1    3    3    0    0 -0.21097497054E+02 -0.13928177629E+03 -0.64549868549E+01  0.14101838335E+03  0.00000000000E+00 0.  1.
         12    1    3    3    0    0 -0.38916421429E+02 -0.13348420892E+02  0.48344385310E+01  0.41425113072E+02  0.00000000000E+00 0. -1.
        -13    1    4    4    0    0 -0.17097504919E+02  0.53966494236E+02  0.22353955395E+03  0.23059626917E+03  0.00000000000E+00 0. -1.
         13    1    4    4    0    0  0.28961674735E+02 -0.16385802694E+02  0.35327664677E+02  0.48531608513E+02  0.00000000000E+00 0.  1.
         21    1    1    2  502  501  0.48149748668E+02  0.11504950564E+03  0.62788105624E+01  0.12487678129E+03  0.00000000000E+00 0. -1.
<scales pt_clust_5="13000.00000" pt_clust_6="13000.00000" pt_clust_7="13000.00000" pt_clust_8="13000.00000" pt_clust_9="141.22639"></scales>
<clustering>
<clus scale="   79.908">  5  6 -1 -1</clus>
<clus scale="   96.680">  7  8 -1 -1</clus>
<clus scale="  104.404">  1  7  2 -1</clus>
<clus scale="  141.226">  2  9  1 -1</clus>
<clus scale="  104.404">  1  5  2 -1</clus>
</clustering>
</event>
<event>
 9    2  0.5608219E-005  0.1158646E+03  0.7546771E-02  0.1254380E+00
         -1   -1    0    0    0  501 -0.00000000000E+00  0.00000000000E+00  0.18081917831E+02  0.18081917831E+02  0.00000000000E+00 0.  1.
          2   -1    0    0  502    0  0.00000000000E+00 -0.00000000000E+00 -0.88516401541E+03  0.88516401541E+03  0.00000000000E+00 0. -1.
         23    2    1    2    0    0 -0.13252013938E+02  0.77427314333E+02 -0.29823009097E+03  0.32185977195E+03  0.92097343946E+02 0.  0.
         24    2    1    2    0    0  0.98782859129E+01 -0.56363979932E+02 -0.48677313593E+03  0.49658057711E+03  0.79810431210E+02 0.  0.
        -13    1    4    4    0    0  0.44616120660E+02 -0.24008398602E+02 -0.26046880250E+03  0.26535070850E+03  0.00000000000E+00 0.  1.
         14    1    4    4    0    0 -0.34737834747E+02 -0.32355581330E+02 -0.22630433343E+03  0.23122986861E+03  0.00000000000E+00 0. -1.
        -13    1    3    3    0    0  0.15042793892E+02  0.76000305533E+02 -0.13058737369E+03  0.15184002850E+03  0.00000000000E+00 0.  1.
         13    1    3    3    0    0 -0.28294807831E+02  0.14270087999E+01 -0.16764271728E+03  0.17001974344E+03  0.00000000000E+00 0. -1.
         21    1    1    2  502  501  0.33737280253E+01 -0.21063334401E+02 -0.82078870681E+02  0.84805584186E+02  0.00000000000E+00 0. -1.
<scales pt_clust_5="13000.00000" pt_clust_6="13000.00000" pt_clust_7="13000.00000" pt_clust_8="13000.00000" pt_clust_9="21.33181"></scales>
<clustering>
<clus scale="   21.332">  2  9  1 -1</clus>
<clus scale="   79.810">  5  6 -1 -1</clus>
<clus scale="   92.097">  7  8 -1 -1</clus>
<clus scale="  106.360">  2  5  1 -1</clus>
<clus scale="   21.332">  2  5  1 -1</clus>
</clustering>
</event>
<event>
 9    2  0.5608219E-005  0.1001615E+03  0.7546771E-02  0.1285385E+00
          2   -1    0    0  502    0  0.00000000000E+00  0.00000000000E+00  0.32261546772E+03  0.32261546772E+03  0.00000000000E+00 0. -1.
         -1   -1    0    0    0  501 -0.00000000000E+00 -0.00000000000E+00 -0.53394180685E+02  0.53394180685E+02  0.00000000000E+00 0.  1.
         23    2    1    2    0    0  0.59473983868E+02 -0.23341176903E+02  0.11248331356E+03  0.15825490019E+03  0.91160036799E+02 0.  0.
         24    2    1    2    0    0 -0.32381996214E+02 -0.65646470403E+01  0.15464790513E+03  0.17734803483E+03  0.80278656108E+02 0.  0.
        -13    1    4    4    0    0  0.12848871550E+02  0.25654701387E+02  0.33697128845E+02  0.44257809432E+02  0.00000000000E+00 0.  1.
         14    1    4    4    0    0 -0.45230867764E+02 -0.32219348427E+02  0.12095077629E+03  0.13309022540E+03  0.00000000000E+00 0. -1.
        -13    1    3    3    0    0 -0.24219561814E+02 -0.32537513131E+01  0.33276073334E+02  0.41285241050E+02  0.00000000000E+00 0. -1.
         13    1    3    3    0    0  0.83693545682E+02 -0.20087425590E+02  0.79207240228E+02  0.11696965914E+03  0.00000000000E+00 0.  1.
         21    1    1    2  502  501 -0.27091987654E+02  0.29905823943E+02  0.20900683420E+01  0.40406713383E+02  0.00000000000E+00 0. -1.
<scales pt_clust_5="13000.00000" pt_clust_6="13000.00000" pt_clust_7="13000.00000" pt_clust_8="13000.00000" pt_clust_9="40.35262"></scales>
<clustering>
<clus scale="   40.353">  2  9  1 -1</clus>
<clus scale="   80.279">  5  6 -1 -1</clus>
<clus scale="   90.371">  1  5  2 -1</clus>
<clus scale="   91.160">  7  8 -1 -1</clus>
<clus scale="   90.371">  1  5  2 -1</clus>
</clustering>
</event>
<event>
 9    2  0.5608219E-005  0.1679988E+03  0.7546771E-02  0.1181786E+00
         -1   -1    0    0    0  501 -0.00000000000E+00  0.00000000000E+00  0.13442159639E+03  0.13442159639E+03  0.00000000000E+00 0.  1.
          2   -1    0    0  502    0  0.00000000000E+00 -0.00000000000E+00 -0.56548440364E+03  0.56548440364E+03  0.00000000000E+00 0. -1.
         23    2    1    2    0    0 -0.80379871288E+02  0.87819875612E+02 -0.94492143494E+02  0.17772917066E+03  0.92117526344E+02 0.  0.
         24    2    1    2    0    0  0.99659212253E+02 -0.11089538297E+03 -0.40970380252E+03  0.44310326861E+03  0.79079430359E+02 0.  0.
        -11    1    4    4    0    0  0.63605323915E+02 -0.15952753924E+02 -0.13152672258E+03  0.14696736488E+03  0.00000000000E+00 0.  1.
         12    1    4    4    0    0  0.36053888338E+02 -0.94942629043E+02 -0.27817707994E+03  0.29613590373E+03  0.00000000000E+00 0. -1.
        -13    1    3    3    0    0 -0.22003289704E+02  0.68701976888E+02 -0.91106119504E+02  0.11620856852E+03  0.00000000000E+00 0. -1.
         13    1    3    3    0    0 -0.58376581584E+02  0.19117898725E+02 -0.33860239903E+01  0.61520602139E+02  0.00000000000E+00 0.  1.
         21    1    1    2  502  501 -0.19279340965E+02  0.23075507355E+02  0.73133138761E+02  0.79073560769E+02  0.00000000000E+00 0.  1.
<scales pt_clust_5="13000.00000" pt_clust_6="13000.00000" pt_clust_7="13000.00000" pt_clust_8="13000.00000" pt_clust_9="30.06945"></scales>
<clustering>
<clus scale="   30.069">  1  9  2 -1</clus>
<clus scale="   79.079">  5  6 -1 -1</clus>
<clus scale="   92.118">  7  8 -1 -1</clus>
<clus scale="  161.219">  2  5  1 -1</clus>
<clus scale="  161.219">  2  5  1 -1</clus>
</clustering>
</event>
<event>
 9    2  0.5608219E-005  0.1238212E+03  0.7546771E-02  0.1241924E+00
          2   -1    0    0  502    0  0.00000000000E+00  0.00000000000E+00  0.22557553292E+03  0.22557553292E+03  0.00000000000E+00 0. -1.
         -1   -1    0    0    0  501 -0.00000000000E+00 -0.00000000000E+00 -0.18865188794E+03  0.18865188794E+03  0.00000000000E+00 0.  1.
         24    2    1    2    0    0  0.52382537478E+02  0.80411311568E+01  0.75086686290E+01  0.96342986197E+02  0.80106184917E+02 0.  0.
         23    2    1    2    0    0 -0.76332797310E+02  0.82505094314E+02  0.11782439673E+03  0.18908824099E+03  0.96114451985E+02 0.  0.
        -13    1    3    3    0    0  0.55709522135E+02 -0.17820059119E+02 -0.16632378483E+02  0.60809056706E+02  0.00000000000E+00 0.  1.
         14    1    3    3    0    0 -0.33269846569E+01  0.25861190276E+02  0.24141047112E+02  0.35533929491E+02  0.00000000000E+00 0. -1.
        -11    1    4    4    0    0 -0.23615303689E+02  0.23335620954E+02 -0.13391047137E+02  0.35798797704E+02  0.00000000000E+00 0.  1.
         11    1    4    4    0    0 -0.52717493621E+02  0.59169473360E+02  0.13121544387E+03  0.15328944328E+03  0.00000000000E+00 0. -1.
         21    1    1    2  502  501  0.23950259832E+02 -0.90546225471E+02 -0.88409420385E+02  0.12879619368E+03  0.00000000000E+00 0.  1.
<scales pt_clust_5="13000.00000" pt_clust_6="13000.00000" pt_clust_7="13000.00000" pt_clust_8="13000.00000" pt_clust_9="93.66020"></scales>
<clustering>
<clus scale="   80.106">  5  6 -1 -1</clus>
<clus scale="   93.660">  2  9  1 -1</clus>
<clus scale="   96.114">  7  8 -1 -1</clus>
<clus scale="  111.851">  2  5  1 -1</clus>
<clus scale="  123.821">  1  5  2 -1</clus>
</clustering>
</event>
<event>
 9    2  0.5608219E-005  0.1678032E+03  0.7546771E-02  0.1181675E+00
          2   -1    0    0  502    0  0.00000000000E+00  0.00000000000E+00  0.92818475999E+03  0.92818475999E+03  0.00000000000E+00 0. -1.
         -1   -1    0    0    0  501 -0.00000000000E+00 -0.00000000000E+00 -0.77661343591E+02  0.77661343591E+02  0.00000000000E+00 0.  1.
         23    2    1    2    0    0 -0.11870137037E+03  0.11775578762E+03  0.80162746749E+02  0.20666656659E+03  0.91260960623E+02 0.  0.
         24    2    1    2    0    0  0.97850345682E+02 -0.96289643750E+02  0.73857717094E+03  0.75552462485E+03  0.80466363708E+02 0.  0.
        -13    1    4    4    0    0  0.25546370056E+01 -0.48268961458E+02  0.15823217121E+03  0.16545041196E+03  0.00000000000E+00 0.  1.
         14    1    4    4    0    0  0.95295708677E+02 -0.48020682292E+02  0.58034499972E+03  0.59007421289E+03  0.00000000000E+00 0. -1.
        -13    1    3    3    0    0 -0.86551336063E+02  0.12138374534E+03  0.38603106500E+02  0.15399788063E+03  0.00000000000E+00 0.  1.
         13    1    3    3    0    0 -0.32150034304E+02 -0.36279577180E+01  0.41559640249E+02  0.52668685959E+02  0.00000000000E+00 0. -1.
         21    1    1    2  502  501  0.20851024685E+02 -0.21466143875E+02  0.31783498713E+02  0.43654912137E+02  0.00000000000E+00 0.  1.
<scales pt_clust_5="13000.00000" pt_clust_6="13000.00000" pt_clust_7="13000.00000" pt_clust_8="13000.00000" pt_clust_9="29.92592"></scales>
<clustering>
<clus scale="   29.926">  2  9  1 -1</clus>
<clus scale="   80.466">  5  6 -1 -1</clus>
<clus scale="   91.261">  7  8 -1 -1</clus>
<clus scale="  162.186">  1  5  2 -1</clus>
<clus scale="  162.186">  1  5  2 -1</clus>
</clustering>
</event>
<event>
 9    2  0.5608219E-005  0.9611848E+02  0.7546771E-02  0.1289127E+00
          4   -1    0    0  502    0  0.00000000000E+00  0.00000000000E+00  0.10579265949E+03  0.10579265949E+03  0.00000000000E+00 0. -1.
         -3   -1    0    0    0  501 -0.00000000000E+00 -0.00000000000E+00 -0.16551019695E+03  0.16551019695E+03  0.00000000000E+00 0.  1.
         23    2    1    2    0    0 -0.23998304243E+02 -0.36626707627E+02 -0.85306284892E+02  0.12654099953E+03  0.82571350982E+02 0.  0.
         24    2    1    2    0    0  0.42973977960E+02  0.28290097202E+02  0.53241811186E+02  0.11020368563E+03  0.81627626985E+02 0.  0.
        -13    1    4    4    0    0  0.62916895186E+02  0.11914105122E+02  0.54897362609E+02  0.84345729128E+02  0.00000000000E+00 0.  1.
         14    1    4    4    0    0 -0.19942917226E+02  0.16375992080E+02 -0.16555514226E+01  0.25857956505E+02  0.00000000000E+00 0. -1.
        -13    1    3    3    0    0 -0.41893508827E+02 -0.51336024568E+02 -0.45145386163E+02  0.80178297513E+02  0.00000000000E+00 0. -1.
         13    1    3    3    0    0  0.17895204584E+02  0.14709316941E+02 -0.40160898729E+02  0.46362702022E+02  0.00000000000E+00 0.  1.
         21    1    1    2  502  501 -0.18975673717E+02  0.83366104246E+01 -0.27653063757E+02  0.34558171270E+02  0.00000000000E+00 0.  1.
<scales pt_clust_5="13000.00000" pt_clust_6="13000.00000" pt_clust_7="13000.00000" pt_clust_8="13000.00000" pt_clust_9="20.72620"></scales>
<clustering>
<clus scale="   20.726">  2  9  1 -1</clus>
<clus scale="   81.628">  5  6 -1 -1</clus>
<clus scale="   82.571">  7  8 -1 -1</clus>
<clus scale="   95.309">  1  5  2 -1</clus>
<clus scale="   95.309">  1  5  2 -1</clus>
</clustering>
</event>
<event>
 9    2  0.5608219E-005  0.1136026E+03  0.7546771E-02  0.1255794E+00
          2   -1    0    0  502    0  0.00000000000E+00  0.00000000000E+00  0.73640796716E+03  0.73640796716E+03  0.00000000000E+00 0. -1.
         -1   -1    0    0    0  501 -0.00000000000E+00 -0.00000000000E+00 -0.21895716901E+03  0.21895716901E+03  0.00000000000E+00 0.  1.
         24    2    1    2    0    0  0.39141250975E+02 -0.23074914212E+02  0.27944200209E+03  0.29889643587E+03  0.95847575086E+02 0.  0.
         23    2    1    2    0    0 -0.58583123760E+02  0.44245956352E+02  0.43853262467E+03  0.45389524378E+03  0.91215910816E+02 0.  0.
        -11    1    3    3    0    0  0.28381007005E+02  0.35611991319E+02  0.14018357574E+03  0.14739447205E+03  0.00000000000E+00 0.  1.
         12    1    3    3    0    0  0.10760243971E+02 -0.58686905531E+02  0.13925842635E+03  0.15150196382E+03  0.00000000000E+00 0. -1.
        -13    1    4    4    0    0 -0.62776135706E+02  0.68208561387E+02  0.35329466325E+03  0.36525384343E+03  0.00000000000E+00 0.  1.
         13    1    4    4    0    0  0.41930119457E+01 -0.23962605035E+02  0.85237961423E+02  0.88641400354E+02  0.00000000000E+00 0. -1.
         21    1    1    2  502  501  0.19441872785E+02 -0.21171042140E+02 -0.20052382861E+03  0.20257345652E+03  0.00000000000E+00 0.  1.
<scales pt_clust_5="13000.00000" pt_clust_6="13000.00000" pt_clust_7="13000.00000" pt_clust_8="13000.00000" pt_clust_9="28.74369"></scales>
<clustering>
<clus scale="   28.744">  2  9  1 -1</clus>
<clus scale="   91.216">  7  8 -1 -1</clus>
<clus scale="   95.848">  5  6 -1 -1</clus>
<clus scale="  109.723">  1  7  2 -1</clus>
<clus scale="  109.723">  1  5  2 -1</clus>
</clustering>
</event>
<event>
 9    2  0.5608219E-005  0.1856637E+03  0.7546771E-02  0.1199826E+00
          2   -1    0    0  502    0  0.00000000000E+00  0.00000000000E+00  0.23886681549E+03  0.23886681549E+03  0.00000000000E+00 0. -1.
         -1   -1    0    0    0  501 -0.00000000000E+00 -0.00000000000E+00 -0.36941674090E+03  0.36941674090E+03  0.00000000000E+00 0.  1.
         24    2    1    2    0    0  0.30037552461E+01 -0.65916086210E+01 -0.15865977048E+03  0.17778691615E+03  0.79892383469E+02 0.  0.
         23    2    1    2    0    0 -0.14230551882E+03 -0.73941182867E+02  0.14173536211E+03  0.23351626060E+03  0.93395780848E+02 0.  0.
        -11    1    3    3    0    0 -0.27924787231E+02 -0.26281392261E+02 -0.49383439148E+02  0.62523830522E+02  0.00000000000E+00 0.  1.
         12    1    3    3    0    0  0.30928542477E+02  0.19689783640E+02 -0.10927633133E+03  0.11526308563E+03  0.00000000000E+00 0. -1.
        -11    1    4    4    0    0 -0.32787404402E+02  0.22407836711E+02  0.29879421349E+02  0.49698137326E+02  0.00000000000E+00 0.  1.
         11    1    4    4    0    0 -0.10951811442E+03 -0.96349019579E+02  0.11185594076E+03  0.18381812327E+03  0.00000000000E+00 0. -1.
         21    1    1    2  502  501  0.13930176358E+03  0.80532791488E+02 -0.11362551704E+03  0.19698037964E+03  0.00000000000E+00 0.  1.
<scales pt_clust_5="13000.00000" pt_clust_6="13000.00000" pt_clust_7="13000.00000" pt_clust_8="13000.00000" pt_clust_9="160.46256"></scales>
<clustering>
<clus scale="   79.892">  5  6 -1 -1</clus>
<clus scale="   80.220">  2  5  1 -1</clus>
<clus scale="   93.396">  7  8 -1 -1</clus>
<clus scale="  160.463">  2  9  1 -1</clus>
<clus scale="  185.664">  1  5  2 -1</clus>
</clustering>
</event>
<event>
 9    2  0.5608219E-005  0.1444681E+03  0.7546771E-02  0.1210583E+00
          2   -1    0    0  502    0  0.00000000000E+00  0.00000000000E+00  0.33617660098E+03  0.33617660098E+03  0.00000000000E+00 0. -1.
         -1   -1    0    0    0  501 -0.00000000000E+00 -0.00000000000E+00 -0.21716337369E+03  0.21716337369E+03  0.00000000000E+00 0.  1.
         23    2    1    2    0    0 -0.11011560581E+03  0.59287638276E+02 -0.75846079604E+02  0.17371481950E+03  0.93721609183E+02 0.  0.
         24    2    1    2    0    0  0.10954108205E+03 -0.18910718974E+01  0.25997185534E+03  0.29282457986E+03  0.78473206854E+02 0.  0.
        -13    1    4    4    0    0  0.30657279547E+02 -0.31535190233E+02  0.50098640584E+02  0.66664914315E+02  0.00000000000E+00 0.  1.
         14    1    4    4    0    0  0.78883802499E+02  0.29644118335E+02  0.20987321476E+03  0.22615966555E+03  0.00000000000E+00 0. -1.
        -11    1    3    3    0    0 -0.96851859569E+02  0.24708590582E+02 -0.89573455295E+02  0.13421699238E+03  0.00000000000E+00 0.  1.
         11    1    3    3    0    0 -0.13263746238E+02  0.34579047693E+02  0.13727375691E+02  0.39497827117E+02  0.00000000000E+00 0. -1.
         21    1    1    2  502  501  0.57452376088E+00 -0.57396566378E+02 -0.65112548443E+02  0.86800575311E+02  0.00000000000E+00 0.  1.
<scales pt_clust_5="13000.00000" pt_clust_6="13000.00000" pt_clust_7="13000.00000" pt_clust_8="13000.00000" pt_clust_9="57.39944"></scales>
<clustering>
<clus scale="   57.399">  2  9  1 -1</clus>
<clus scale="   78.473">  5  6 -1 -1</clus>
<clus scale="   93.722">  7  8 -1 -1</clus>
<clus scale="  135.075">  1  5  2 -1</clus>
<clus scale="  135.075">  1  5  2 -1</clus>
</clustering>
</event>
<event>
 9    2  0.5608219E-005  0.1082159E+03  0.7546771E-02  0.1269645E+00
         -1   -1    0    0    0  501 -0.00000000000E+00  0.00000000000E+00  0.19667256748E+03  0.19667256748E+03  0.00000000000E+00 0.  1.
          2   -1    0    0  502    0  0.00000000000E+00 -0.00000000000E+00 -0.32799917450E+03  0.32799917450E+03  0.00000000000E+00 0. -1.
         24    2    1    2    0    0 -0.51214164661E+01 -0.36723582000E+02  0.45787693697E+02  0.98797456591E+02  0.79306835475E+02 0.  0.
         23    2    1    2    0    0  0.40978330143E+02  0.42457102636E+02 -0.28846823663E+03  0.30874917894E+03  0.92899423258E+02 0.  0.
        -13    1    3    3    0    0 -0.21308999076E+02 -0.19281071560E+02  0.63122644868E+02  0.69356336821E+02  0.00000000000E+00 0.  1.
         14    1    3    3    0    0  0.16187582610E+02 -0.17442510440E+02 -0.17334951171E+02  0.29441119769E+02  0.00000000000E+00 0. -1.
        -13    1    4    4    0    0 -0.22063076737E+02  0.95243076725E+01 -0.20768615237E+02  0.31762039774E+02  0.00000000000E+00 0.  1.
         13    1    4    4    0    0  0.63041406880E+02  0.32932794964E+02 -0.26769962139E+03  0.27698713916E+03  0.00000000000E+00 0. -1.
         21    1    1    2  502  501 -0.35856913677E+02 -0.57335206364E+01  0.11135393592E+03  0.11712510645E+03  0.00000000000E+00 0.  1.
<scales pt_clust_5="13000.00000" pt_clust_6="13000.00000" pt_clust_7="13000.00000" pt_clust_8="13000.00000" pt_clust_9="36.31242"></scales>
<clustering>
<clus scale="   36.312">  1  9  2 -1</clus>
<clus scale="   79.307">  5  6 -1 -1</clus>
<clus scale="   92.899">  7  8 -1 -1</clus>
<clus scale="   96.799">  1  5  2 -1</clus>
<clus scale="  108.216">  2  5  1 -1</clus>
</clustering>
</event>
<event>
 9    2  0.5608219E-005  0.1240838E+03  0.7546771E-02  0.1239599E+00
          2   -1    0    0  502    0  0.00000000000E+00  0.00000000000E+00  0.64027832857E+03  0.64027832857E+03  0.00000000000E+00 0. -1.
         -1   -1    0    0    0  501 -0.00000000000E+00 -0.00000000000E+00 -0.54944512852E+02  0.54944512852E+02  0.00000000000E+00 0.  1.
         23    2    1    2    0    0 -0.36596992772E+02  0.72229072102E+02  0.99912765827E+02  0.15756414907E+03  0.91035825700E+02 0.  0.
         24    2    1    2    0    0 -0.29530331668E+02 -0.86077639039E+02  0.43949949813E+03  0.45596784366E+03  0.80408116262E+02 0.  0.
        -13    1    4    4    0    0 -0.50356740104E+02 -0.26951628349E+02  0.17256534857E+03  0.18177181044E+03  0.00000000000E+00 0.  1.
         14    1    4    4    0    0  0.20826408436E+02 -0.59126010690E+02  0.26693414956E+03  0.27419603322E+03  0.00000000000E+00 0. -1.
        -11    1    3    3    0    0  0.53411910962E+01  0.64460573636E+02  0.21250639671E+02  0.68082916817E+02  0.00000000000E+00 0.  1.
         11    1    3    3    0    0 -0.41938183868E+02  0.77684984656E+01  0.78662126156E+02  0.89481232255E+02  0.00000000000E+00 0. -1.
         21    1    1    2  502  501  0.66127324440E+02  0.13848566937E+02  0.45921551754E+02  0.81690848688E+02  0.00000000000E+00 0. -1.
<scales pt_clust_5="13000.00000" pt_clust_6="13000.00000" pt_clust_7="13000.00000" pt_clust_8="13000.00000" pt_clust_9="67.56187"></scales>
<clustering>
<clus scale="   67.562">  2  9  1 -1</clus>
<clus scale="   80.408">  5  6 -1 -1</clus>
<clus scale="   91.036">  7  8 -1 -1</clus>
<clus scale="  116.511">  1  5  2 -1</clus>
<clus scale="  116.511">  1  5  2 -1</clus>
</clustering>
</event>
<event>
 9    2  0.5608219E-005  0.1075934E+03  0.7546771E-02  0.1269866E+00
          2   -1    0    0  502    0  0.00000000000E+00  0.00000000000E+00  0.34996307180E+02  0.34996307180E+02  0.00000000000E+00 0. -1.
         -1   -1    0    0    0  501 -0.00000000000E+00 -0.00000000000E+00 -0.78401389829E+03  0.78401389829E+03  0.00000000000E+00 0.  1.
         23    2    1    2    0    0  0.67312473503E+02 -0.44321661372E+02 -0.17973321998E+03  0.21706175601E+03  0.91194280529E+02 0.  0.
         24    2    1    2    0    0 -0.47210656565E+02 -0.18252219972E+02 -0.14798333513E+03  0.17555176021E+03  0.79733076004E+02 0.  0.
        -11    1    4    4    0    0  0.11387390588E+02 -0.22705479414E+02 -0.87941265423E+02  0.91536209360E+02  0.00000000000E+00 0.  1.
         12    1    4    4    0    0 -0.58598047153E+02  0.44532594414E+01 -0.60042069711E+02  0.84015550852E+02  0.00000000000E+00 0. -1.
        -13    1    3    3    0    0  0.68347308721E+00 -0.51222923007E+02 -0.10415426371E+03  0.11607052005E+03  0.00000000000E+00 0.  1.
         13    1    3    3    0    0  0.66629000416E+02  0.69012616353E+01 -0.75578956270E+02  0.10099123595E+03  0.00000000000E+00 0. -1.
         21    1    1    2  502  501 -0.20101816938E+02  0.62573881344E+02 -0.42130103600E+03  0.42639668925E+03  0.00000000000E+00 0. -1.
<scales pt_clust_5="13000.00000" pt_clust_6="13000.00000" pt_clust_7="13000.00000" pt_clust_8="13000.00000" pt_clust_9="65.72346"></scales>
<clustering>
<clus scale="   65.723">  2  9  1 -1</clus>
<clus scale="   79.733">  5  6 -1 -1</clus>
<clus scale="   91.194">  7  8 -1 -1</clus>
<clus scale="   98.068">  1  5  2 -1</clus>
<clus scale="   98.068">  1  5  2 -1</clus>
</clustering>
</event>
<event>
 9    2  0.5608219E-005  0.1271472E+03  0.7546771E-02  0.1234468E+00
         -1   -1    0    0    0  501 -0.00000000000E+00  0.00000000000E+00  0.53386552814E+03  0.53386552814E+03  0.00000000000E+00 0.  1.
          2   -1    0    0  502    0  0.00000000000E+00 -0.00000000000E+00 -0.11548671677E+03  0.11548671677E+03  0.00000000000E+00 0. -1.
         24    2    1    2    0    0 -0.78563375438E+02  0.60639936007E+02  0.20408975745E+03  0.24132261819E+03  0.82064432944E+02 0.  0.
         23    2    1    2    0    0  0.38875067432E+02 -0.78168626869E+02 -0.52901414666E+02  0.13733946565E+03  0.91880161385E+02 0.  0.
        -13    1    3    3    0    0  0.10806221259E+01  0.47219939458E+02  0.88433791684E+02  0.10025679996E+03  0.00000000000E+00 0.  1.
         14    1    3    3    0    0 -0.79643997563E+02  0.13419996549E+02  0.11565596576E+03  0.14106581823E+03  0.00000000000E+00 0. -1.
        -11    1    4    4    0    0  0.46976683716E+02 -0.88568045691E+00 -0.82070739831E+01  0.47696428653E+02  0.00000000000E+00 0.  1.
         11    1    4    4    0    0 -0.81016162841E+01 -0.77282946412E+02 -0.44694340683E+02  0.89643036994E+02  0.00000000000E+00 0. -1.
         21    1    1    2  502  501  0.39688308005E+02  0.17528690862E+02  0.26719046859E+03  0.27069016108E+03  0.00000000000E+00 0.  1.
<scales pt_clust_5="13000.00000" pt_clust_6="13000.00000" pt_clust_7="13000.00000" pt_clust_8="13000.00000" pt_clust_9="43.38683"></scales>
<clustering>
<clus scale="   43.387">  1  9  2 -1</clus>
<clus scale="   82.064">  5  6 -1 -1</clus>
<clus scale="   91.880">  7  8 -1 -1</clus>
<clus scale="  120.246">  1  5  2 -1</clus>
<clus scale="  127.147">  2  5  1 -1</clus>
</clustering>
</event>
<event>
 9    2  0.5608219E-005  0.9516989E+02  0.7546771E-02  0.1296123E+00
          4   -1    0    0  502    0  0.00000000000E+00  0.00000000000E+00  0.60089092455E+03  0.60089092455E+03  0.00000000000E+00 0. -1.
         -3   -1    0    0    0  501 -0.00000000000E+00 -0.00000000000E+00 -0.28786447353E+02  0.28786447353E+02  0.00000000000E+00 0.  1.
         23    2    1    2    0    0 -0.44152894413E+01 -0.37536576047E+02  0.85497837719E+02  0.12983731287E+03  0.90107481578E+02 0.  0.
         24    2    1    2    0    0 -0.48889496317E+01  0.62225736750E+01  0.36961089488E+03  0.37836932238E+03  0.80551277163E+02 0.  0.
        -11    1    4    4    0    0 -0.17816524104E+02 -0.31592541777E+02  0.11336499155E+03  0.11902578938E+03  0.00000000000E+00 0.  1.
         12    1    4    4    0    0  0.12927574472E+02  0.37815115452E+02  0.25624590333E+03  0.25934353300E+03  0.00000000000E+00 0. -1.
        -11    1    3    3    0    0  0.10900425154E+02 -0.62370264923E+02  0.37269895504E+02  0.73470499699E+02  0.00000000000E+00 0.  1.
         11    1    3    3    0    0 -0.15315714596E+02  0.24833688876E+02  0.48227942214E+02  0.56366813170E+02  0.00000000000E+00 0. -1.
         21    1    1    2  502  501  0.93042390730E+01  0.31314002372E+02  0.11699574460E+03  0.12147073666E+03  0.00000000000E+00 0.  1.
<scales pt_clust_5="13000.00000" pt_clust_6="13000.00000" pt_clust_7="13000.00000" pt_clust_8="13000.00000" pt_clust_9="32.66704"></scales>
<clustering>
<clus scale="   32.667">  1  9  2 -1</clus>
<clus scale="   80.551">  5  6 -1 -1</clus>
<clus scale="   86.177">  1  5  2 -1</clus>
<clus scale="   90.107">  7  8 -1 -1</clus>
<clus scale="   32.667">  1  5  2 -1</clus>
</clustering>
</event>
<event>
 9    2  0.5608219E-005  0.1051958E+03  0.7546771E-02  0.1272761E+00
          2   -1    0    0  502    0  0.00000000000E+00  0.00000000000E+00  0.45520062595E+03  0.45520062595E+03  0.00000000000E+00 0. -1.
         -1   -1    0    0    0  501 -0.00000000000E+00 -0.00000000000E+00 -0.82186548589E+02  0.82186548589E+02  0.00000000000E+00 0.  1.
         24    2    1    2    0    0  0.27050566244E+02 -0.30224537323E+02 -0.36239803966E+02  0.96358985236E+02  0.79539140388E+02 0.  0.
         23    2    1    2    0    0 -0.56984492399E+02  0.23765039267E+02  0.39124717657E+03  0.40550345895E+03  0.86871701865E+02 0.  0.
        -11    1    3    3    0    0  0.26477575078E+02  0.10458393602E+02 -0.46386751393E+02  0.54425827358E+02  0.00000000000E+00 0.  1.
         12    1    3    3    0    0  0.57299116581E+00 -0.40682930925E+02  0.10146947428E+02  0.41933157878E+02  0.00000000000E+00 0. -1.
        -13    1    4    4    0    0  0.84044305282E+01  0.38474177752E+02  0.13382106987E+03  0.13949543199E+03  0.00000000000E+00 0.  1.
         13    1    4    4    0    0 -0.65388922927E+02 -0.14709138485E+02  0.25742610670E+03  0.26600802696E+03  0.00000000000E+00 0. -1.
         21    1    1    2  502  501  0.29933926155E+02  0.64594980562E+01  0.18006704755E+02  0.35524730348E+02  0.00000000000E+00 0. -1.
<scales pt_clust_5="13000.00000" pt_clust_6="13000.00000" pt_clust_7="13000.00000" pt_clust_8="13000.00000" pt_clust_9="30.62295"></scales>
<clustering>
<clus scale="   30.623">  2  9  1 -1</clus>
<clus scale="   79.539">  5  6 -1 -1</clus>
<clus scale="   86.872">  7  8 -1 -1</clus>
<clus scale="   99.227">  2  5  1 -1</clus>
<clus scale="  105.196">  1  5  2 -1</clus>
</clustering>
</event>
<event>
 9    2  0.5608219E-005  0.2176637E+03  0.7546771E-02  0.1136276E+00
         -1   -1    0    0    0  501 -0.00000000000E+00  0.00000000000E+00  0.39408357160E+03  0.39408357160E+03  0.00000000000E+00 0.  1.
          2   -1    0    0  502    0  0.00000000000E+00 -0.00000000000E+00 -0.43435980891E+03  0.43435980891E+03  0.00000000000E+00 0. -1.
         24    2    1    2    0    0 -0.81713299534E+02 -0.18794972050E+03  0.25359380290E+03  0.33587957750E+03  0.80641880866E+02 0.  0.
         23    2    1    2    0    0  0.13023549241E+03  0.15018112735E+03 -0.34804624005E+03  0.41061302231E+03  0.89169582188E+02 0.  0.
        -13    1    3    3    0    0 -0.75780521574E+02 -0.12592438826E+03  0.22141560071E+03  0.26575271823E+03  0.00000000000E+00 0.  1.
         14    1    3    3    0    0 -0.59327779604E+01 -0.62025332244E+02  0.32178202195E+02  0.70126859268E+02  0.00000000000E+00 0. -1.
        -11    1    4    4    0    0  0.77269398190E+02  0.25251804788E+02 -0.14864043520E+03  0.16941721435E+03  0.00000000000E+00 0.  1.
         11    1    4    4    0    0  0.52966094215E+02  0.12492932256E+03 -0.19940580485E+03  0.24119580796E+03  0.00000000000E+00 0. -1.
         21    1    1    2  502  501 -0.48522192871E+02  0.37768593159E+02  0.54176199829E+02  0.81950780705E+02  0.00000000000E+00 0. -1.
<scales pt_clust_5="13000.00000" pt_clust_6="13000.00000" pt_clust_7="13000.00000" pt_clust_8="13000.00000" pt_clust_9="61.48878"></scales>
<clustering>
<clus scale="   61.489">  1  9  2 -1</clus>
<clus scale="   80.642">  5  6 -1 -1</clus>
<clus scale="   89.170">  7  8 -1 -1</clus>
<clus scale="  214.311">  1  5  2 -1</clus>
<clus scale="  217.664">  2  5  1 -1</clus>
</clustering>
</event>
<event>
 9    2  0.5608219E-005  0.9383658E+02  0.7546771E-02  0.1300820E+00
         -1   -1    0    0    0  501 -0.00000000000E+00  0.00000000000E+00  0.22075525632E+03  0.22075525632E+03  0.00000000000E+00 0.  1.
          2   -1    0    0  502    0  0.00000000000E+00 -0.00000000000E+00 -0.16738919578E+03  0.16738919578E+03  0.00000000000E+00 0. -1.
         23    2    1    2    0    0 -0.36582982748E+02  0.10959827917E+02  0.11647575532E+03  0.15310841025E+03  0.91745033973E+02 0.  0.
         24    2    1    2    0    0  0.18200724282E+02  0.26280316339E+01 -0.13587479717E+03  0.15876483182E+03  0.80038355821E+02 0.  0.
        -13    1    4    4    0    0 -0.25133787382E+02  0.23087243461E+02 -0.59864216613E+02  0.68909016170E+02  0.00000000000E+00 0.  1.
         14    1    4    4    0    0  0.43334511664E+02 -0.20459211827E+02 -0.76010580557E+02  0.89855815651E+02  0.00000000000E+00 0. -1.
        -13    1    3    3    0    0 -0.31434540095E+02  0.50421639257E+02  0.65435283977E+02  0.88386924403E+02  0.00000000000E+00 0. -1.
         13    1    3    3    0    0 -0.51484426529E+01 -0.39461811339E+02  0.51040471341E+02  0.64721485850E+02  0.00000000000E+00 0.  1.
         21    1    1    2  502  501  0.18382258466E+02 -0.13587859551E+02  0.72765102389E+02  0.76271210028E+02  0.00000000000E+00 0.  1.
<scales pt_clust_5="13000.00000" pt_clust_6="13000.00000" pt_clust_7="13000.00000" pt_clust_8="13000.00000" pt_clust_9="22.85908"></scales>
<clustering>
<clus scale="   22.859">  1  9  2 -1</clus>
<clus scale="   80.038">  5  6 -1 -1</clus>
<clus scale="   82.427">  2  5  1 -1</clus>
<clus scale="   91.745">  7  8 -1 -1</clus>
<clus scale="   82.427">  2  5  1 -1</clus>
</clustering>
</event>
<event>
 9    2  0.5608219E-005  0.1147538E+03  0.7546771E-02  0.1256171E+00
         -1   -1    0    0    0  501 -0.00000000000E+00  0.00000000000E+00  0.18409929662E+03  0.18409929662E+03  0.00000000000E+00 0.  1.
          2   -1    0    0  502    0  0.00000000000E+00 -0.00000000000E+00 -0.11592324965E+03  0.11592324965E+03  0.00000000000E+00 0. -1.
         24    2    1    2    0    0  0.57374985138E+02 -0.50565444368E+02  0.85990335590E+02  0.14025240752E+03  0.80172607020E+02 0.  0.
         23    2    1    2    0    0 -0.33037792329E+02  0.58586494425E+02 -0.45014937889E+02  0.12240021076E+03  0.91823711038E+02 0.  0.
        -13    1    3    3    0    0 -0.15664574519E+02 -0.26783503407E+02  0.11047270828E+02  0.32935955161E+02  0.00000000000E+00 0.  1.
         14    1    3    3    0    0  0.73039559658E+02 -0.23781940961E+02  0.74943064762E+02  0.10731645236E+03  0.00000000000E+00 0. -1.
        -13    1    4    4    0    0 -0.13993253993E+02 -0.24515797503E+02 -0.71899330788E+01  0.29129548953E+02  0.00000000000E+00 0.  1.
         13    1    4    4    0    0 -0.19044538337E+02  0.83102291928E+02 -0.37825004810E+02  0.93270661802E+02  0.00000000000E+00 0. -1.
         21    1    1    2  502  501 -0.24337192809E+02 -0.80210500568E+01  0.27200649271E+02  0.37369927999E+02  0.00000000000E+00 0.  1.
<scales pt_clust_5="13000.00000" pt_clust_6="13000.00000" pt_clust_7="13000.00000" pt_clust_8="13000.00000" pt_clust_9="25.62491"></scales>
<clustering>
<clus scale="   25.625">  1  9  2 -1</clus>
<clus scale="   80.173">  5  6 -1 -1</clus>
<clus scale="   91.824">  7  8 -1 -1</clus>
<clus scale="  105.662">  1  5  2 -1</clus>
<clus scale="  114.754">  2  5  1 -1</clus>
</clustering>
</event>
<event>
 9    2  0.5608219E-005  0.1013715E+03  0.7546771E-02  0.1284201E+00
         -1   -1    0    0    0  501 -0.00000000000E+00  0.00000000000E+00  0.13406915439E+03  0.13406915439E+03  0.00000000000E+00 0.  1.
          2   -1    0    0  502    0  0.00000000000E+00 -0.00000000000E+00 -0.27725455842E+03  0.27725455842E+03  0.00000000000E+00 0. -1.
         23    2    1    2    0    0 -0.24919914539E+01  0.15058791708E+02  0.28237058362E+02  0.98485293763E+02  0.93107703192E+02 0.  0.
         24    2    1    2    0    0 -0.30231725360E+02  0.37441161430E+02 -0.21693115956E+03  0.23603914666E+03  0.79621309848E+02 0.  0.
        -13    1    4    4    0    0 -0.22924383025E+02 -0.19117561862E+02 -0.38500686795E+02  0.48716643894E+02  0.00000000000E+00 0.  1.
         14    1    4    4    0    0 -0.73073423341E+01  0.56558723291E+02 -0.17843047276E+03  0.18732250277E+03  0.00000000000E+00 0. -1.
        -11    1    3    3    0    0  0.34009842490E+02  0.62897888394E+01  0.45510552981E+02  0.57161536565E+02  0.00000000000E+00 0.  1.
         11    1    3    3    0    0 -0.36501833944E+02  0.87690028691E+01 -0.17273494619E+02  0.41323757198E+02  0.00000000000E+00 0. -1.
         21    1    1    2  502  501  0.32723716813E+02 -0.52499953138E+02  0.45508697161E+02  0.76799272385E+02  0.00000000000E+00 0.  1.
<scales pt_clust_5="13000.00000" pt_clust_6="13000.00000" pt_clust_7="13000.00000" pt_clust_8="13000.00000" pt_clust_9="61.86345"></scales>
<clustering>
<clus scale="   61.863">  1  9  2 -1</clus>
<clus scale="   79.621">  5  6 -1 -1</clus>
<clus scale="   89.144">  2  5  1 -1</clus>
<clus scale="   93.108">  7  8 -1 -1</clus>
<clus scale="   89.144">  2  5  1 -1</clus>
</clustering>
</event>
<event>
 9    2  0.5608219E-005  0.9934887E+02  0.7546771E-02  0.1289583E+00
         -1   -1    0    0    0  501 -0.00000000000E+00  0.00000000000E+00  0.20712449637E+03  0.20712449637E+03  0.00000000000E+00 0.  1.
          2   -1    0    0  502    0  0.00000000000E+00 -0.00000000000E+00 -0.10414555256E+03  0.10414555256E+03  0.00000000000E+00 0. -1.
         23    2    1    2    0    0  0.27600458337E+02 -0.29230437655E+02  0.77374782599E+02  0.12960244105E+03  0.95883950464E+02 0.  0.
         24    2    1    2    0    0  0.34791626545E+02  0.12427086164E+02 -0.32046946832E+02  0.95072139544E+02  0.81528002356E+02 0.  0.
        -11    1    4    4    0    0  0.51872413114E+02  0.26247956032E+02 -0.41216403946E+02  0.71263555850E+02  0.00000000000E+00 0.  1.
         12    1    4    4    0    0 -0.17080786570E+02 -0.13820869868E+02  0.91694571137E+01  0.23808583694E+02  0.00000000000E+00 0. -1.
        -11    1    3    3    0    0 -0.30715440527E+02  0.10726322783E+01  0.38289305741E+01  0.30971753843E+02  0.00000000000E+00 0. -1.
         11    1    3    3    0    0  0.58315898864E+02 -0.30303069933E+02  0.73545852025E+02  0.98630687202E+02  0.00000000000E+00 0.  1.
         21    1    1    2  502  501 -0.62392084881E+02  0.16803351491E+02  0.57651108048E+02  0.86595468336E+02  0.00000000000E+00 0.  1.
<scales pt_clust_5="13000.00000" pt_clust_6="13000.00000" pt_clust_7="13000.00000" pt_clust_8="13000.00000" pt_clust_9="64.61521"></scales>
<clustering>
<clus scale="   64.615">  1  9  2 -1</clus>
<clus scale="   81.528">  5  6 -1 -1</clus>
<clus scale="   85.576">  2  5  1 -1</clus>
<clus scale="   95.884">  7  8 -1 -1</clus>
<clus scale="   85.576">  2  5  1 -1</clus>
</clustering>
</event>
<event>
 9    2  0.5608219E-005  0.1444243E+03  0.7546771E-02  0.1208415E+00
          2   -1    0    0  502    0  0.00000000000E+00  0.00000000000E+00  0.42424967352E+03  0.42424967352E+03  0.00000000000E+00 0. -1.
         -1   -1    0    0    0  501 -0.00000000000E+00 -0.00000000000E+00 -0.22894427105E+03  0.22894427105E+03  0.00000000000E+00 0.  1.
         23    2    1    2    0    0 -0.10835978479E+03  0.51682663845E+02 -0.18635593264E+03  0.23685994297E+03  0.83433555898E+02 0.  0.
         24    2    1    2    0    0  0.84700411842E+02 -0.24969228007E+02  0.34712308615E+03  0.36667250522E+03  0.78464431606E+02 0.  0.
        -11    1    4    4    0    0 -0.59508454886E+01 -0.26037799832E+02  0.97685660964E+02  0.10127125920E+03  0.00000000000E+00 0.  1.
         12    1    4    4    0    0  0.90651257330E+02  0.10685718257E+01  0.24943742519E+03  0.26540124602E+03  0.00000000000E+00 0. -1.
        -13    1    3    3    0    0 -0.19346770638E+02 -0.22540876304E+02 -0.29843308214E+02  0.42107145282E+02  0.00000000000E+00 0. -1.
         13    1    3    3    0    0 -0.89013014156E+02  0.74223540150E+02 -0.15651262443E+03  0.19475279769E+03  0.00000000000E+00 0.  1.
         21    1    1    2  502  501  0.23659372952E+02 -0.26713435839E+02  0.34538248959E+02  0.49661496393E+02  0.00000000000E+00 0. -1.
<scales pt_clust_5="13000.00000" pt_clust_6="13000.00000" pt_clust_7="13000.00000" pt_clust_8="13000.00000" pt_clust_9="35.68436"></scales>
<clustering>
<clus scale="   35.684">  1  9  2 -1</clus>
<clus scale="   78.464">  5  6 -1 -1</clus>
<clus scale="   83.434">  7  8 -1 -1</clus>
<clus scale="  141.612">  1  5  2 -1</clus>
<clus scale="   35.684">  1  5  2 -1</clus>
</clustering>
</event>
<event>
 9    2  0.5608219E-005  0.9998144E+02  0.7546771E-02  0.1283723E+00
         -1   -1    0    0    0  501 -0.00000000000E+00  0.00000000000E+00  0.20460505514E+03  0.20460505514E+03  0.00000000000E+00 0.  1.
          2   -1    0    0  502    0  0.00000000000E+00 -0.00000000000E+00 -0.97023894988E+02  0.97023894988E+02  0.00000000000E+00 0. -1.
         24    2    1    2    0    0 -0.16191850183E+02  0.45443091527E+02  0.13212487883E+03  0.16430404724E+03  0.84921056002E+02 0.  0.
         23    2    1    2    0    0  0.31572189777E+02 -0.23348800031E+02 -0.38543865278E+02  0.10698158950E+03  0.91746723708E+02 0.  0.
        -13    1    3    3    0    0 -0.44036735043E+02  0.38584219951E+02  0.11929396174E+03  0.13288726565E+03  0.00000000000E+00 0.  1.
         14    1    3    3    0    0  0.27844884860E+02  0.68588715755E+01  0.12830917086E+02  0.31416781589E+02  0.00000000000E+00 0. -1.
        -11    1    4    4    0    0 -0.20503882708E+02  0.21159904234E+02 -0.21248542551E+02  0.36327005297E+02  0.00000000000E+00 0.  1.
         11    1    4    4    0    0  0.52076072484E+02 -0.44508704265E+02 -0.17295322727E+02  0.70654584203E+02  0.00000000000E+00 0. -1.
         21    1    1    2  502  501 -0.15380339594E+02 -0.22094291496E+02  0.14000146598E+02  0.30343313390E+02  0.00000000000E+00 0. -1.
<scales pt_clust_5="13000.00000" pt_clust_6="13000.00000" pt_clust_7="13000.00000" pt_clust_8="13000.00000" pt_clust_9="26.92049"></scales>
<clustering>
<clus scale="   26.920">  1  9  2 -1</clus>
<clus scale="   84.921">  5  6 -1 -1</clus>
<clus scale="   91.747">  7  8 -1 -1</clus>
<clus scale="   93.757">  1  5  2 -1</clus>
<clus scale="   99.981">  2  5  1 -1</clus>
</clustering>
</event>
<event>
 9    2  0.5967082E-005  0.3287801E+03  0.7546771E-02  0.1071732E+00
         -1   -1    0    0    0  501 -0.00000000000E+00  0.00000000000E+00  0.47466365065E+03  0.47466365065E+03  0.00000000000E+00 0.  1.
          2   -1    0    0  502    0  0.00000000000E+00 -0.00000000000E+00 -0.73284042136E+03  0.73284042136E+03  0.00000000000E+00 0. -1.
         23    2    1    2    0    0 -0.61051019734E+02  0.31013234279E+03  0.35002829210E+03  0.48012526617E+03  0.89950924865E+02 0.  0.
         24    2    1    2    0    0  0.18770657914E+02 -0.31984825956E+03 -0.59588447676E+03  0.68228085827E+03  0.88168096173E+02 0.  0.
        -13    1    4    4    0    0 -0.18556151262E+02 -0.92435534711E+02 -0.24468606048E+03  0.26222114144E+03  0.00000000000E+00 0.  1.
         14    1    4    4    0    0  0.37326809175E+02 -0.22741272485E+03 -0.35119841628E+03  0.42005971683E+03  0.00000000000E+00 0. -1.
        -13    1    3    3    0    0 -0.76957072983E+02  0.20685902091E+03  0.20388870612E+03  0.30047237826E+03  0.00000000000E+00 0.  1.
         13    1    3    3    0    0  0.15906053249E+02  0.10327332188E+03  0.14613958598E+03  0.17965288791E+03  0.00000000000E+00 0. -1.
         21    1    1    2  502  501  0.42280361820E+02  0.97159167701E+01 -0.12320586063E+02  0.45097947573E+02  0.00000000000E+00 0. -1.
<scales pt_clust_5="13000.00000" pt_clust_6="13000.00000" pt_clust_7="13000.00000" pt_clust_8="13000.00000" pt_clust_9="43.38235"></scales>
<clustering>
<clus scale="   43.382">  2  9  1 -1</clus>
<clus scale="   88.168">  5  6 -1 -1</clus>
<clus scale="   89.951">  7  8 -1 -1</clus>
<clus scale="  328.297">  2  5  1 -1</clus>
<clus scale="   43.382">  2  5  1 -1</clus>
</clustering>
</event>
<event>
 9    2  0.5608219E-005  0.1031359E+03  0.7546771E-02  0.1279552E+00
         -1   -1    0    0    0  501 -0.00000000000E+00  0.00000000000E+00  0.35648594043E+02  0.35648594043E+02  0.00000000000E+00 0.  1.
          2   -1    0    0  502    0  0.00000000000E+00 -0.00000000000E+00 -0.39221412636E+03  0.39221412636E+03  0.00000000000E+00 0. -1.
         24    2    1    2    0    0 -0.65870566129E+02 -0.84223422937E+01 -0.13336593924E+03  0.16841720517E+03  0.78536704269E+02 0.  0.
         23    2    1    2    0    0  0.36316619019E+02  0.80732584916E+01 -0.19626704136E+03  0.21945901761E+03  0.90870427359E+02 0.  0.
        -13    1    3    3    0    0 -0.37336308616E+02 -0.34788656899E+02 -0.32943336774E+02  0.60741369985E+02  0.00000000000E+00 0.  1.
         14    1    3    3    0    0 -0.28534257514E+02  0.26366314605E+02 -0.10042260247E+03  0.10767583519E+03  0.00000000000E+00 0. -1.
        -13    1    4    4    0    0  0.21926372155E+02  0.34924035725E+02 -0.31478374082E+02  0.51878146671E+02  0.00000000000E+00 0. -1.
         13    1    4    4    0    0  0.14390246864E+02 -0.26850777233E+02 -0.16478866728E+03  0.16758087094E+03  0.00000000000E+00 0.  1.
         21    1    1    2  502  501  0.29553947110E+02  0.34908380207E+00 -0.26932551712E+02  0.39986497609E+02  0.00000000000E+00 0.  1.
<scales pt_clust_5="13000.00000" pt_clust_6="13000.00000" pt_clust_7="13000.00000" pt_clust_8="13000.00000" pt_clust_9="29.55601"></scales>
<clustering>
<clus scale="   29.556">  1  9  2 -1</clus>
<clus scale="   78.537">  5  6 -1 -1</clus>
<clus scale="   90.870">  7  8 -1 -1</clus>
<clus scale="   92.453">  1  5  2 -1</clus>
<clus scale="  103.136">  2  5  1 -1</clus>
</clustering>
</event>
<event>
 9    2  0.5608219E-005  0.3646721E+03  0.7546771E-02  0.1056846E+00
          2   -1    0    0  502    0  0.00000000000E+00  0.00000000000E+00  0.13174886809E+04  0.13174886809E+04  0.00000000000E+00 0. -1.
         -1   -1    0    0    0  501 -0.00000000000E+00 -0.00000000000E+00 -0.28505259065E+03  0.28505259065E+03  0.00000000000E+00 0.  1.
         23    2    1    2    0    0 -0.33028746032E+03  0.11812891994E+02 -0.13799811590E+02  0.34357643499E+03  0.92870775923E+02 0.  0.
         24    2    1    2    0    0  0.35409039481E+03  0.31555827622E+02  0.11149814420E+04  0.11742690585E+04  0.96687268790E+02 0.  0.
        -11    1    4    4    0    0  0.63898912811E+02 -0.11608931621E+02  0.11425557168E+03  0.13142364328E+03  0.00000000000E+00 0.  1.
         12    1    4    4    0    0  0.29019148200E+03  0.43164759243E+02  0.10007258703E+04  0.10428454153E+04  0.00000000000E+00 0. -1.
        -13    1    3    3    0    0 -0.28313652714E+02  0.98643613972E+01  0.25098750431E+02  0.39101353288E+02  0.00000000000E+00 0. -1.
         13    1    3    3    0    0 -0.30197380761E+03  0.19485305966E+01 -0.38898562021E+02  0.30447508170E+03  0.00000000000E+00 0.  1.
         21    1    1    2  502  501 -0.23802934492E+02 -0.43368719616E+02 -0.68745540109E+02  0.84695778032E+02  0.00000000000E+00 0.  1.
<scales pt_clust_5="13000.00000" pt_clust_6="13000.00000" pt_clust_7="13000.00000" pt_clust_8="13000.00000" pt_clust_9="49.47146"></scales>
<clustering>
<clus scale="   49.471">  2  9  1 -1</clus>
<clus scale="   92.871">  7  8 -1 -1</clus>
<clus scale="   96.687">  5  6 -1 -1</clus>
<clus scale="  363.679">  2  7  1 -1</clus>
<clus scale="  364.672">  1  5  2 -1</clus>
</clustering>
</event>
<event>
 9    2  0.5608219E-005  0.1488208E+03  0.7546771E-02  0.1211276E+00
         -1   -1    0    0    0  501 -0.00000000000E+00  0.00000000000E+00  0.72634395098E+02  0.72634395098E+02  0.00000000000E+00 0.  1.
          2   -1    0    0  502    0  0.00000000000E+00 -0.00000000000E+00 -0.44517024031E+03  0.44517024031E+03  0.00000000000E+00 0. -1.
         24    2    1    2    0    0  0.38227643721E+02 -0.59279234569E+02 -0.96606720707E+02  0.14466106632E+03  0.81354687811E+02 0.  0.
         23    2    1    2    0    0 -0.11174979091E+03  0.49432650376E+02 -0.22976888064E+03  0.28577521405E+03  0.11807680452E+03 0.  0.
        -11    1    3    3    0    0  0.51332284017E+02 -0.66254473599E+02 -0.54400988950E+02  0.99920599744E+02  0.00000000000E+00 0.  1.
         12    1    3    3    0    0 -0.13104640296E+02  0.69752390299E+01 -0.42205731756E+02  0.44740466581E+02  0.00000000000E+00 0. -1.
        -13    1    4    4    0    0 -0.40374865751E+02 -0.38684991425E+02 -0.64793585643E+02  0.85585437351E+02  0.00000000000E+00 0. -1.
         13    1    4    4    0    0 -0.71374925155E+02  0.88117641802E+02 -0.16497529499E+03  0.20018977670E+03  0.00000000000E+00 0.  1.
         21    1    1    2  502  501  0.73522147185E+02  0.98465841930E+01 -0.46160243869E+02  0.87368355032E+02  0.00000000000E+00 0.  1.
<scales pt_clust_5="13000.00000" pt_clust_6="13000.00000" pt_clust_7="13000.00000" pt_clust_8="13000.00000" pt_clust_9="74.17858"></scales>
<clustering>
<clus scale="   74.179">  1  9  2 -1</clus>
<clus scale="   81.355">  5  6 -1 -1</clus>
<clus scale="  118.077">  7  8 -1 -1</clus>
<clus scale="  121.754">  1  5  2 -1</clus>
<clus scale="  148.821">  2  5  1 -1</clus>
</clustering>
</event>
<event>
 9    2  0.5608219E-005  0.1085606E+03  0.7546771E-02  0.1267405E+00
         -1   -1    0    0    0  501 -0.00000000000E+00  0.00000000000E+00  0.50680462041E+02  0.50680462041E+02  0.00000000000E+00 0.  1.
          2   -1    0    0  502    0  0.00000000000E+00 -0.00000000000E+00 -0.34059729758E+03  0.34059729758E+03  0.00000000000E+00 0. -1.
         23    2    1    2    0    0  0.22007455076E+02 -0.65907706244E+02 -0.12220669216E+03  0.16821012442E+03  0.92368915376E+02 0.  0.
         24    2    1    2    0    0  0.19595077351E+02  0.50843361924E+02 -0.13840729137E+03  0.16999822489E+03  0.82303120574E+02 0.  0.
        -11    1    4    4    0    0  0.25916109460E+01  0.47458430035E+02 -0.22117719386E+02  0.52423396871E+02  0.00000000000E+00 0.  1.
         12    1    4    4    0    0  0.17003466405E+02  0.33849318888E+01 -0.11628957198E+03  0.11757482802E+03  0.00000000000E+00 0. -1.
        -11    1    3    3    0    0  0.33794396719E+02  0.90473590055E+01 -0.62633463725E+02  0.71741666643E+02  0.00000000000E+00 0. -1.
         11    1    3    3    0    0 -0.11786941644E+02 -0.74955065249E+02 -0.59573228437E+02  0.96468457779E+02  0.00000000000E+00 0.  1.
         21    1    1    2  502  501 -0.41602532426E+02  0.15064344320E+02 -0.29302852015E+02  0.53069410306E+02  0.00000000000E+00 0.  1.
<scales pt_clust_5="13000.00000" pt_clust_6="13000.00000" pt_clust_7="13000.00000" pt_clust_8="13000.00000" pt_clust_9="44.24596"></scales>
<clustering>
<clus scale="   44.246">  1  9  2 -1</clus>
<clus scale="   82.303">  5  6 -1 -1</clus>
<clus scale="   92.369">  7  8 -1 -1</clus>
<clus scale="  100.136">  2  5  1 -1</clus>
<clus scale="  100.136">  2  5  1 -1</clus>
</clustering>
</event>
<event>
 9    2  0.5608219E-005  0.1162773E+03  0.7546771E-02  0.1254270E+00
          4   -1    0    0  502    0  0.00000000000E+00  0.00000000000E+00  0.43266420118E+02  0.43266420118E+02  0.00000000000E+00 0. -1.
         -3   -1    0    0    0  501 -0.00000000000E+00 -0.00000000000E+00 -0.54626830140E+03  0.54626830140E+03  0.00000000000E+00 0.  1.
         24    2    1    2    0    0 -0.54904275270E+02  0.10541770395E+02 -0.34401902897E+03  0.35756383944E+03  0.79857364153E+02 0.  0.
         23    2    1    2    0    0  0.72840379478E+02  0.13587158477E+01 -0.64504817290E+02  0.13507183922E+03  0.93680111579E+02 0.  0.
        -11    1    3    3    0    0 -0.40500799267E+02 -0.27662260880E+02 -0.25436926261E+03  0.25905450620E+03  0.00000000000E+00 0.  1.
         12    1    3    3    0    0 -0.14403476003E+02  0.38204031275E+02 -0.89649766363E+02  0.98509333241E+02  0.00000000000E+00 0. -1.
        -13    1    4    4    0    0 -0.97324093354E+01 -0.28239950027E+02 -0.87131476373E+01  0.31114843897E+02  0.00000000000E+00 0.  1.
         13    1    4    4    0    0  0.82572788813E+02  0.29598665874E+02 -0.55791669653E+02  0.10395699532E+03  0.00000000000E+00 0. -1.
         21    1    1    2  502  501 -0.17936104208E+02 -0.11900486243E+02 -0.94478035015E+02  0.96899042860E+02  0.00000000000E+00 0.  1.
<scales pt_clust_5="13000.00000" pt_clust_6="13000.00000" pt_clust_7="13000.00000" pt_clust_8="13000.00000" pt_clust_9="21.52499"></scales>
<clustering>
<clus scale="   21.525">  2  9  1 -1</clus>
<clus scale="   79.857">  5  6 -1 -1</clus>
<clus scale="   93.680">  7  8 -1 -1</clus>
<clus scale="  105.459">  2  5  1 -1</clus>
<clus scale="  116.277">  1  5  2 -1</clus>
</clustering>
</event>
<event>
 9    2  0.5608219E-005  0.1038063E+03  0.7546771E-02  0.1279710E+00
          2   -1    0    0  502    0  0.00000000000E+00  0.00000000000E+00  0.30357674533E+03  0.30357674533E+03  0.00000000000E+00 0. -1.
         -1   -1    0    0    0  501 -0.00000000000E+00 -0.00000000000E+00 -0.15117712275E+03  0.15117712275E+03  0.00000000000E+00 0.  1.
         23    2    1    2    0    0  0.24785768221E+02  0.58007595659E+02 -0.38764957537E+02  0.11853606180E+03  0.92568140054E+02 0.  0.
         24    2    1    2    0    0  0.10734699011E+02 -0.45210515498E+02  0.25031244850E+03  0.26604702042E+03  0.77236459832E+02 0.  0.
        -13    1    4    4    0    0 -0.14893892582E+02  0.15848656267E+02  0.90121833124E+02  0.92708967999E+02  0.00000000000E+00 0.  1.
         14    1    4    4    0    0  0.25628591592E+02 -0.61059171766E+02  0.16019061538E+03  0.17333805243E+03  0.00000000000E+00 0. -1.
        -11    1    3    3    0    0 -0.22409448875E+02  0.58761971864E+02 -0.32888380524E+02  0.70970404463E+02  0.00000000000E+00 0.  1.
         11    1    3    3    0    0  0.47195217096E+02 -0.75437620475E+00 -0.58765770127E+01  0.47565657334E+02  0.00000000000E+00 0. -1.
         21    1    1    2  502  501 -0.35520467232E+02 -0.12797080161E+02 -0.59147868390E+02  0.70170785859E+02  0.00000000000E+00 0. -1.
<scales pt_clust_5="13000.00000" pt_clust_6="13000.00000" pt_clust_7="13000.00000" pt_clust_8="13000.00000" pt_clust_9="37.75538"></scales>
<clustering>
<clus scale="   37.755">  2  9  1 -1</clus>
<clus scale="   77.236">  5  6 -1 -1</clus>
<clus scale="   90.401">  1  5  2 -1</clus>
<clus scale="   92.568">  7  8 -1 -1</clus>
<clus scale="   90.401">  1  5  2 -1</clus>
</clustering>
</event>
<event>
 9    2  0.5608219E-005  0.9397610E+02  0.7546771E-02  0.1302695E+00
          2   -1    0    0  502    0  0.00000000000E+00  0.00000000000E+00  0.91249775165E+03  0.91249775165E+03  0.00000000000E+00 0. -1.
         -1   -1    0    0    0  501 -0.00000000000E+00 -0.00000000000E+00 -0.32663937814E+02  0.32663937814E+02  0.00000000000E+00 0.  1.
         23    2    1    2    0    0  0.16631195548E+02  0.34013702453E+02  0.13267583630E+03  0.16592497402E+03  0.92166647146E+02 0.  0.
         24    2    1    2    0    0 -0.18111716190E+02 -0.12242321331E-01  0.74028968070E+03  0.74451691225E+03  0.77127082481E+02 0.  0.
        -11    1    4    4    0    0  0.20796726348E+02 -0.20819916685E+02  0.17045352977E+03  0.17297508077E+03  0.00000000000E+00 0.  1.
         12    1    4    4    0    0 -0.38908442537E+02  0.20807674363E+02  0.56983615093E+03  0.57154183147E+03  0.00000000000E+00 0. -1.
        -11    1    3    3    0    0  0.64156335763E+01  0.65468473801E+02  0.97769155837E+02  0.11783925173E+03  0.00000000000E+00 0.  1.
         11    1    3    3    0    0  0.10215561972E+02 -0.31454771349E+02  0.34906680463E+02  0.48085722288E+02  0.00000000000E+00 0. -1.
         21    1    1    2  502  501  0.14805206417E+01 -0.34001460131E+02  0.68682968290E+01  0.34719803193E+02  0.00000000000E+00 0. -1.
<scales pt_clust_5="13000.00000" pt_clust_6="13000.00000" pt_clust_7="13000.00000" pt_clust_8="13000.00000" pt_clust_9="34.03368"></scales>
<clustering>
<clus scale="   34.034">  2  9  1 -1</clus>
<clus scale="   77.127">  5  6 -1 -1</clus>
<clus scale="   79.281">  1  5  2 -1</clus>
<clus scale="   92.167">  7  8 -1 -1</clus>
<clus scale="   79.281">  1  5  2 -1</clus>
</clustering>
</event>
<event>
 9    2  0.5608219E-005  0.1420971E+03  0.7546771E-02  0.1210821E+00
         -1   -1    0    0    0  501 -0.00000000000E+00  0.00000000000E+00  0.96467567247E+03  0.96467567247E+03  0.00000000000E+00 0.  1.
          2   -1    0    0  502    0  0.00000000000E+00 -0.00000000000E+00 -0.51141800864E+02  0.51141800864E+02  0.00000000000E+00 0. -1.
         23    2    1    2    0    0  0.18802220317E+02 -0.82730565128E+02  0.40233648583E+03  0.42132257869E+03  0.91870547978E+02 0.  0.
         24    2    1    2    0    0 -0.48774478079E+02  0.13450159455E+03  0.50700560447E+03  0.53452701363E+03  0.90525226832E+02 0.  0.
        -13    1    4    4    0    0 -0.69286809373E+02  0.11596148552E+03  0.35112757968E+03  0.37621576959E+03  0.00000000000E+00 0.  1.
         14    1    4    4    0    0  0.20512331294E+02  0.18540109024E+02  0.15587802479E+03  0.15831124404E+03  0.00000000000E+00 0. -1.
        -13    1    3    3    0    0  0.47859889292E+02 -0.17250291955E+02  0.12678405531E+03  0.13661016893E+03  0.00000000000E+00 0. -1.
         13    1    3    3    0    0 -0.29057668975E+02 -0.65480273173E+02  0.27555243052E+03  0.28471240976E+03  0.00000000000E+00 0.  1.
         21    1    1    2  502  501  0.29972257762E+02 -0.51771029420E+02  0.41917813053E+01  0.59967881012E+02  0.00000000000E+00 0. -1.
<scales pt_clust_5="13000.00000" pt_clust_6="13000.00000" pt_clust_7="13000.00000" pt_clust_8="13000.00000" pt_clust_9="59.82120"></scales>
<clustering>
<clus scale="   59.821">  2  9  1 -1</clus>
<clus scale="   90.525">  5  6 -1 -1</clus>
<clus scale="   91.871">  7  8 -1 -1</clus>
<clus scale="  141.231">  2  5  1 -1</clus>
<clus scale="   59.821">  2  5  1 -1</clus>
</clustering>
</event>
<event>
 9    2  0.5608219E-005  0.1524937E+03  0.7546771E-02  0.1198704E+00
          2   -1    0    0  502    0  0.00000000000E+00  0.00000000000E+00  0.67616686182E+03  0.67616686182E+03  0.00000000000E+00 0. -1.
         -1   -1    0    0    0  501 -0.00000000000E+00 -0.00000000000E+00 -0.11474675957E+03  0.11474675957E+03  0.00000000000E+00 0.  1.
         24    2    1    2    0    0  0.16947394515E+03  0.35247890527E+02  0.84109416513E+02  0.20992180207E+03  0.83838756952E+02 0.  0.
         23    2    1    2    0    0 -0.11414883578E+03  0.12751147679E+02  0.48565427423E+03  0.50727349823E+03  0.90960317995E+02 0.  0.
        -13    1    3    3    0    0  0.11633214811E+03  0.43172990391E+02  0.19041258985E+02  0.12553742601E+03  0.00000000000E+00 0.  1.
         14    1    3    3    0    0  0.53141797037E+02 -0.79250998638E+01  0.65068157528E+02  0.84384376067E+02  0.00000000000E+00 0. -1.
        -11    1    4    4    0    0 -0.58866389465E+02 -0.36256506888E+02  0.29023770557E+03  0.29835836143E+03  0.00000000000E+00 0.  1.
         11    1    4    4    0    0 -0.55282446320E+02  0.49007654567E+02  0.19541656866E+03  0.20891513680E+03  0.00000000000E+00 0. -1.
         21    1    1    2  502  501 -0.55325109367E+02 -0.47999038206E+02 -0.83435884854E+01  0.73718321088E+02  0.00000000000E+00 0.  1.
<scales pt_clust_5="13000.00000" pt_clust_6="13000.00000" pt_clust_7="13000.00000" pt_clust_8="13000.00000" pt_clust_9="73.24463"></scales>
<clustering>
<clus scale="   73.245">  2  9  1 -1</clus>
<clus scale="   83.839">  5  6 -1 -1</clus>
<clus scale="   90.960">  7  8 -1 -1</clus>
<clus scale="  148.356">  2  5  1 -1</clus>
<clus scale="  152.494">  1  5  2 -1</clus>
</clustering>
</event>
<event>
 9    2  0.5608219E-005  0.4917460E+03  0.7546771E-02  0.1016085E+00
          2   -1    0    0  502    0  0.00000000000E+00  0.00000000000E+00  0.20437201053E+04  0.20437201053E+04  0.00000000000E+00 0. -1.
         -1   -1    0    0    0  501 -0.00000000000E+00 -0.00000000000E+00 -0.13594324823E+03  0.13594324823E+03  0.00000000000E+00 0.  1.
         24    2    1    2    0    0 -0.17111797602E+03 -0.46413067232E+03  0.77146683610E+03  0.91993374969E+03  0.80114804506E+02 0.  0.
         23    2    1    2    0    0  0.14674866563E+03  0.45252439798E+03  0.11334170521E+04  0.12325829989E+04  0.91176386811E+02 0.  0.
        -11    1    3    3    0    0 -0.15389343502E+03 -0.32666323633E+03  0.52494454889E+03  0.63714899256E+03  0.00000000000E+00 0.  1.
         12    1    3    3    0    0 -0.17224541000E+02 -0.13746743599E+03  0.24652228721E+03  0.28278475712E+03  0.00000000000E+00 0. -1.
        -13    1    4    4    0    0  0.14493634238E+03  0.34384005700E+03  0.92732296062E+03  0.99958011256E+03  0.00000000000E+00 0. -1.
         13    1    4    4    0    0  0.18123232526E+01  0.10868434098E+03  0.20609409147E+03  0.23300288631E+03  0.00000000000E+00 0.  1.
         21    1    1    2  502  501  0.24369310387E+02  0.11606274341E+02  0.28929688883E+01  0.27146604977E+02  0.00000000000E+00 0.  1.
<scales pt_clust_5="13000.00000" pt_clust_6="13000.00000" pt_clust_7="13000.00000" pt_clust_8="13000.00000" pt_clust_9="26.99202"></scales>
<clustering>
<clus scale="   26.992">  2  9  1 -1</clus>
<clus scale="   80.115">  5  6 -1 -1</clus>
<clus scale="   91.176">  7  8 -1 -1</clus>
<clus scale="  489.816">  2  5  1 -1</clus>
<clus scale="  491.746">  1  5  2 -1</clus>
</clustering>
</event>
<event>
 9    2  0.5608219E-005  0.1637708E+03  0.7546771E-02  0.1185554E+00
         -1   -1    0    0    0  501 -0.00000000000E+00  0.00000000000E+00  0.46498888804E+03  0.46498888804E+03  0.00000000000E+00 0.  1.
          2   -1    0    0  502    0  0.00000000000E+00 -0.00000000000E+00 -0.84234128971E+02  0.84234128971E+02  0.00000000000E+00 0. -1.
         24    2    1    2    0    0 -0.10801610854E+03  0.11338692784E+03  0.28692829313E+03  0.33677414864E+03  0.81024111735E+02 0.  0.
         23    2    1    2    0    0  0.73350498795E+02 -0.73325371646E+02  0.55510057421E+02  0.14706706704E+03  0.88263525494E+02 0.  0.
        -11    1    3    3    0    0 -0.76867913663E+02  0.23986398244E+02  0.15096368332E+03  0.17109663098E+03  0.00000000000E+00 0.  1.
         12    1    3    3    0    0 -0.31148194880E+02  0.89400529594E+02  0.13596460982E+03  0.16567751766E+03  0.00000000000E+00 0. -1.
        -13    1    4    4    0    0  0.65000103450E+01 -0.68453703923E+02  0.22481015986E+02  0.72343318938E+02  0.00000000000E+00 0. -1.
         13    1    4    4    0    0  0.66850488450E+02 -0.48716677233E+01  0.33029041435E+02  0.74723748103E+02  0.00000000000E+00 0.  1.
         21    1    1    2  502  501  0.34665609748E+02 -0.40061556191E+02  0.38316408511E+02  0.65381801328E+02  0.00000000000E+00 0. -1.
<scales pt_clust_5="13000.00000" pt_clust_6="13000.00000" pt_clust_7="13000.00000" pt_clust_8="13000.00000" pt_clust_9="52.97766"></scales>
<clustering>
<clus scale="   52.978">  2  9  1 -1</clus>
<clus scale="   81.024">  5  6 -1 -1</clus>
<clus scale="   88.264">  7  8 -1 -1</clus>
<clus scale="  159.985">  1  5  2 -1</clus>
<clus scale="   52.978">  2  5  1 -1</clus>
</clustering>
</event>
<event>
 9    2  0.5608219E-005  0.1034559E+03  0.7546771E-02  0.1277407E+00
          2   -1    0    0  502    0  0.00000000000E+00  0.00000000000E+00  0.37545156401E+03  0.37545156401E+03  0.00000000000E+00 0. -1.
         -1   -1    0    0    0  501 -0.00000000000E+00 -0.00000000000E+00 -0.91778298241E+02  0.91778298241E+02  0.00000000000E+00 0.  1.
         23    2    1    2    0    0  0.60655802841E+02  0.17234063703E+00  0.11615685762E+02  0.10979629136E+03  0.90780754132E+02 0.  0.
         24    2    1    2    0    0 -0.45716385295E+02  0.15970243922E+02  0.30411798919E+03  0.31855376804E+03  0.81508988508E+02 0.  0.
        -13    1    4    4    0    0 -0.13359319439E+02  0.24490818035E+02  0.25070466549E+02  0.37507330975E+02  0.00000000000E+00 0.  1.
         14    1    4    4    0    0 -0.32357065856E+02 -0.85205741130E+01  0.27904752264E+03  0.28104643707E+03  0.00000000000E+00 0. -1.
        -11    1    3    3    0    0  0.35253023290E+02 -0.35544693436E+02  0.34064555370E+02  0.60552413784E+02  0.00000000000E+00 0. -1.
         11    1    3    3    0    0  0.25402779551E+02  0.35717034073E+02 -0.22448869608E+02  0.49243877574E+02  0.00000000000E+00 0.  1.
         21    1    1    2  502  501 -0.14939417546E+02 -0.16142584559E+02 -0.32060409184E+02  0.38879802853E+02  0.00000000000E+00 0.  1.
<scales pt_clust_5="13000.00000" pt_clust_6="13000.00000" pt_clust_7="13000.00000" pt_clust_8="13000.00000" pt_clust_9="21.99475"></scales>
<clustering>
<clus scale="   21.995">  2  9  1 -1</clus>
<clus scale="   81.509">  5  6 -1 -1</clus>
<clus scale="   90.781">  7  8 -1 -1</clus>
<clus scale="   95.424">  1  5  2 -1</clus>
<clus scale="   95.424">  1  5  2 -1</clus>
</clustering>
</event>
<event>
 9    2  0.5608219E-005  0.1566543E+03  0.7546771E-02  0.1193830E+00
         -1   -1    0    0    0  501 -0.00000000000E+00  0.00000000000E+00  0.75908055451E+02  0.75908055451E+02  0.00000000000E+00 0.  1.
          2   -1    0    0  502    0  0.00000000000E+00 -0.00000000000E+00 -0.57363451130E+03  0.57363451130E+03  0.00000000000E+00 0. -1.
         23    2    1    2    0    0 -0.28391619794E+02  0.11999680641E+03 -0.18019529844E+03  0.23602786900E+03  0.89629748086E+02 0.  0.
         24    2    1    2    0    0  0.51774751254E+02 -0.12170600156E+03 -0.34440212816E+03  0.37785321638E+03  0.81653239750E+02 0.  0.
        -13    1    4    4    0    0 -0.42495098348E+01 -0.85718758463E+02 -0.22990343284E+03  0.24540039184E+03  0.00000000000E+00 0.  1.
         14    1    4    4    0    0  0.56024261088E+02 -0.35987243093E+02 -0.11449869532E+03  0.13245282453E+03  0.00000000000E+00 0. -1.
        -11    1    3    3    0    0  0.12156844808E+02  0.92553830742E+02 -0.74114988020E+02  0.11919325446E+03  0.00000000000E+00 0.  1.
         11    1    3    3    0    0 -0.40548464602E+02  0.27442975670E+02 -0.10608031042E+03  0.11683461454E+03  0.00000000000E+00 0. -1.
         21    1    1    2  502  501 -0.23383131460E+02  0.17091951443E+01  0.26870970750E+02  0.35661481376E+02  0.00000000000E+00 0.  1.
<scales pt_clust_5="13000.00000" pt_clust_6="13000.00000" pt_clust_7="13000.00000" pt_clust_8="13000.00000" pt_clust_9="23.44552"></scales>
<clustering>
<clus scale="   23.446">  1  9  2 -1</clus>
<clus scale="   81.653">  5  6 -1 -1</clus>
<clus scale="   89.630">  7  8 -1 -1</clus>
<clus scale="  152.231">  2  5  1 -1</clus>
<clus scale="  152.231">  2  5  1 -1</clus>
</clustering>
</event>
<event>
 9    2  0.5608219E-005  0.9530933E+02  0.7546771E-02  0.1298183E+00
         -1   -1    0    0    0  501 -0.00000000000E+00  0.00000000000E+00  0.10251722675E+03  0.10251722675E+03  0.00000000000E+00 0.  1.
          2   -1    0    0  502    0  0.00000000000E+00 -0.00000000000E+00 -0.92836339339E+03  0.92836339339E+03  0.00000000000E+00 0. -1.
         23    2    1    2    0    0  0.18134227942E+02 -0.17128239047E+02 -0.30003126506E+03  0.31533925232E+03  0.93796893584E+02 0.  0.
         24    2    1    2    0    0  0.24408506729E+02 -0.23860158279E+02 -0.60801544025E+03  0.61431458508E+03  0.80836572844E+02 0.  0.
        -11    1    4    4    0    0 -0.13468496827E+02  0.15038476381E+02 -0.54088261582E+02  0.57732973417E+02  0.00000000000E+00 0.  1.
         12    1    4    4    0    0  0.37877003556E+02 -0.38898634660E+02 -0.55392717867E+03  0.55658161166E+03  0.00000000000E+00 0. -1.
        -11    1    3    3    0    0 -0.14022136238E+02  0.26259738409E+02 -0.40587259606E+02  0.50334081975E+02  0.00000000000E+00 0.  1.
         11    1    3    3    0    0  0.32156364180E+02 -0.43387977455E+02 -0.25944400545E+03  0.26500517034E+03  0.00000000000E+00 0. -1.
         21    1    1    2  502  501 -0.42542734671E+02  0.40988397326E+02  0.82200538657E+02  0.10122678274E+03  0.00000000000E+00 0.  1.
<scales pt_clust_5="13000.00000" pt_clust_6="13000.00000" pt_clust_7="13000.00000" pt_clust_8="13000.00000" pt_clust_9="59.07565"></scales>
<clustering>
<clus scale="   59.076">  1  9  2 -1</clus>
<clus scale="   80.837">  5  6 -1 -1</clus>
<clus scale="   82.587">  2  5  1 -1</clus>
<clus scale="   93.797">  7  8 -1 -1</clus>
<clus scale="   82.587">  2  5  1 -1</clus>
</clustering>
</event>
<event>
 9    2  0.5608219E-005  0.1254689E+03  0.7546771E-02  0.1236104E+00
          2   -1    0    0  502    0  0.00000000000E+00  0.00000000000E+00  0.59118513642E+03  0.59118513642E+03  0.00000000000E+00 0. -1.
         -1   -1    0    0    0  501 -0.00000000000E+00 -0.00000000000E+00 -0.11234828332E+03  0.11234828332E+03  0.00000000000E+00 0.  1.
         23    2    1    2    0    0  0.55700574177E+01  0.33918763067E+02 -0.46608036469E+02  0.10420216084E+03  0.86627208382E+02 0.  0.
         24    2    1    2    0    0 -0.74697377367E+02 -0.62450965545E+02  0.50682726358E+03  0.52226447658E+03  0.80040534123E+02 0.  0.
        -11    1    4    4    0    0 -0.51143435182E+02  0.39248530674E+01  0.28321912221E+03  0.28782655649E+03  0.00000000000E+00 0.  1.
         12    1    4    4    0    0 -0.23553942185E+02 -0.66375818612E+02  0.22360814137E+03  0.23443792009E+03  0.00000000000E+00 0. -1.
        -11    1    3    3    0    0 -0.33919543277E+02  0.35968007716E+02 -0.41071634693E+02  0.64273728470E+02  0.00000000000E+00 0.  1.
         11    1    3    3    0    0  0.39489600695E+02 -0.20492446481E+01 -0.55364017765E+01  0.39928432367E+02  0.00000000000E+00 0. -1.
         21    1    1    2  502  501  0.69127319950E+02  0.28532202477E+02  0.18617625989E+02  0.77066782332E+02  0.00000000000E+00 0.  1.
<scales pt_clust_5="13000.00000" pt_clust_6="13000.00000" pt_clust_7="13000.00000" pt_clust_8="13000.00000" pt_clust_9="74.78418"></scales>
<clustering>
<clus scale="   74.784">  2  9  1 -1</clus>
<clus scale="   80.041">  5  6 -1 -1</clus>
<clus scale="   86.627">  7  8 -1 -1</clus>
<clus scale="  121.015">  1  5  2 -1</clus>
<clus scale="  121.015">  1  5  2 -1</clus>
</clustering>
</event>
<event>
 9    2  0.5608219E-005  0.1074034E+03  0.7546771E-02  0.1274247E+00
          2   -1    0    0  502    0  0.00000000000E+00  0.00000000000E+00  0.27275792038E+03  0.27275792038E+03  0.00000000000E+00 0. -1.
         -1   -1    0    0    0  501 -0.00000000000E+00 -0.00000000000E+00 -0.62017546472E+02  0.62017546472E+02  0.00000000000E+00 0.  1.
         23    2    1    2    0    0  0.37170783460E+02 -0.13657893223E+02  0.17426450188E+02  0.10742351704E+03  0.98325610377E+02 0.  0.
         24    2    1    2    0    0 -0.55215831947E+02  0.47859521302E+01  0.17528178446E+03  0.20034281877E+03  0.79635718325E+02 0.  0.
        -11    1    4    4    0    0 -0.27534846609E+02 -0.28620536105E+02  0.33134787531E+02  0.51722500031E+02  0.00000000000E+00 0.  1.
         12    1    4    4    0    0 -0.27680985338E+02  0.33406488236E+02  0.14214699693E+03  0.14862031874E+03  0.00000000000E+00 0. -1.
        -13    1    3    3    0    0  0.16950128060E+02  0.28643829254E+02 -0.26980811912E+02  0.42845536606E+02  0.00000000000E+00 0.  1.
         13    1    3    3    0    0  0.20220655400E+02 -0.42301722477E+02  0.44407262100E+02  0.64577980431E+02  0.00000000000E+00 0. -1.
         21    1    1    2  502  501  0.18045048487E+02  0.88719410923E+01  0.18032139263E+02  0.27009131049E+02  0.00000000000E+00 0.  1.
<scales pt_clust_5="13000.00000" pt_clust_6="13000.00000" pt_clust_7="13000.00000" pt_clust_8="13000.00000" pt_clust_9="20.10809"></scales>
<clustering>
<clus scale="   20.108">  1  9  2 -1</clus>
<clus scale="   79.636">  5  6 -1 -1</clus>
<clus scale="   90.606">  1  5  2 -1</clus>
<clus scale="   98.326">  7  8 -1 -1</clus>
<clus scale="   20.108">  1  5  2 -1</clus>
</clustering>
</event>
<event>
 9    2  0.5608219E-005  0.1269324E+03  0.7546771E-02  0.1233186E+00
         -1   -1    0    0    0  501 -0.00000000000E+00  0.00000000000E+00  0.58171758308E+02  0.58171758308E+02  0.00000000000E+00 0.  1.
          2   -1    0    0  502    0  0.00000000000E+00 -0.00000000000E+00 -0.39670794085E+03  0.39670794085E+03  0.00000000000E+00 0. -1.
         23    2    1    2    0    0  0.63300894300E+02  0.48758381174E+02 -0.72026704687E+02  0.13697616798E+03  0.84795291459E+02 0.  0.
         24    2    1    2    0    0 -0.76889696670E+02 -0.65705763081E+02 -0.26649539766E+03  0.29618097374E+03  0.80461788892E+02 0.  0.
        -13    1    4    4    0    0 -0.59142558622E+02 -0.41048589027E+02 -0.25281044270E+03  0.26286108278E+03  0.00000000000E+00 0.  1.
         14    1    4    4    0    0 -0.17747138048E+02 -0.24657174054E+02 -0.13684954968E+02  0.33319890962E+02  0.00000000000E+00 0. -1.
        -13    1    3    3    0    0  0.39112842244E+02  0.37414581093E+02 -0.89826505585E+02  0.10487357347E+03  0.00000000000E+00 0. -1.
         13    1    3    3    0    0  0.24188052056E+02  0.11343800081E+02  0.17799800898E+02  0.32102594514E+02  0.00000000000E+00 0.  1.
         21    1    1    2  502  501  0.13588802370E+02  0.16947381907E+02 -0.14080190637E-01  0.21722557437E+02  0.00000000000E+00 0. -1.
<scales pt_clust_5="13000.00000" pt_clust_6="13000.00000" pt_clust_7="13000.00000" pt_clust_8="13000.00000" pt_clust_9="21.72255"></scales>
<clustering>
<clus scale="   21.723">  1  9  2 -1</clus>
<clus scale="   80.462">  5  6 -1 -1</clus>
<clus scale="   84.795">  7  8 -1 -1</clus>
<clus scale="  124.079">  2  5  1 -1</clus>
<clus scale="  124.079">  2  5  1 -1</clus>
</clustering>
</event>
<event>
 9    2  0.5608219E-005  0.1192654E+03  0.7546771E-02  0.1248258E+00
          2   -1    0    0  502    0  0.00000000000E+00  0.00000000000E+00  0.84953989761E+02  0.84953989761E+02  0.00000000000E+00 0. -1.
         -1   -1    0    0    0  501 -0.00000000000E+00 -0.00000000000E+00 -0.20188436142E+03  0.20188436142E+03  0.00000000000E+00 0.  1.
         23    2    1    2    0    0  0.73317535007E+02 -0.47266496315E+01 -0.68080356698E+02  0.13600165829E+03  0.91998445274E+02 0.  0.
         24    2    1    2    0    0 -0.76842373484E+02 -0.16486569093E+02 -0.18382817931E+02  0.11354493469E+03  0.79862174251E+02 0.  0.
        -13    1    4    4    0    0 -0.91768444711E+02 -0.11362893983E+02 -0.25952810919E+02  0.96042236536E+02  0.00000000000E+00 0.  1.
         14    1    4    4    0    0  0.14926071227E+02 -0.51236751103E+01  0.75699929871E+01  0.17502698156E+02  0.00000000000E+00 0. -1.
        -13    1    3    3    0    0  0.38146628354E+02  0.43371194495E+02 -0.27986892658E+02  0.64183268282E+02  0.00000000000E+00 0.  1.
         13    1    3    3    0    0  0.35170906653E+02 -0.48097844127E+02 -0.40093464039E+02  0.71818390006E+02  0.00000000000E+00 0. -1.
         21    1    1    2  502  501  0.35248384764E+01  0.21213218724E+02 -0.30467197033E+02  0.37291758204E+02  0.00000000000E+00 0.  1.
<scales pt_clust_5="13000.00000" pt_clust_6="13000.00000" pt_clust_7="13000.00000" pt_clust_8="13000.00000" pt_clust_9="21.50407"></scales>
<clustering>
<clus scale="   21.504">  2  9  1 -1</clus>
<clus scale="   79.862">  5  6 -1 -1</clus>
<clus scale="   91.998">  7  8 -1 -1</clus>
<clus scale="  110.175">  1  5  2 -1</clus>
<clus scale="  110.175">  1  5  2 -1</clus>
</clustering>
</event>
<event>
 9    2  0.5608219E-005  0.1899130E+03  0.7546771E-02  0.1159515E+00
         -1   -1    0    0    0  501 -0.00000000000E+00  0.00000000000E+00  0.71022861872E+02  0.71022861872E+02  0.00000000000E+00 0.  1.
          2   -1    0    0  502    0  0.00000000000E+00 -0.00000000000E+00 -0.14092122461E+04  0.14092122461E+04  0.00000000000E+00 0. -1.
         23    2    1    2    0    0  0.10524868224E+03 -0.13742925656E+03 -0.11590186132E+03  0.22792213184E+03  0.92472542143E+02 0.  0.
         24    2    1    2    0    0 -0.13244994423E+03  0.99517546756E+02 -0.11586690045E+04  0.11734173344E+04  0.83352558086E+02 0.  0.
        -13    1    4    4    0    0 -0.80044111570E+02  0.12382862872E+02 -0.41510008996E+03  0.42292845704E+03  0.00000000000E+00 0.  1.
         14    1    4    4    0    0 -0.52405832664E+02  0.87134683883E+02 -0.74356891452E+03  0.75048887738E+03  0.00000000000E+00 0. -1.
        -11    1    3    3    0    0  0.90252959397E+01 -0.29803637639E+02 -0.69701640628E+02  0.76341544978E+02  0.00000000000E+00 0. -1.
         11    1    3    3    0    0  0.96223386304E+02 -0.10762561893E+03 -0.46200220688E+02  0.15158058686E+03  0.00000000000E+00 0.  1.
         21    1    1    2  502  501  0.27201261991E+02  0.37911709809E+02 -0.63618518452E+02  0.78895641734E+02  0.00000000000E+00 0.  1.
<scales pt_clust_5="13000.00000" pt_clust_6="13000.00000" pt_clust_7="13000.00000" pt_clust_8="13000.00000" pt_clust_9="46.66054"></scales>
<clustering>
<clus scale="   46.661">  1  9  2 -1</clus>
<clus scale="   83.353">  5  6 -1 -1</clus>
<clus scale="   92.473">  7  8 -1 -1</clus>
<clus scale="  185.643">  2  5  1 -1</clus>
<clus scale="  185.643">  2  5  1 -1</clus>
</clustering>
</event>
<event>
 9    2  0.5608219E-005  0.1179664E+03  0.7546771E-02  0.1251071E+00
         -1   -1    0    0    0  501 -0.00000000000E+00  0.00000000000E+00  0.11634972533E+03  0.11634972533E+03  0.00000000000E+00 0.  1.
          2   -1    0    0  502    0  0.00000000000E+00 -0.00000000000E+00 -0.40555377938E+03  0.40555377938E+03  0.00000000000E+00 0. -1.
         23    2    1    2    0    0 -0.12953082500E+02  0.37794293203E+02  0.42361113014E+02  0.10789041006E+03  0.90827780676E+02 0.  0.
         24    2    1    2    0    0  0.41671362518E+01 -0.79334333401E+02 -0.35049396076E+03  0.36752581659E+03  0.76927939297E+02 0.  0.
        -13    1    4    4    0    0 -0.41643199349E+01 -0.62341485259E+02 -0.11173227482E+03  0.12801524746E+03  0.00000000000E+00 0.  1.
         14    1    4    4    0    0  0.83314561868E+01 -0.16992848142E+02 -0.23876168594E+03  0.23951056913E+03  0.00000000000E+00 0. -1.
        -13    1    3    3    0    0 -0.40859611143E+02  0.45731322957E+02  0.48558399837E+02  0.78222630465E+02  0.00000000000E+00 0.  1.
         13    1    3    3    0    0  0.27906528643E+02 -0.79370297546E+01 -0.61972868230E+01  0.29667779596E+02  0.00000000000E+00 0. -1.
         21    1    1    2  502  501  0.87859462485E+01  0.41540040198E+02  0.18928793698E+02  0.46487278066E+02  0.00000000000E+00 0.  1.
<scales pt_clust_5="13000.00000" pt_clust_6="13000.00000" pt_clust_7="13000.00000" pt_clust_8="13000.00000" pt_clust_9="42.45901"></scales>
<clustering>
<clus scale="   42.459">  1  9  2 -1</clus>
<clus scale="   76.928">  5  6 -1 -1</clus>
<clus scale="   90.828">  7  8 -1 -1</clus>
<clus scale="  107.630">  2  5  1 -1</clus>
<clus scale="  107.630">  2  5  1 -1</clus>
</clustering>
</event>
<event>
 9    2  0.5608219E-005  0.1268740E+03  0.7546771E-02  0.1234353E+00
         -1   -1    0    0    0  501 -0.00000000000E+00  0.00000000000E+00  0.11986907096E+03  0.11986907096E+03  0.00000000000E+00 0.  1.
          2   -1    0    0  502    0  0.00000000000E+00 -0.00000000000E+00 -0.41874325892E+03  0.41874325892E+03  0.00000000000E+00 0. -1.
         23    2    1    2    0    0 -0.68672932149E+02  0.91334654061E+02 -0.78445259018E+02  0.16530977281E+03  0.90087022834E+02 0.  0.
         24    2    1    2    0    0  0.47456074697E+02 -0.67731035984E+02 -0.28140023810E+03  0.30456547562E+03  0.82063772001E+02 0.  0.
        -13    1    4    4    0    0  0.40635524826E+02 -0.49465905357E+02 -0.81113952340E+02  0.10333244861E+03  0.00000000000E+00 0.  1.
         14    1    4    4    0    0  0.68205498707E+01 -0.18265130627E+02 -0.20028628576E+03  0.20123302701E+03  0.00000000000E+00 0. -1.
        -13    1    3    3    0    0 -0.31184612175E+02  0.91470636844E+02 -0.24639524548E+02  0.99731958825E+02  0.00000000000E+00 0.  1.
         13    1    3    3    0    0 -0.37488319974E+02 -0.13598278275E+00 -0.53805734470E+02  0.65577813989E+02  0.00000000000E+00 0. -1.
         21    1    1    2  502  501  0.21216857452E+02 -0.23603618077E+02  0.60971309151E+02  0.68737081448E+02  0.00000000000E+00 0.  1.
<scales pt_clust_5="13000.00000" pt_clust_6="13000.00000" pt_clust_7="13000.00000" pt_clust_8="13000.00000" pt_clust_9="31.73777"></scales>
<clustering>
<clus scale="   31.738">  1  9  2 -1</clus>
<clus scale="   82.064">  5  6 -1 -1</clus>
<clus scale="   90.087">  7  8 -1 -1</clus>
<clus scale="  121.309">  2  5  1 -1</clus>
<clus scale="  121.309">  2  5  1 -1</clus>
</clustering>
</event>
<event>
 9    2  0.5608219E-005  0.2450364E+03  0.7546771E-02  0.1117070E+00
         -1   -1    0    0    0  501 -0.00000000000E+00  0.00000000000E+00  0.24497218982E+03  0.24497218982E+03  0.00000000000E+00 0.  1.
          2   -1    0    0  502    0  0.00000000000E+00 -0.00000000000E+00 -0.12540557938E+04  0.12540557938E+04  0.00000000000E+00 0. -1.
         23    2    1    2    0    0  0.18385595286E+03 -0.13064421394E+03  0.14314349696E+03  0.28210501080E+03  0.90676647251E+02 0.  0.
         24    2    1    2    0    0 -0.25480781604E+03  0.88245017745E+02 -0.10408953238E+04  0.10782628729E+04  0.80458321928E+02 0.  0.
        -13    1    4    4    0    0 -0.73927224044E+02  0.18621986474E+02 -0.17405333578E+03  0.19001730587E+03  0.00000000000E+00 0.  1.
         14    1    4    4    0    0 -0.18088059200E+03  0.69623031271E+02 -0.86684198804E+03  0.88824556699E+03  0.00000000000E+00 0. -1.
        -13    1    3    3    0    0  0.16187459763E+03 -0.66956238265E+02  0.94813832628E+02  0.19918882011E+03  0.00000000000E+00 0.  1.
         13    1    3    3    0    0  0.21981355232E+02 -0.63687975672E+02  0.48329664335E+02  0.82916190686E+02  0.00000000000E+00 0. -1.
         21    1    1    2  502  501  0.70951863182E+02  0.42399196193E+02 -0.11133177715E+03  0.13866009999E+03  0.00000000000E+00 0. -1.
<scales pt_clust_5="13000.00000" pt_clust_6="13000.00000" pt_clust_7="13000.00000" pt_clust_8="13000.00000" pt_clust_9="82.65506"></scales>
<clustering>
<clus scale="   80.458">  5  6 -1 -1</clus>
<clus scale="   82.655">  2  9  1 -1</clus>
<clus scale="   90.677">  7  8 -1 -1</clus>
<clus scale="  241.442">  2  5  1 -1</clus>
<clus scale="   82.655">  2  5  1 -1</clus>
</clustering>
</event>
<event>
 9    2  0.5608219E-005  0.2673553E+03  0.7546771E-02  0.1103208E+00
         -1   -1    0    0    0  501 -0.00000000000E+00  0.00000000000E+00  0.42455764589E+03  0.42455764589E+03  0.00000000000E+00 0.  1.
          2   -1    0    0  502    0  0.00000000000E+00 -0.00000000000E+00 -0.87465461623E+03  0.87465461623E+03  0.00000000000E+00 0. -1.
         24    2    1    2    0    0  0.14326818652E+03 -0.19056859126E+03  0.15162645508E+03  0.29437732729E+03  0.82615178381E+02 0.  0.
         23    2    1    2    0    0 -0.17364813542E+03  0.18370642789E+03 -0.77941423171E+03  0.82443523078E+03  0.91132752443E+02 0.  0.
        -13    1    3    3    0    0  0.84710747261E+02 -0.17052396711E+03  0.11621264348E+03  0.22306885162E+03  0.00000000000E+00 0.  1.
         14    1    3    3    0    0  0.58557439258E+02 -0.20044624150E+02  0.35413811593E+02  0.71308475662E+02  0.00000000000E+00 0. -1.
        -11    1    4    4    0    0 -0.15744451552E+03  0.15684466214E+03 -0.74687080104E+03  0.77923360872E+03  0.00000000000E+00 0. -1.
         11    1    4    4    0    0 -0.16203619904E+02  0.26861765743E+02 -0.32543430672E+02  0.45201622059E+02  0.00000000000E+00 0.  1.
         21    1    1    2  502  501  0.30379948906E+02  0.68621633703E+01  0.17769080630E+03  0.18039970406E+03  0.00000000000E+00 0.  1.
<scales pt_clust_5="13000.00000" pt_clust_6="13000.00000" pt_clust_7="13000.00000" pt_clust_8="13000.00000" pt_clust_9="31.14531"></scales>
<clustering>
<clus scale="   31.145">  1  9  2 -1</clus>
<clus scale="   82.615">  5  6 -1 -1</clus>
<clus scale="   91.133">  7  8 -1 -1</clus>
<clus scale="  264.573">  1  5  2 -1</clus>
<clus scale="  267.355">  2  5  1 -1</clus>
</clustering>
</event>
<event>
 9    2  0.5608219E-005  0.9577487E+02  0.7546771E-02  0.1292507E+00
         -1   -1    0    0    0  501 -0.00000000000E+00  0.00000000000E+00  0.11265413367E+03  0.11265413367E+03  0.00000000000E+00 0.  1.
          2   -1    0    0  502    0  0.00000000000E+00 -0.00000000000E+00 -0.27912266036E+03  0.27912266036E+03  0.00000000000E+00 0. -1.
         23    2    1    2    0    0  0.68198814467E+01  0.10303741217E+02 -0.14947163423E+02  0.93619702879E+02  0.91589045233E+02 0.  0.
         24    2    1    2    0    0 -0.31507621160E+02 -0.79780831768E+01 -0.21293205269E+03  0.23192895548E+03  0.85991867778E+02 0.  0.
        -11    1    4    4    0    0 -0.12015282733E+02 -0.45094690219E+02 -0.80838667838E+02  0.93342317965E+02  0.00000000000E+00 0.  1.
         12    1    4    4    0    0 -0.19492338426E+02  0.37116607042E+02 -0.13209338485E+03  0.13858663752E+03  0.00000000000E+00 0. -1.
        -11    1    3    3    0    0  0.15726290971E+02 -0.33400414468E+02  0.15051065508E+02  0.39867762507E+02  0.00000000000E+00 0.  1.
         11    1    3    3    0    0 -0.89064095239E+01  0.43704155686E+02 -0.29998228931E+02  0.53751940372E+02  0.00000000000E+00 0. -1.
         21    1    1    2  502  501  0.24687739713E+02 -0.23256580405E+01  0.61410689425E+02  0.66228135661E+02  0.00000000000E+00 0. -1.
<scales pt_clust_5="13000.00000" pt_clust_6="13000.00000" pt_clust_7="13000.00000" pt_clust_8="13000.00000" pt_clust_9="24.79704"></scales>
<clustering>
<clus scale="   24.797">  1  9  2 -1</clus>
<clus scale="   85.992">  5  6 -1 -1</clus>
<clus scale="   90.437">  2  5  1 -1</clus>
<clus scale="   91.589">  7  8 -1 -1</clus>
<clus scale="   90.437">  2  5  1 -1</clus>
</clustering>
</event>
<event>
 9    2  0.5608219E-005  0.1650066E+03  0.7546771E-02  0.1202244E+00
          2   -1    0    0  502    0  0.00000000000E+00  0.00000000000E+00  0.44868095244E+03  0.44868095244E+03  0.00000000000E+00 0. -1.
         -1   -1    0    0    0  501 -0.00000000000E+00 -0.00000000000E+00 -0.12294754595E+03  0.12294754595E+03  0.00000000000E+00 0.  1.
         24    2    1    2    0    0  0.11587962870E+03  0.10805617093E+03  0.52975276918E+02  0.18591561630E+03  0.81572127558E+02 0.  0.
         23    2    1    2    0    0 -0.56549843907E+02  0.12994675479E+02  0.21141464343E+03  0.23760361812E+03  0.91611033470E+02 0.  0.
        -11    1    3    3    0    0  0.10699863721E+03  0.85258490671E+02  0.10902961895E+02  0.13724646871E+03  0.00000000000E+00 0.  1.
         12    1    3    3    0    0  0.88809914923E+01  0.22797680258E+02  0.42072315024E+02  0.48669147583E+02  0.00000000000E+00 0. -1.
        -13    1    4    4    0    0 -0.79062586308E+02  0.46760660881E+01  0.12551588020E+03  0.14841493971E+03  0.00000000000E+00 0. -1.
         13    1    4    4    0    0  0.22512742401E+02  0.83186093904E+01  0.85898763229E+02  0.89188678412E+02  0.00000000000E+00 0.  1.
         21    1    1    2  502  501 -0.59329784795E+02 -0.12105084641E+03  0.61343486148E+02  0.14810926397E+03  0.00000000000E+00 0. -1.
<scales pt_clust_5="13000.00000" pt_clust_6="13000.00000" pt_clust_7="13000.00000" pt_clust_8="13000.00000" pt_clust_9="143.43354"></scales>
<clustering>
<clus scale="   81.572">  5  6 -1 -1</clus>
<clus scale="   91.611">  7  8 -1 -1</clus>
<clus scale="  108.440">  1  7  2 -1</clus>
<clus scale="  143.434">  1  9  2 -1</clus>
<clus scale="  108.440">  1  5  2 -1</clus>
</clustering>
</event>
<event>
 9    2  0.5608219E-005  0.2040390E+03  0.7546771E-02  0.1147310E+00
         -1   -1    0    0    0  501 -0.00000000000E+00  0.00000000000E+00  0.71492533869E+03  0.71492533869E+03  0.00000000000E+00 0.  1.
          2   -1    0    0  502    0  0.00000000000E+00 -0.00000000000E+00 -0.74336243188E+02  0.74336243188E+02  0.00000000000E+00 0. -1.
         23    2    1    2    0    0 -0.54827899531E+02 -0.18771594491E+03  0.28424242546E+03  0.35671936515E+03  0.90617738351E+02 0.  0.
         24    2    1    2    0    0  0.49948398605E+02  0.16574702012E+03  0.20676272795E+03  0.28127490725E+03  0.79986439942E+02 0.  0.
        -13    1    4    4    0    0 -0.81433148454E+01  0.42374746660E+02  0.14417064363E+02  0.45494884065E+02  0.00000000000E+00 0.  1.
         14    1    4    4    0    0  0.58091713451E+02  0.12337227346E+03  0.19234566359E+03  0.23578002318E+03  0.00000000000E+00 0. -1.
        -13    1    3    3    0    0 -0.27485556912E+02 -0.25157480287E+02  0.11319200757E+03  0.11916704759E+03  0.00000000000E+00 0. -1.
         13    1    3    3    0    0 -0.27342342619E+02 -0.16255846462E+03  0.17105041789E+03  0.23755231756E+03  0.00000000000E+00 0.  1.
         21    1    1    2  502  501  0.48795009258E+01  0.21968924790E+02  0.14958394209E+03  0.15126730948E+03  0.00000000000E+00 0.  1.
<scales pt_clust_5="13000.00000" pt_clust_6="13000.00000" pt_clust_7="13000.00000" pt_clust_8="13000.00000" pt_clust_9="22.50429"></scales>
<clustering>
<clus scale="   22.504">  1  9  2 -1</clus>
<clus scale="   79.986">  5  6 -1 -1</clus>
<clus scale="   90.618">  7  8 -1 -1</clus>
<clus scale="  199.545">  2  5  1 -1</clus>
<clus scale="  199.545">  2  5  1 -1</clus>
</clustering>
</event>
<event>
 9    2  0.5608219E-005  0.1119646E+03  0.7546771E-02  0.1260319E+00
         -1   -1    0    0    0  501 -0.00000000000E+00  0.00000000000E+00  0.37067562514E+02  0.37067562514E+02  0.00000000000E+00 0.  1.
          2   -1    0    0  502    0  0.00000000000E+00 -0.00000000000E+00 -0.57305685169E+03  0.57305685169E+03  0.00000000000E+00 0. -1.
         24    2    1    2    0    0  0.53942632547E+02 -0.22129995047E+02 -0.16978178688E+03  0.19718428626E+03  0.81585803312E+02 0.  0.
         23    2    1    2    0    0 -0.37393513106E+02  0.68490235312E+02 -0.33233996855E+03  0.35318935328E+03  0.90574154255E+02 0.  0.
        -11    1    3    3    0    0  0.50898895298E+02 -0.24872247908E+02 -0.45035462622E+02  0.72370706451E+02  0.00000000000E+00 0.  1.
         12    1    3    3    0    0  0.30437372488E+01  0.27422528612E+01 -0.12474632426E+03  0.12481357981E+03  0.00000000000E+00 0. -1.
        -13    1    4    4    0    0 -0.53453071666E+02  0.30165219858E+02 -0.10130933387E+03  0.11845147736E+03  0.00000000000E+00 0. -1.
         13    1    4    4    0    0  0.16059558559E+02  0.38325015455E+02 -0.23103063468E+03  0.23473787592E+03  0.00000000000E+00 0.  1.
         21    1    1    2  502  501 -0.16549119440E+02 -0.46360240265E+02 -0.33867533742E+02  0.59750774669E+02  0.00000000000E+00 0. -1.
<scales pt_clust_5="13000.00000" pt_clust_6="13000.00000" pt_clust_7="13000.00000" pt_clust_8="13000.00000" pt_clust_9="49.22545"></scales>
<clustering>
<clus scale="   49.225">  1  9  2 -1</clus>
<clus scale="   81.586">  5  6 -1 -1</clus>
<clus scale="   90.574">  7  8 -1 -1</clus>
<clus scale="  104.827">  1  5  2 -1</clus>
<clus scale="  111.965">  2  5  1 -1</clus>
</clustering>
</event>
<event>
 9    2  0.5608219E-005  0.1081147E+03  0.7546771E-02  0.1268189E+00
         -1   -1    0    0    0  501 -0.00000000000E+00  0.00000000000E+00  0.31191197255E+03  0.31191197255E+03  0.00000000000E+00 0.  1.
          2   -1    0    0  502    0  0.00000000000E+00 -0.00000000000E+00 -0.10216346213E+03  0.10216346213E+03  0.00000000000E+00 0. -1.
         24    2    1    2    0    0  0.15907849427E+02  0.67000176614E+02  0.69535199945E+02  0.12688744454E+03  0.80766306158E+02 0.  0.
         23    2    1    2    0    0 -0.26858865808E+02 -0.48420085965E+02 -0.34000676076E+02  0.11164409923E+03  0.90787970143E+02 0.  0.
        -11    1    3    3    0    0  0.22047444789E+02  0.25896576934E+02  0.77443040434E+02  0.84582190975E+02  0.00000000000E+00 0.  1.
         12    1    3    3    0    0 -0.61395953615E+01  0.41103599680E+02 -0.79078404883E+01  0.42305253563E+02  0.00000000000E+00 0. -1.
        -11    1    4    4    0    0  0.33810327804E+02 -0.18220981486E+02 -0.93399681334E+01  0.39526920412E+02  0.00000000000E+00 0. -1.
         11    1    4    4    0    0 -0.60669193612E+02 -0.30199104479E+02 -0.24660707943E+02  0.72117178821E+02  0.00000000000E+00 0.  1.
         21    1    1    2  502  501  0.10951016381E+02 -0.18580090649E+02  0.17421398654E+03  0.17554389091E+03  0.00000000000E+00 0. -1.
<scales pt_clust_5="13000.00000" pt_clust_6="13000.00000" pt_clust_7="13000.00000" pt_clust_8="13000.00000" pt_clust_9="21.56721"></scales>
<clustering>
<clus scale="   21.567">  1  9  2 -1</clus>
<clus scale="   80.766">  5  6 -1 -1</clus>
<clus scale="   90.788">  7  8 -1 -1</clus>
<clus scale="   99.847">  1  5  2 -1</clus>
<clus scale="  108.115">  2  5  1 -1</clus>
</clustering>
</event>
<event>
 9    2  0.5608219E-005  0.1110072E+03  0.7546771E-02  0.1262102E+00
          2   -1    0    0  502    0  0.00000000000E+00  0.00000000000E+00  0.40918037808E+03  0.40918037808E+03  0.00000000000E+00 0. -1.
         -1   -1    0    0    0  501 -0.00000000000E+00 -0.00000000000E+00 -0.45801029825E+02  0.45801029825E+02  0.00000000000E+00 0.  1.
         23    2    1    2    0    0 -0.69621992934E+01  0.72116645544E+02  0.17055200458E+03  0.20599812223E+03  0.89988651013E+02 0.  0.
         24    2    1    2    0    0  0.48047488824E+02 -0.46000582840E+02  0.15597115874E+03  0.18792242985E+03  0.81013717828E+02 0.  0.
        -11    1    4    4    0    0  0.52764274401E+01 -0.40500206934E+02  0.13286110742E+03  0.13899705505E+03  0.00000000000E+00 0.  1.
         12    1    4    4    0    0  0.42771061384E+02 -0.55003759062E+01  0.23110051330E+02  0.48925374802E+02  0.00000000000E+00 0. -1.
        -13    1    3    3    0    0 -0.17931345319E+02  0.44793837015E+02  0.19397295284E+02  0.52002654200E+02  0.00000000000E+00 0.  1.
         13    1    3    3    0    0  0.10969146026E+02  0.27322808530E+02  0.15115470930E+03  0.15399546803E+03  0.00000000000E+00 0. -1.
         21    1    1    2  502  501 -0.41085289531E+02 -0.26116062704E+02  0.36856184928E+02  0.61060855828E+02  0.00000000000E+00 0.  1.
<scales pt_clust_5="13000.00000" pt_clust_6="13000.00000" pt_clust_7="13000.00000" pt_clust_8="13000.00000" pt_clust_9="48.68316"></scales>
<clustering>
<clus scale="   48.683">  2  9  1 -1</clus>
<clus scale="   81.014">  5  6 -1 -1</clus>
<clus scale="   89.989">  7  8 -1 -1</clus>
<clus scale="  103.865">  1  5  2 -1</clus>
<clus scale="  103.865">  1  5  2 -1</clus>
</clustering>
</event>
<event>
 9    2  0.5608219E-005  0.1135125E+03  0.7546771E-02  0.1258430E+00
         -1   -1    0    0    0  501 -0.00000000000E+00  0.00000000000E+00  0.90464498623E+02  0.90464498623E+02  0.00000000000E+00 0.  1.
          2   -1    0    0  502    0  0.00000000000E+00 -0.00000000000E+00 -0.29534800909E+03  0.29534800909E+03  0.00000000000E+00 0. -1.
         24    2    1    2    0    0  0.49872821853E+02  0.63867428387E+02  0.45547233466E+01  0.11498694515E+03  0.81454927916E+02 0.  0.
         23    2    1    2    0    0 -0.31480300881E+02 -0.53322211584E+02 -0.22033731727E+03  0.24698701300E+03  0.92842789776E+02 0.  0.
        -13    1    3    3    0    0  0.63275557453E+02  0.33338312656E+02 -0.19194511903E+02  0.74051796392E+02  0.00000000000E+00 0.  1.
         14    1    3    3    0    0 -0.13402735600E+02  0.30529115731E+02  0.23749235249E+02  0.40935148757E+02  0.00000000000E+00 0. -1.
        -11    1    4    4    0    0  0.28898811268E+02 -0.68695585869E+01 -0.31173489870E+02  0.43059477453E+02  0.00000000000E+00 0.  1.
         11    1    4    4    0    0 -0.60379112149E+02 -0.46452652997E+02 -0.18916382740E+03  0.20392753554E+03  0.00000000000E+00 0. -1.
         21    1    1    2  502  501 -0.18392520972E+02 -0.10545216803E+02  0.10899083462E+02  0.23838549567E+02  0.00000000000E+00 0.  1.
<scales pt_clust_5="13000.00000" pt_clust_6="13000.00000" pt_clust_7="13000.00000" pt_clust_8="13000.00000" pt_clust_9="21.20109"></scales>
<clustering>
<clus scale="   21.201">  1  9  2 -1</clus>
<clus scale="   81.455">  5  6 -1 -1</clus>
<clus scale="   92.843">  7  8 -1 -1</clus>
<clus scale="  104.404">  1  5  2 -1</clus>
<clus scale="  113.513">  2  5  1 -1</clus>
</clustering>
</event>
<event>
 9    2  0.5608219E-005  0.1862933E+03  0.7546771E-02  0.1162594E+00
         -1   -1    0    0    0  501 -0.00000000000E+00  0.00000000000E+00  0.21559010192E+03  0.21559010192E+03  0.00000000000E+00 0.  1.
          2   -1    0    0  502    0  0.00000000000E+00 -0.00000000000E+00 -0.37159120061E+03  0.37159120061E+03  0.00000000000E+00 0. -1.
         23    2    1    2    0    0  0.11682290144E+02  0.10229209192E+03 -0.16735122274E+02  0.13809681686E+03  0.90501483625E+02 0.  0.
         24    2    1    2    0    0  0.43662824460E+02 -0.21486167093E+03 -0.20125113015E+03  0.30916611264E+03  0.83723879173E+02 0.  0.
        -11    1    4    4    0    0  0.39828892254E+02 -0.30216482770E+02 -0.44362793649E+02  0.66838865561E+02  0.00000000000E+00 0.  1.
         12    1    4    4    0    0  0.38339322059E+01 -0.18464518816E+03 -0.15688833650E+03  0.24232724708E+03  0.00000000000E+00 0. -1.
        -13    1    3    3    0    0  0.12368418284E+02  0.34590525169E+02  0.36638845013E+02  0.51883399718E+02  0.00000000000E+00 0.  1.
         13    1    3    3    0    0 -0.68612813995E+00  0.67701566748E+02 -0.53373967287E+02  0.86213417145E+02  0.00000000000E+00 0. -1.
         21    1    1    2  502  501 -0.55345114604E+02  0.11256957901E+03  0.61985153727E+02  0.13991837303E+03  0.00000000000E+00 0. -1.
<scales pt_clust_5="13000.00000" pt_clust_6="13000.00000" pt_clust_7="13000.00000" pt_clust_8="13000.00000" pt_clust_9="125.43920"></scales>
<clustering>
<clus scale="   83.724">  5  6 -1 -1</clus>
<clus scale="   90.501">  7  8 -1 -1</clus>
<clus scale="  125.439">  1  9  2 -1</clus>
<clus scale="  183.097">  2  5  1 -1</clus>
<clus scale="  183.097">  2  5  1 -1</clus>
</clustering>
</event>
<event>
 9    2  0.5608219E-005  0.1079002E+03  0.7546771E-02  0.1269880E+00
          2   -1    0    0  502    0  0.00000000000E+00  0.00000000000E+00  0.30865236694E+03  0.30865236694E+03  0.00000000000E+00 0. -1.
         -1   -1    0    0    0  501 -0.00000000000E+00 -0.00000000000E+00 -0.82313619564E+02  0.82313619564E+02  0.00000000000E+00 0.  1.
         23    2    1    2    0    0 -0.67647323348E+02  0.26782348215E+02  0.82689219882E+02  0.14343773757E+03  0.91888100120E+02 0.  0.
         24    2    1    2    0    0  0.48785358766E+02  0.33051123445E+02  0.15506678388E+03  0.18376170768E+03  0.79058647572E+02 0.  0.
        -11    1    4    4    0    0  0.16189394766E+02 -0.26011703090E+02  0.40114425421E+02  0.50476453197E+02  0.00000000000E+00 0.  1.
         12    1    4    4    0    0  0.32595964000E+02  0.59062826535E+02  0.11495235846E+03  0.13328525448E+03  0.00000000000E+00 0. -1.
        -13    1    3    3    0    0 -0.61761181004E+02  0.57461808865E+02  0.49274773333E+02  0.97694965296E+02  0.00000000000E+00 0.  1.
         13    1    3    3    0    0 -0.58861423434E+01 -0.30679460651E+02  0.33414446549E+02  0.45742772278E+02  0.00000000000E+00 0. -1.
         21    1    1    2  502  501  0.18861964582E+02 -0.59833471660E+02 -0.11417256391E+02  0.63766541244E+02  0.00000000000E+00 0.  1.
<scales pt_clust_5="13000.00000" pt_clust_6="13000.00000" pt_clust_7="13000.00000" pt_clust_8="13000.00000" pt_clust_9="62.73610"></scales>
<clustering>
<clus scale="   62.736">  2  9  1 -1</clus>
<clus scale="   79.059">  5  6 -1 -1</clus>
<clus scale="   91.888">  7  8 -1 -1</clus>
<clus scale="   97.207">  1  5  2 -1</clus>
<clus scale="   97.207">  1  5  2 -1</clus>
</clustering>
</event>
<event>
 9    2  0.6717622E-005  0.1071637E+03  0.7546771E-02  0.1269425E+00
         -1   -1    0    0    0  501 -0.00000000000E+00  0.00000000000E+00  0.39703492603E+03  0.39703492603E+03  0.00000000000E+00 0.  1.
          2   -1    0    0  502    0  0.00000000000E+00 -0.00000000000E+00 -0.16976929321E+03  0.16976929321E+03  0.00000000000E+00 0. -1.
         24    2    1    2    0    0 -0.36268601038E+02  0.18951868550E+02  0.34221524600E+03  0.35364859244E+03  0.79255710176E+02 0.  0.
         23    2    1    2    0    0  0.56576591343E+02 -0.25855927473E+02 -0.14223296107E+03  0.17845027315E+03  0.88004801580E+02 0.  0.
        -13    1    3    3    0    0 -0.59589906064E+02  0.25092511707E+02  0.26383130037E+03  0.27163863147E+03  0.00000000000E+00 0.  1.
         14    1    3    3    0    0  0.23321305025E+02 -0.61406431568E+01  0.78383945633E+02  0.82009960977E+02  0.00000000000E+00 0. -1.
        -13    1    4    4    0    0  0.91756767789E+01  0.30314489174E+02 -0.26231996476E+02  0.41125161852E+02  0.00000000000E+00 0.  1.
         13    1    4    4    0    0  0.47400914564E+02 -0.56170416647E+02 -0.11600096459E+03  0.13732511130E+03  0.00000000000E+00 0. -1.
         21    1    1    2  502  501 -0.20307990304E+02  0.69040589228E+01  0.27283347888E+02  0.34705353647E+02  0.00000000000E+00 0.  1.
<scales pt_clust_5="13000.00000" pt_clust_6="13000.00000" pt_clust_7="13000.00000" pt_clust_8="13000.00000" pt_clust_9="21.44949"></scales>
<clustering>
<clus scale="   21.449">  1  9  2 -1</clus>
<clus scale="   79.256">  5  6 -1 -1</clus>
<clus scale="   88.005">  7  8 -1 -1</clus>
<clus scale="  100.103">  1  5  2 -1</clus>
<clus scale="  107.164">  2  5  1 -1</clus>
</clustering>
</event>
<event>
 9    2  0.5608219E-005  0.2393134E+03  0.7546771E-02  0.1120781E+00
         -1   -1    0    0    0  501 -0.00000000000E+00  0.00000000000E+00  0.57134393852E+02  0.57134393852E+02  0.00000000000E+00 0.  1.
          2   -1    0    0  502    0  0.00000000000E+00 -0.00000000000E+00 -0.17867968945E+04  0.17867968945E+04  0.00000000000E+00 0. -1.
         23    2    1    2    0    0 -0.23741630558E+03  0.54019795417E+02 -0.36985795000E+03  0.45215158370E+03  0.91441298175E+02 0.  0.
         24    2    1    2    0    0  0.21030800484E+03 -0.48208380209E+02 -0.13341019865E+04  0.13539742246E+04  0.82852795360E+02 0.  0.
        -11    1    4    4    0    0  0.77994904548E+02  0.98656548180E+01 -0.31414603568E+03  0.32383370426E+03  0.00000000000E+00 0.  1.
         12    1    4    4    0    0  0.13231310029E+03 -0.58074035027E+02 -0.10199559509E+04  0.10301405204E+04  0.00000000000E+00 0. -1.
        -11    1    3    3    0    0 -0.19628196349E+03  0.34398294944E+02 -0.34932237575E+03  0.40216411338E+03  0.00000000000E+00 0.  1.
         11    1    3    3    0    0 -0.41134342089E+02  0.19621500472E+02 -0.20535574254E+02  0.49987470328E+02  0.00000000000E+00 0. -1.
         21    1    1    2  502  501  0.27108300743E+02 -0.58114152075E+01 -0.25702564078E+02  0.37805479974E+02  0.00000000000E+00 0.  1.
<scales pt_clust_5="13000.00000" pt_clust_6="13000.00000" pt_clust_7="13000.00000" pt_clust_8="13000.00000" pt_clust_9="27.72422"></scales>
<clustering>
<clus scale="   27.724">  1  9  2 -1</clus>
<clus scale="   82.853">  5  6 -1 -1</clus>
<clus scale="   91.441">  7  8 -1 -1</clus>
<clus scale="  236.165">  2  5  1 -1</clus>
<clus scale="  236.165">  2  5  1 -1</clus>
</clustering>
</event>
<event>
 9    2  0.5608219E-005  0.8625790E+02  0.7546771E-02  0.1313942E+00
         -1   -1    0    0    0  501 -0.00000000000E+00  0.00000000000E+00  0.21646439796E+03  0.21646439796E+03  0.00000000000E+00 0.  1.
          2   -1    0    0  502    0  0.00000000000E+00 -0.00000000000E+00 -0.43210960865E+02  0.43210960865E+02  0.00000000000E+00 0. -1.
         23    2    1    2    0    0 -0.27542576309E+02  0.43271073458E+02  0.92177621541E+02  0.12731220529E+03  0.71279060002E+02 0.  0.
         24    2    1    2    0    0  0.73987806039E+01 -0.35663881828E+02  0.67760721014E+02  0.10704648684E+03  0.74436419928E+02 0.  0.
        -13    1    4    4    0    0  0.22592656827E+02  0.34377245747E+01  0.60238366326E+02  0.64427531929E+02  0.00000000000E+00 0.  1.
         14    1    4    4    0    0 -0.15193876223E+02 -0.39101606403E+02  0.75223546872E+01  0.42618954914E+02  0.00000000000E+00 0. -1.
        -11    1    3    3    0    0 -0.48265167678E+02  0.31138460295E+02  0.84362192127E+02  0.10205934343E+03  0.00000000000E+00 0.  1.
         11    1    3    3    0    0  0.20722591370E+02  0.12132613163E+02  0.78154294138E+01  0.25252861861E+02  0.00000000000E+00 0. -1.
         21    1    1    2  502  501  0.20143795705E+02 -0.76071916300E+01  0.13315094543E+02  0.25316666696E+02  0.00000000000E+00 0.  1.
<scales pt_clust_5="13000.00000" pt_clust_6="13000.00000" pt_clust_7="13000.00000" pt_clust_8="13000.00000" pt_clust_9="21.53234"></scales>
<clustering>
<clus scale="   21.532">  2  9  1 -1</clus>
<clus scale="   71.279">  7  8 -1 -1</clus>
<clus scale="   74.436">  5  6 -1 -1</clus>
<clus scale="   83.548">  1  7  2 -1</clus>
<clus scale="   21.532">  2  5  1 -1</clus>
</clustering>
</event>
<event>
 9    2  0.5608219E-005  0.1250407E+03  0.7546771E-02  0.1239178E+00
         -1   -1    0    0    0  501 -0.00000000000E+00  0.00000000000E+00  0.34610687373E+03  0.34610687373E+03  0.00000000000E+00 0.  1.
          2   -1    0    0  502    0  0.00000000000E+00 -0.00000000000E+00 -0.72139350471E+03  0.72139350471E+03  0.00000000000E+00 0. -1.
         24    2    1    2    0    0 -0.37678735147E+02 -0.29183515894E+02  0.17018440674E+03  0.19392294614E+03  0.79824883719E+02 0.  0.
         23    2    1    2    0    0  0.62670250448E+02  0.55372569036E+02 -0.70186861794E+03  0.71304505102E+03  0.93914888350E+02 0.  0.
        -11    1    3    3    0    0 -0.52014290667E+02 -0.35975121406E+02  0.16581924065E+03  0.17747032530E+03  0.00000000000E+00 0.  1.
         12    1    3    3    0    0  0.14335555520E+02  0.67916055116E+01  0.43651660918E+01  0.16452620840E+02  0.00000000000E+00 0. -1.
        -13    1    4    4    0    0 -0.24386535864E+02  0.20842498369E+02 -0.17386953018E+03  0.17680420355E+03  0.00000000000E+00 0.  1.
         13    1    4    4    0    0  0.87056786312E+02  0.34530070667E+02 -0.52799908776E+03  0.53624084747E+03  0.00000000000E+00 0. -1.
         21    1    1    2  502  501 -0.24991515301E+02 -0.26189053142E+02  0.15639758021E+03  0.16053238128E+03  0.00000000000E+00 0.  1.
<scales pt_clust_5="13000.00000" pt_clust_6="13000.00000" pt_clust_7="13000.00000" pt_clust_8="13000.00000" pt_clust_9="36.20003"></scales>
<clustering>
<clus scale="   36.200">  1  9  2 -1</clus>
<clus scale="   79.825">  5  6 -1 -1</clus>
<clus scale="   93.915">  7  8 -1 -1</clus>
<clus scale="  114.836">  1  5  2 -1</clus>
<clus scale="  125.041">  2  5  1 -1</clus>
</clustering>
</event>
<event>
 9    2  0.5608219E-005  0.2123034E+03  0.7546771E-02  0.1152236E+00
          2   -1    0    0  502    0  0.00000000000E+00  0.00000000000E+00  0.41509088767E+03  0.41509088767E+03  0.00000000000E+00 0. -1.
         -1   -1    0    0    0  501 -0.00000000000E+00 -0.00000000000E+00 -0.21961321364E+03  0.21961321364E+03  0.00000000000E+00 0.  1.
         24    2    1    2    0    0 -0.45304754412E+02  0.12878146836E+03  0.24523196627E+02  0.15951098832E+03  0.78772970328E+02 0.  0.
         23    2    1    2    0    0 -0.28042361730E+02 -0.26860651213E+03  0.98923114386E+02  0.30164381289E+03  0.90925105912E+02 0.  0.
        -11    1    3    3    0    0 -0.58504287047E+02  0.82532705912E+02  0.40295999952E+02  0.10889521000E+03  0.00000000000E+00 0.  1.
         12    1    3    3    0    0  0.13199532636E+02  0.46248762451E+02 -0.15772803325E+02  0.50615778318E+02  0.00000000000E+00 0. -1.
        -13    1    4    4    0    0 -0.13795729111E+02 -0.82181784822E+02 -0.12086334629E+02  0.84203606711E+02  0.00000000000E+00 0.  1.
         13    1    4    4    0    0 -0.14246632619E+02 -0.18642472730E+03  0.11100944902E+03  0.21744020618E+03  0.00000000000E+00 0. -1.
         21    1    1    2  502  501  0.73347116142E+02  0.13982504376E+03  0.72031363018E+02  0.17354930011E+03  0.00000000000E+00 0. -1.
<scales pt_clust_5="13000.00000" pt_clust_6="13000.00000" pt_clust_7="13000.00000" pt_clust_8="13000.00000" pt_clust_9="191.84718"></scales>
<clustering>
<clus scale="   78.773">  5  6 -1 -1</clus>
<clus scale="   90.925">  7  8 -1 -1</clus>
<clus scale="  157.615">  2  5  1 -1</clus>
<clus scale="  191.847">  1  9  2 -1</clus>
<clus scale="  191.847">  1  5  2 -1</clus>
</clustering>
</event>
<event>
 9    2  0.5608219E-005  0.1020308E+03  0.7546771E-02  0.1279981E+00
         -1   -1    0    0    0  501 -0.00000000000E+00  0.00000000000E+00  0.56729459612E+02  0.56729459612E+02  0.00000000000E+00 0.  1.
          2   -1    0    0  502    0  0.00000000000E+00 -0.00000000000E+00 -0.62534817844E+03  0.62534817844E+03  0.00000000000E+00 0. -1.
         24    2    1    2    0    0 -0.20547154380E+02 -0.37374607454E+02 -0.18340872513E+02  0.93985904874E+02  0.81718516108E+02 0.  0.
         23    2    1    2    0    0  0.34194621997E+01  0.48850037018E+02 -0.55703555625E+03  0.56639588181E+03  0.90098086373E+02 0.  0.
        -13    1    3    3    0    0 -0.46706130260E+02 -0.39146216652E+02 -0.26604214372E+02  0.66495662298E+02  0.00000000000E+00 0.  1.
         14    1    3    3    0    0  0.26158975880E+02  0.17716091980E+01  0.82633418583E+01  0.27490242576E+02  0.00000000000E+00 0. -1.
        -13    1    4    4    0    0  0.62771622373E+01 -0.26163279475E+02 -0.12205620319E+03  0.12498654606E+03  0.00000000000E+00 0.  1.
         13    1    4    4    0    0 -0.28577000376E+01  0.75013316493E+02 -0.43497935306E+03  0.44140933575E+03  0.00000000000E+00 0. -1.
         21    1    1    2  502  501  0.17127692181E+02 -0.11475429564E+02  0.67577099322E+01  0.21695851369E+02  0.00000000000E+00 0.  1.
<scales pt_clust_5="13000.00000" pt_clust_6="13000.00000" pt_clust_7="13000.00000" pt_clust_8="13000.00000" pt_clust_9="20.61658"></scales>
<clustering>
<clus scale="   20.617">  1  9  2 -1</clus>
<clus scale="   81.719">  5  6 -1 -1</clus>
<clus scale="   90.098">  7  8 -1 -1</clus>
<clus scale="   94.713">  1  5  2 -1</clus>
<clus scale="  102.031">  2  5  1 -1</clus>
</clustering>
</event>
<event>
 9    2  0.5608219E-005  0.2766083E+03  0.7546771E-02  0.1098037E+00
         -1   -1    0    0    0  501 -0.00000000000E+00  0.00000000000E+00  0.32578089761E+03  0.32578089761E+03  0.00000000000E+00 0.  1.
          2   -1    0    0  502    0  0.00000000000E+00 -0.00000000000E+00 -0.32782532031E+03  0.32782532031E+03  0.00000000000E+00 0. -1.
         23    2    1    2    0    0  0.59551312226E+02  0.24570343742E+03  0.14072008604E+03  0.30404598381E+03  0.93409205718E+02 0.  0.
         24    2    1    2    0    0 -0.37875129194E+02 -0.26062054583E+03 -0.15909401271E+03  0.31859202889E+03  0.82658222033E+02 0.  0.
        -11    1    4    4    0    0  0.50143683787E+01 -0.55693657832E+02 -0.46999931159E+00  0.55920911225E+02  0.00000000000E+00 0.  1.
         12    1    4    4    0    0 -0.42889497573E+02 -0.20492688800E+03 -0.15862401340E+03  0.26267111766E+03  0.00000000000E+00 0. -1.
        -11    1    3    3    0    0 -0.14641374582E+02  0.58086371883E+02  0.65407423645E+02  0.88693446861E+02  0.00000000000E+00 0. -1.
         11    1    3    3    0    0  0.74192686808E+02  0.18761706553E+03  0.75312662390E+02  0.21535253695E+03  0.00000000000E+00 0.  1.
         21    1    1    2  502  501 -0.21676183032E+02  0.14917108411E+02  0.16329503981E+02  0.30968205218E+02  0.00000000000E+00 0. -1.
<scales pt_clust_5="13000.00000" pt_clust_6="13000.00000" pt_clust_7="13000.00000" pt_clust_8="13000.00000" pt_clust_9="26.31306"></scales>
<clustering>
<clus scale="   26.313">  1  9  2 -1</clus>
<clus scale="   82.658">  5  6 -1 -1</clus>
<clus scale="   93.409">  7  8 -1 -1</clus>
<clus scale="  273.165">  2  5  1 -1</clus>
<clus scale="  273.165">  2  5  1 -1</clus>
</clustering>
</event>
<event>
 9    2  0.5608219E-005  0.1059916E+03  0.7546771E-02  0.1271391E+00
         -1   -1    0    0    0  501 -0.00000000000E+00  0.00000000000E+00  0.22507696610E+02  0.22507696610E+02  0.00000000000E+00 0.  1.
          2   -1    0    0  502    0  0.00000000000E+00 -0.00000000000E+00 -0.11185588735E+04  0.11185588735E+04  0.00000000000E+00 0. -1.
         23    2    1    2    0    0  0.54691537024E+01 -0.52289743823E+02 -0.24122971469E+03  0.26087692705E+03  0.84266641458E+02 0.  0.
         24    2    1    2    0    0  0.20485481580E+02  0.66010825240E+02 -0.84183625404E+03  0.84808782379E+03  0.76076239715E+02 0.  0.
        -11    1    4    4    0    0  0.11274828401E+02  0.61581610207E+02 -0.31545331278E+03  0.32160567317E+03  0.00000000000E+00 0.  1.
         12    1    4    4    0    0  0.92106531789E+01  0.44292150338E+01 -0.52638294125E+03  0.52648215062E+03  0.00000000000E+00 0. -1.
        -13    1    3    3    0    0  0.32085447880E+02  0.80929975284E+01 -0.72146401380E+02  0.79373016868E+02  0.00000000000E+00 0. -1.
         13    1    3    3    0    0 -0.26616294178E+02 -0.60382741351E+02 -0.16908331332E+03  0.18150391018E+03  0.00000000000E+00 0.  1.
         21    1    1    2  502  501 -0.25954635283E+02 -0.13721081418E+02 -0.12985208116E+02  0.32101819228E+02  0.00000000000E+00 0.  1.
<scales pt_clust_5="13000.00000" pt_clust_6="13000.00000" pt_clust_7="13000.00000" pt_clust_8="13000.00000" pt_clust_9="29.35832"></scales>
<clustering>
<clus scale="   29.358">  1  9  2 -1</clus>
<clus scale="   76.076">  5  6 -1 -1</clus>
<clus scale="   84.267">  7  8 -1 -1</clus>
<clus scale="   99.604">  2  5  1 -1</clus>
<clus scale="   99.604">  2  5  1 -1</clus>
</clustering>
</event>
<event>
 9    2  0.5608219E-005  0.1056326E+03  0.7546771E-02  0.1281225E+00
          2   -1    0    0  502    0  0.00000000000E+00  0.00000000000E+00  0.10748692450E+03  0.10748692450E+03  0.00000000000E+00 0. -1.
         -1   -1    0    0    0  501 -0.00000000000E+00 -0.00000000000E+00 -0.54484880136E+03  0.54484880136E+03  0.00000000000E+00 0.  1.
         23    2    1    2    0    0 -0.28649365005E+02  0.58701375948E+02 -0.17243549481E+03  0.21133065246E+03  0.10324731059E+03 0.  0.
         24    2    1    2    0    0  0.71054061059E+01 -0.16465669782E+02  0.66749264622E+02  0.10595771610E+03  0.80311694021E+02 0.  0.
        -11    1    4    4    0    0 -0.35735530160E+02 -0.15307017582E+01  0.38307341799E+02  0.52410147867E+02  0.00000000000E+00 0.  1.
         12    1    4    4    0    0  0.42840936266E+02 -0.14934968024E+02  0.28441922822E+02  0.53547568234E+02  0.00000000000E+00 0. -1.
        -13    1    3    3    0    0  0.27324035282E+02 -0.12420820898E+02 -0.59160711103E+02  0.66339049089E+02  0.00000000000E+00 0.  1.
         13    1    3    3    0    0 -0.55973400286E+02  0.71122196846E+02 -0.11327478371E+03  0.14499160337E+03  0.00000000000E+00 0. -1.
         21    1    1    2  502  501  0.21543958899E+02 -0.42235706165E+02 -0.33167564667E+03  0.33504735730E+03  0.00000000000E+00 0.  1.
<scales pt_clust_5="13000.00000" pt_clust_6="13000.00000" pt_clust_7="13000.00000" pt_clust_8="13000.00000" pt_clust_9="47.41305"></scales>
<clustering>
<clus scale="   47.413">  2  9  1 -1</clus>
<clus scale="   80.312">  5  6 -1 -1</clus>
<clus scale="   83.356">  1  5  2 -1</clus>
<clus scale="  103.247">  7  8 -1 -1</clus>
<clus scale="   83.356">  1  5  2 -1</clus>
</clustering>
</event>
<event>
 9    2  0.5608219E-005  0.1152776E+03  0.7546771E-02  0.1251961E+00
          2   -1    0    0  502    0  0.00000000000E+00  0.00000000000E+00  0.40854330274E+03  0.40854330274E+03  0.00000000000E+00 0. -1.
         -1   -1    0    0    0  501 -0.00000000000E+00 -0.00000000000E+00 -0.12497816308E+03  0.12497816308E+03  0.00000000000E+00 0.  1.
         24    2    1    2    0    0 -0.51009011891E+01 -0.34871146664E+02 -0.54174417139E+02  0.11030413773E+03  0.89387467055E+02 0.  0.
         23    2    1    2    0    0 -0.30117957675E+02  0.67876504507E+02  0.35328279228E+03  0.37250920413E+03  0.91869824229E+02 0.  0.
        -11    1    3    3    0    0 -0.40639155366E+02 -0.35211135221E+02 -0.11894568509E+02  0.55071278834E+02  0.00000000000E+00 0.  1.
         12    1    3    3    0    0  0.35538254177E+02  0.33998855711E+00 -0.42279848630E+02  0.55232858900E+02  0.00000000000E+00 0. -1.
        -11    1    4    4    0    0  0.26393067285E+02 -0.26261479459E+01  0.59464784464E+02  0.65111836444E+02  0.00000000000E+00 0. -1.
         11    1    4    4    0    0 -0.56511024960E+02  0.70502652453E+02  0.29381800781E+03  0.30739736768E+03  0.00000000000E+00 0.  1.
         21    1    1    2  502  501  0.35218858864E+02 -0.33005357843E+02 -0.15543235472E+02  0.50708123954E+02  0.00000000000E+00 0.  1.
<scales pt_clust_5="13000.00000" pt_clust_6="13000.00000" pt_clust_7="13000.00000" pt_clust_8="13000.00000" pt_clust_9="48.26719"></scales>
<clustering>
<clus scale="   48.267">  2  9  1 -1</clus>
<clus scale="   89.387">  5  6 -1 -1</clus>
<clus scale="   91.870">  7  8 -1 -1</clus>
<clus scale="  113.309">  2  5  1 -1</clus>
<clus scale="  115.278">  1  5  2 -1</clus>
</clustering>
</event>
<event>
 9    2  0.5608219E-005  0.1071355E+03  0.7546771E-02  0.1273188E+00
         -1   -1    0    0    0  501 -0.00000000000E+00  0.00000000000E+00  0.25595751776E+03  0.25595751776E+03  0.00000000000E+00 0.  1.
          2   -1    0    0  502    0  0.00000000000E+00 -0.00000000000E+00 -0.88929393696E+02  0.88929393696E+02  0.00000000000E+00 0. -1.
         23    2    1    2    0    0 -0.56639661468E+02 -0.32592192143E+02  0.10963852717E+03  0.16098551455E+03  0.98109260590E+02 0.  0.
         24    2    1    2    0    0  0.34511834237E+02 -0.32013875715E+02  0.62303757289E+00  0.95098091797E+02  0.82627501154E+02 0.  0.
        -13    1    4    4    0    0  0.35586194924E+02 -0.19759511329E+02  0.38039145477E+02  0.55711687695E+02  0.00000000000E+00 0.  1.
         14    1    4    4    0    0 -0.10743606870E+01 -0.12254364386E+02 -0.37416107904E+02  0.39386404102E+02  0.00000000000E+00 0. -1.
        -13    1    3    3    0    0 -0.11276329002E+02 -0.43331001111E+02  0.33214002022E+01  0.44897248828E+02  0.00000000000E+00 0. -1.
         13    1    3    3    0    0 -0.45363332465E+02  0.10738808968E+02  0.10631712697E+03  0.11608826572E+03  0.00000000000E+00 0.  1.
         21    1    1    2  502  501  0.22127827231E+02  0.64606067859E+02  0.56766559320E+02  0.88803305114E+02  0.00000000000E+00 0.  1.
<scales pt_clust_5="13000.00000" pt_clust_6="13000.00000" pt_clust_7="13000.00000" pt_clust_8="13000.00000" pt_clust_9="68.29044"></scales>
<clustering>
<clus scale="   68.290">  1  9  2 -1</clus>
<clus scale="   82.628">  5  6 -1 -1</clus>
<clus scale="   93.166">  2  5  1 -1</clus>
<clus scale="   98.109">  7  8 -1 -1</clus>
<clus scale="   93.166">  2  5  1 -1</clus>
</clustering>
</event>
<event>
 9    2  0.5608219E-005  0.1142382E+03  0.7546771E-02  0.1256298E+00
         -1   -1    0    0    0  501 -0.00000000000E+00  0.00000000000E+00  0.48693238015E+02  0.48693238015E+02  0.00000000000E+00 0.  1.
          2   -1    0    0  502    0  0.00000000000E+00 -0.00000000000E+00 -0.45337453151E+03  0.45337453151E+03  0.00000000000E+00 0. -1.
         24    2    1    2    0    0 -0.22851404502E+00  0.63365340768E+02 -0.54873373743E+02  0.11614140050E+03  0.80389794965E+02 0.  0.
         23    2    1    2    0    0  0.12223865832E+02 -0.93491373837E+02 -0.27142042846E+03  0.30109674493E+03  0.90000783023E+02 0.  0.
        -13    1    3    3    0    0 -0.31473640742E+02  0.96843852113E+01  0.49479975056E+00  0.32933602981E+02  0.00000000000E+00 0.  1.
         14    1    3    3    0    0  0.31245126697E+02  0.53680955556E+02 -0.55368173493E+02  0.83207797518E+02  0.00000000000E+00 0. -1.
        -11    1    4    4    0    0  0.10699719495E+02 -0.58701648187E+02 -0.25626272163E+03  0.26311774930E+03  0.00000000000E+00 0. -1.
         11    1    4    4    0    0  0.15241463365E+01 -0.34789725650E+02 -0.15157706823E+02  0.37978995629E+02  0.00000000000E+00 0.  1.
         21    1    1    2  502  501 -0.11995351787E+02  0.30126033070E+02 -0.78387491291E+02  0.84829624094E+02  0.00000000000E+00 0.  1.
<scales pt_clust_5="13000.00000" pt_clust_6="13000.00000" pt_clust_7="13000.00000" pt_clust_8="13000.00000" pt_clust_9="32.42632"></scales>
<clustering>
<clus scale="   32.426">  2  9  1 -1</clus>
<clus scale="   80.390">  5  6 -1 -1</clus>
<clus scale="   90.001">  7  8 -1 -1</clus>
<clus scale="  106.830">  1  5  2 -1</clus>
<clus scale="   32.426">  2  5  1 -1</clus>
</clustering>
</event>
<event>
 9    2  0.5608219E-005  0.2324992E+03  0.7546771E-02  0.1164351E+00
          2   -1    0    0  502    0  0.00000000000E+00  0.00000000000E+00  0.31102466887E+03  0.31102466887E+03  0.00000000000E+00 0. -1.
         -1   -1    0    0    0  501 -0.00000000000E+00 -0.00000000000E+00 -0.64168403576E+03  0.64168403576E+03  0.00000000000E+00 0.  1.
         24    2    1    2    0    0 -0.19864198913E+02  0.22348776480E+03 -0.81751835067E+02  0.25144934980E+03  0.78753067035E+02 0.  0.
         23    2    1    2    0    0 -0.83492149927E+01 -0.82061559636E+01  0.19064341171E+03  0.21100717504E+03  0.89677573020E+02 0.  0.
        -13    1    3    3    0    0 -0.39575651132E+02  0.85697770064E+02 -0.10203583802E+02  0.94944473662E+02  0.00000000000E+00 0.  1.
         14    1    3    3    0    0  0.19711452220E+02  0.13778999473E+03 -0.71548251265E+02  0.15650487614E+03  0.00000000000E+00 0. -1.
        -13    1    4    4    0    0 -0.46020403887E+02  0.10680659730E+02  0.84600314641E+02  0.96897715677E+02  0.00000000000E+00 0.  1.
         13    1    4    4    0    0  0.37671188894E+02 -0.18886815693E+02  0.10604309707E+03  0.11410945936E+03  0.00000000000E+00 0. -1.
         21    1    1    2  502  501  0.28213413905E+02 -0.21528160883E+03 -0.43955094354E+03  0.49025217979E+03  0.00000000000E+00 0.  1.
<scales pt_clust_5="13000.00000" pt_clust_6="13000.00000" pt_clust_7="13000.00000" pt_clust_8="13000.00000" pt_clust_9="218.75522"></scales>
<clustering>
<clus scale="   78.753">  5  6 -1 -1</clus>
<clus scale="   89.678">  7  8 -1 -1</clus>
<clus scale="   90.438">  1  7  2 -1</clus>
<clus scale="  218.755">  2  9  1 -1</clus>
<clus scale="   90.438">  1  5  2 -1</clus>
</clustering>
</event>
<event>
 9    2  0.5608219E-005  0.1057957E+03  0.7546771E-02  0.1272693E+00
         -1   -1    0    0    0  501 -0.00000000000E+00  0.00000000000E+00  0.22597866162E+03  0.22597866162E+03  0.00000000000E+00 0.  1.
          2   -1    0    0  502    0  0.00000000000E+00 -0.00000000000E+00 -0.59465446276E+02  0.59465446276E+02  0.00000000000E+00 0. -1.
         24    2    1    2    0    0  0.20090333967E+02  0.50304552990E+02  0.84531215843E+02  0.12947088946E+03  0.81749710679E+02 0.  0.
         23    2    1    2    0    0 -0.39540227472E+02 -0.38284865213E+02  0.52979981378E+02  0.11904235997E+03  0.91296465142E+02 0.  0.
        -13    1    3    3    0    0 -0.76065426006E+01  0.65665541397E+02  0.52393974599E+02  0.84350171260E+02  0.00000000000E+00 0.  1.
         14    1    3    3    0    0  0.27696876568E+02 -0.15360988407E+02  0.32137241244E+02  0.45120718204E+02  0.00000000000E+00 0. -1.
        -13    1    4    4    0    0 -0.50188929276E+02 -0.13243494251E+02  0.69850612493E+02  0.87025437819E+02  0.00000000000E+00 0.  1.
         13    1    4    4    0    0  0.10648701804E+02 -0.25041370962E+02 -0.16870631115E+02  0.32016922151E+02  0.00000000000E+00 0. -1.
         21    1    1    2  502  501  0.19449893504E+02 -0.12019687777E+02  0.29002018118E+02  0.36930858459E+02  0.00000000000E+00 0.  1.
<scales pt_clust_5="13000.00000" pt_clust_6="13000.00000" pt_clust_7="13000.00000" pt_clust_8="13000.00000" pt_clust_9="22.86419"></scales>
<clustering>
<clus scale="   22.864">  1  9  2 -1</clus>
<clus scale="   81.750">  5  6 -1 -1</clus>
<clus scale="   91.296">  7  8 -1 -1</clus>
<clus scale="   97.676">  1  5  2 -1</clus>
<clus scale="  105.796">  2  5  1 -1</clus>
</clustering>
</event>
<event>
 9    2  0.5608219E-005  0.1078575E+03  0.7546771E-02  0.1269511E+00
          2   -1    0    0  502    0  0.00000000000E+00  0.00000000000E+00  0.28212869629E+03  0.28212869629E+03  0.00000000000E+00 0. -1.
         -1   -1    0    0    0  501 -0.00000000000E+00 -0.00000000000E+00 -0.71060673909E+02  0.71060673909E+02  0.00000000000E+00 0.  1.
         23    2    1    2    0    0  0.11720470608E+02 -0.76677265644E+02  0.39169738350E+02  0.12645722549E+03  0.91871589616E+02 0.  0.
         24    2    1    2    0    0 -0.20054458428E+02  0.46956747917E+02  0.17128445985E+03  0.19585915802E+03  0.80095730940E+02 0.  0.
        -13    1    4    4    0    0 -0.35595614822E+00  0.36797906233E+02  0.17973417441E+02  0.40954320192E+02  0.00000000000E+00 0.  1.
         14    1    4    4    0    0 -0.19698502279E+02  0.10158841684E+02  0.15331104241E+03  0.15490483783E+03  0.00000000000E+00 0. -1.
        -13    1    3    3    0    0  0.31869524121E+02 -0.26300965154E+02  0.56050679949E+02  0.69635379359E+02  0.00000000000E+00 0. -1.
         13    1    3    3    0    0 -0.20149053513E+02 -0.50376300490E+02 -0.16880941600E+02  0.56821846132E+02  0.00000000000E+00 0.  1.
         21    1    1    2  502  501  0.83339878195E+01  0.29720517727E+02  0.61382417718E+00  0.30872986688E+02  0.00000000000E+00 0.  1.
<scales pt_clust_5="13000.00000" pt_clust_6="13000.00000" pt_clust_7="13000.00000" pt_clust_8="13000.00000" pt_clust_9="30.86688"></scales>
<clustering>
<clus scale="   30.867">  2  9  1 -1</clus>
<clus scale="   80.096">  5  6 -1 -1</clus>
<clus scale="   91.872">  7  8 -1 -1</clus>
<clus scale="   98.021">  1  5  2 -1</clus>
<clus scale="   98.021">  1  5  2 -1</clus>
</clustering>
</event>
<event>
 9    2  0.5608219E-005  0.9307779E+02  0.7546771E-02  0.1303585E+00
         -3   -1    0    0    0  501 -0.00000000000E+00  0.00000000000E+00  0.60982839762E+02  0.60982839762E+02  0.00000000000E+00 0.  1.
          4   -1    0    0  502    0  0.00000000000E+00 -0.00000000000E+00 -0.38171459228E+03  0.38171459228E+03  0.00000000000E+00 0. -1.
         23    2    1    2    0    0  0.25593285573E+02 -0.25966311607E+02 -0.14458160992E+02  0.99764889390E+02  0.91731832702E+02 0.  0.
         24    2    1    2    0    0 -0.13670426674E+02  0.25068666825E+01 -0.30636172633E+03  0.31661699804E+03  0.78712458635E+02 0.  0.
        -13    1    4    4    0    0  0.24894649975E+02  0.10505277413E+02 -0.46444741062E+02  0.53732843059E+02  0.00000000000E+00 0.  1.
         14    1    4    4    0    0 -0.38565076649E+02 -0.79984107303E+01 -0.25991698526E+03  0.26288415498E+03  0.00000000000E+00 0. -1.
        -13    1    3    3    0    0  0.39505419189E+02 -0.52806664065E+02  0.68601480822E+00  0.65952198836E+02  0.00000000000E+00 0.  1.
         13    1    3    3    0    0 -0.13912133616E+02  0.26840352458E+02 -0.15144175800E+02  0.33812690554E+02  0.00000000000E+00 0. -1.
         21    1    1    2  502  501 -0.11922858899E+02  0.23459444924E+02  0.88134800845E-01  0.26315544612E+02  0.00000000000E+00 0. -1.
<scales pt_clust_5="13000.00000" pt_clust_6="13000.00000" pt_clust_7="13000.00000" pt_clust_8="13000.00000" pt_clust_9="26.31540"></scales>
<clustering>
<clus scale="   26.315">  1  9  2 -1</clus>
<clus scale="   78.712">  5  6 -1 -1</clus>
<clus scale="   80.277">  2  5  1 -1</clus>
<clus scale="   91.732">  7  8 -1 -1</clus>
<clus scale="   80.277">  2  5  1 -1</clus>
</clustering>
</event>
<event>
 9    2  0.5608219E-005  0.9015245E+02  0.7546771E-02  0.1309174E+00
         -1   -1    0    0    0  501 -0.00000000000E+00  0.00000000000E+00  0.15890531528E+02  0.15890531528E+02  0.00000000000E+00 0.  1.
          2   -1    0    0  502    0  0.00000000000E+00 -0.00000000000E+00 -0.16414701822E+04  0.16414701822E+04  0.00000000000E+00 0. -1.
         23    2    1    2    0    0 -0.10612266771E+02 -0.53155125608E+00 -0.15553909096E+03  0.18002141540E+03  0.90013323641E+02 0.  0.
         24    2    1    2    0    0 -0.36180146483E+02  0.47431740771E+01 -0.12040564055E+04  0.12072377656E+04  0.79622197283E+02 0.  0.
        -11    1    4    4    0    0 -0.33708185429E+02  0.11902180145E+02 -0.20108761300E+03  0.20424037739E+03  0.00000000000E+00 0.  1.
         12    1    4    4    0    0 -0.24719610541E+01 -0.71590060681E+01 -0.10029687925E+04  0.10029973882E+04  0.00000000000E+00 0. -1.
        -13    1    3    3    0    0  0.25165048833E+02  0.32065291281E+02 -0.55195367089E+02  0.68614802600E+02  0.00000000000E+00 0. -1.
         13    1    3    3    0    0 -0.35777315604E+02 -0.32596842537E+02 -0.10034372387E+03  0.11140661280E+03  0.00000000000E+00 0.  1.
         21    1    1    2  502  501  0.46792413254E+02 -0.42116228210E+01 -0.26598415420E+03  0.27010153274E+03  0.00000000000E+00 0.  1.
<scales pt_clust_5="13000.00000" pt_clust_6="13000.00000" pt_clust_7="13000.00000" pt_clust_8="13000.00000" pt_clust_9="46.98157"></scales>
<clustering>
<clus scale="   46.982">  2  9  1 -1</clus>
<clus scale="   79.622">  5  6 -1 -1</clus>
<clus scale="   79.779">  2  5  1 -1</clus>
<clus scale="   90.013">  7  8 -1 -1</clus>
<clus scale="   46.982">  2  5  1 -1</clus>
</clustering>
</event>
<event>
 9    2  0.5608219E-005  0.9017504E+02  0.7546771E-02  0.1302827E+00
         -1   -1    0    0    0  501 -0.00000000000E+00  0.00000000000E+00  0.17058920855E+03  0.17058920855E+03  0.00000000000E+00 0.  1.
          2   -1    0    0  502    0  0.00000000000E+00 -0.00000000000E+00 -0.23906345792E+03  0.23906345792E+03  0.00000000000E+00 0. -1.
         24    2    1    2    0    0  0.10459947712E+02 -0.10984382392E+02  0.10563600789E+02  0.86607461143E+02  0.84612029295E+02 0.  0.
         23    2    1    2    0    0 -0.80406810674E+01  0.34060984831E+02 -0.18949544301E+03  0.21017686499E+03  0.83910597755E+02 0.  0.
        -13    1    3    3    0    0 -0.28513675320E+02 -0.25471467633E+02  0.21161028140E+02  0.43699135639E+02  0.00000000000E+00 0.  1.
         14    1    3    3    0    0  0.38973623033E+02  0.14487085241E+02 -0.10597427351E+02  0.42908325504E+02  0.00000000000E+00 0. -1.
        -11    1    4    4    0    0 -0.35345296899E+02  0.23739291368E+02 -0.41949990569E+02  0.59771612629E+02  0.00000000000E+00 0.  1.
         11    1    4    4    0    0  0.27304615832E+02  0.10321693464E+02 -0.14754545244E+03  0.15040525236E+03  0.00000000000E+00 0. -1.
         21    1    1    2  502  501 -0.24192666450E+01 -0.23076602440E+02  0.11045759285E+03  0.11286834034E+03  0.00000000000E+00 0.  1.
<scales pt_clust_5="13000.00000" pt_clust_6="13000.00000" pt_clust_7="13000.00000" pt_clust_8="13000.00000" pt_clust_9="23.20307"></scales>
<clustering>
<clus scale="   23.203">  1  9  2 -1</clus>
<clus scale="   83.911">  7  8 -1 -1</clus>
<clus scale="   84.612">  5  6 -1 -1</clus>
<clus scale="   89.517">  2  7  1 -1</clus>
<clus scale="   89.517">  2  5  1 -1</clus>
</clustering>
</event>
<event>
 9    2  0.5608219E-005  0.4392001E+03  0.7546771E-02  0.1030993E+00
          2   -1    0    0  502    0  0.00000000000E+00  0.00000000000E+00  0.29153447003E+03  0.29153447003E+03  0.00000000000E+00 0. -1.
         -1   -1    0    0    0  501 -0.00000000000E+00 -0.00000000000E+00 -0.59403009050E+03  0.59403009050E+03  0.00000000000E+00 0.  1.
         24    2    1    2    0    0 -0.20408274420E+03  0.59542334093E+02 -0.14559501571E+03  0.27070927965E+03  0.83009333582E+02 0.  0.
         23    2    1    2    0    0 -0.15571937215E+03  0.92672299859E+02 -0.48153939915E+02  0.20932760632E+03  0.93072911283E+02 0.  0.
        -11    1    3    3    0    0 -0.20357050703E+03  0.70949411738E+02 -0.13131386206E+03  0.25242444558E+03  0.00000000000E+00 0.  1.
         12    1    3    3    0    0 -0.51223716734E+00 -0.11407077645E+02 -0.14281153657E+02  0.18284834073E+02  0.00000000000E+00 0. -1.
        -11    1    4    4    0    0 -0.11042048989E+03  0.56338972651E+02  0.13424060382E+02  0.12468748864E+03  0.00000000000E+00 0.  1.
         11    1    4    4    0    0 -0.45298882258E+02  0.36333327208E+02 -0.61578000297E+02  0.84640117677E+02  0.00000000000E+00 0. -1.
         21    1    1    2  502  501  0.35980211634E+03 -0.15221463395E+03 -0.10874666484E+03  0.40552767455E+03  0.00000000000E+00 0. -1.
<scales pt_clust_5="13000.00000" pt_clust_6="13000.00000" pt_clust_7="13000.00000" pt_clust_8="13000.00000" pt_clust_9="390.67487"></scales>
<clustering>
<clus scale="   83.009">  5  6 -1 -1</clus>
<clus scale="   93.073">  7  8 -1 -1</clus>
<clus scale="  126.743">  5  7 -1 -1</clus>
<clus scale="  390.675">  1  9  2 -1</clus>
<clus scale="  390.675">  1  5  2 -1</clus>
</clustering>
</event>
<event>
 9    2  0.5608219E-005  0.1433007E+03  0.7546771E-02  0.1211666E+00
          2   -1    0    0  502    0  0.00000000000E+00  0.00000000000E+00  0.81917558786E+03  0.81917558786E+03  0.00000000000E+00 0. -1.
         -1   -1    0    0    0  501 -0.00000000000E+00 -0.00000000000E+00 -0.40059369032E+02  0.40059369032E+02  0.00000000000E+00 0.  1.
         23    2    1    2    0    0 -0.11477200306E+03  0.35782882775E+02  0.24252409088E+03  0.28630012952E+03  0.93256646507E+02 0.  0.
         24    2    1    2    0    0  0.89132696615E+02 -0.56542872342E+02  0.51872594619E+03  0.53541747602E+03  0.80333880569E+02 0.  0.
        -11    1    4    4    0    0  0.92348924903E+02 -0.20233403457E+02  0.40943481089E+03  0.42020778064E+03  0.00000000000E+00 0.  1.
         12    1    4    4    0    0 -0.32162282879E+01 -0.36309468885E+02  0.10929113530E+03  0.11520969538E+03  0.00000000000E+00 0. -1.
        -11    1    3    3    0    0 -0.74959932201E+02 -0.67226280873E+01  0.20140815211E+03  0.21501029952E+03  0.00000000000E+00 0. -1.
         11    1    3    3    0    0 -0.39812070858E+02  0.42505510863E+02  0.41115938772E+02  0.71289829995E+02  0.00000000000E+00 0.  1.
         21    1    1    2  502  501  0.25639306444E+02  0.20759989567E+02  0.17866181760E+02  0.37517351351E+02  0.00000000000E+00 0.  1.
<scales pt_clust_5="13000.00000" pt_clust_6="13000.00000" pt_clust_7="13000.00000" pt_clust_8="13000.00000" pt_clust_9="32.99017"></scales>
<clustering>
<clus scale="   32.990">  2  9  1 -1</clus>
<clus scale="   80.334">  5  6 -1 -1</clus>
<clus scale="   93.257">  7  8 -1 -1</clus>
<clus scale="  135.247">  1  5  2 -1</clus>
<clus scale="  135.247">  1  5  2 -1</clus>
</clustering>
</event>
<event>
 9    2  0.5608219E-005  0.1148561E+03  0.7546771E-02  0.1253976E+00
         -1   -1    0    0    0  501 -0.00000000000E+00  0.00000000000E+00  0.17804160481E+03  0.17804160481E+03  0.00000000000E+00 0.  1.
          2   -1    0    0  502    0  0.00000000000E+00 -0.00000000000E+00 -0.36175311324E+03  0.36175311324E+03  0.00000000000E+00 0. -1.
         23    2    1    2    0    0 -0.35174060752E+02  0.10997453419E+01  0.58451651470E+02  0.11812869594E+03  0.96433237297E+02 0.  0.
         24    2    1    2    0    0  0.55076793745E+02  0.19734287275E+01 -0.32049795638E+03  0.34078398752E+03  0.10186971323E+03 0.  0.
        -13    1    4    4    0    0 -0.92583220547E+01  0.39877304722E+02 -0.10376851237E+03  0.11155187188E+03  0.00000000000E+00 0.  1.
         14    1    4    4    0    0  0.64335115800E+02 -0.37903875995E+02 -0.21672944401E+03  0.22923211564E+03  0.00000000000E+00 0. -1.
        -13    1    3    3    0    0 -0.27279731212E+02  0.20427290632E+02  0.80710644007E+02  0.87610878283E+02  0.00000000000E+00 0.  1.
         13    1    3    3    0    0 -0.78943295401E+01 -0.19327545290E+02 -0.22258992537E+02  0.30517817657E+02  0.00000000000E+00 0. -1.
         21    1    1    2  502  501 -0.19902732993E+02 -0.30731740694E+01  0.78334796483E+02  0.80882034590E+02  0.00000000000E+00 0.  1.
<scales pt_clust_5="13000.00000" pt_clust_6="13000.00000" pt_clust_7="13000.00000" pt_clust_8="13000.00000" pt_clust_9="20.13860"></scales>
<clustering>
<clus scale="   20.139">  1  9  2 -1</clus>
<clus scale="   96.433">  7  8 -1 -1</clus>
<clus scale="  101.870">  5  6 -1 -1</clus>
<clus scale="  110.063">  1  7  2 -1</clus>
<clus scale="  114.856">  2  5  1 -1</clus>
</clustering>
</event>
<event>
 9    2  0.5608219E-005  0.9891704E+02  0.7546771E-02  0.1290505E+00
          2   -1    0    0  502    0  0.00000000000E+00  0.00000000000E+00  0.32718867344E+03  0.32718867344E+03  0.00000000000E+00 0. -1.
         -1   -1    0    0    0  501 -0.00000000000E+00 -0.00000000000E+00 -0.11263083152E+03  0.11263083152E+03  0.00000000000E+00 0.  1.
         24    2    1    2    0    0  0.22016628397E+02 -0.52252249852E+02 -0.21156326800E+02  0.10016600794E+03  0.79816097640E+02 0.  0.
         23    2    1    2    0    0 -0.22213459092E+02  0.15404403052E+02  0.27126036736E+03  0.28845452444E+03  0.94303193878E+02 0.  0.
        -11    1    3    3    0    0 -0.17157280568E+02 -0.21314881560E+02 -0.38577625838E+02  0.47296190837E+02  0.00000000000E+00 0.  1.
         12    1    3    3    0    0  0.39173908965E+02 -0.30937368292E+02  0.17421299037E+02  0.52869817104E+02  0.00000000000E+00 0. -1.
        -11    1    4    4    0    0 -0.48693757366E+02 -0.20023201028E+02  0.12452610696E+03  0.13519897152E+03  0.00000000000E+00 0.  1.
         11    1    4    4    0    0  0.26480298274E+02  0.35427604080E+02  0.14673426040E+03  0.15325555292E+03  0.00000000000E+00 0. -1.
         21    1    1    2  502  501  0.19683069523E+00  0.36847846800E+02 -0.35546198628E+02  0.51198972578E+02  0.00000000000E+00 0.  1.
<scales pt_clust_5="13000.00000" pt_clust_6="13000.00000" pt_clust_7="13000.00000" pt_clust_8="13000.00000" pt_clust_9="36.84837"></scales>
<clustering>
<clus scale="   36.848">  2  9  1 -1</clus>
<clus scale="   79.816">  5  6 -1 -1</clus>
<clus scale="   85.218">  2  5  1 -1</clus>
<clus scale="   94.303">  7  8 -1 -1</clus>
<clus scale="   98.917">  1  5  2 -1</clus>
</clustering>
</event>
<event>
 9    2  0.5608219E-005  0.1550128E+03  0.7546771E-02  0.1196984E+00
         -1   -1    0    0    0  501 -0.00000000000E+00  0.00000000000E+00  0.21809621026E+03  0.21809621026E+03  0.00000000000E+00 0.  1.
          2   -1    0    0  502    0  0.00000000000E+00 -0.00000000000E+00 -0.21159121402E+03  0.21159121402E+03  0.00000000000E+00 0. -1.
         23    2    1    2    0    0  0.11252154110E+02  0.85035113796E+02  0.96165630635E+02  0.15721176951E+03  0.90056262446E+02 0.  0.
         24    2    1    2    0    0 -0.49708730249E+02 -0.12955361907E+03 -0.12733713917E+03  0.20261633490E+03  0.74723049177E+02 0.  0.
        -13    1    4    4    0    0 -0.11319256057E+02 -0.10657938364E+03 -0.11274135553E+03  0.15555675434E+03  0.00000000000E+00 0.  1.
         14    1    4    4    0    0 -0.38389474192E+02 -0.22974235436E+02 -0.14595783646E+02  0.47059580563E+02  0.00000000000E+00 0. -1.
        -13    1    3    3    0    0 -0.38762057746E+02  0.50088670342E+02  0.47566174500E+02  0.79208036044E+02  0.00000000000E+00 0. -1.
         13    1    3    3    0    0  0.50014211856E+02  0.34946443454E+02  0.48599456135E+02  0.78003733464E+02  0.00000000000E+00 0.  1.
         21    1    1    2  502  501  0.38456576139E+02  0.44518505277E+02  0.37676504782E+02  0.69859319873E+02  0.00000000000E+00 0. -1.
<scales pt_clust_5="13000.00000" pt_clust_6="13000.00000" pt_clust_7="13000.00000" pt_clust_8="13000.00000" pt_clust_9="58.82861"></scales>
<clustering>
<clus scale="   58.829">  1  9  2 -1</clus>
<clus scale="   74.723">  5  6 -1 -1</clus>
<clus scale="   90.056">  7  8 -1 -1</clus>
<clus scale="  146.637">  2  5  1 -1</clus>
<clus scale="  146.637">  2  5  1 -1</clus>
</clustering>
</event>
<event>
 9    2  0.5608219E-005  0.1056710E+03  0.7546771E-02  0.1269169E+00
         -1   -1    0    0    0  501 -0.00000000000E+00  0.00000000000E+00  0.51772733817E+03  0.51772733817E+03  0.00000000000E+00 0.  1.
          2   -1    0    0  502    0  0.00000000000E+00 -0.00000000000E+00 -0.32987049082E+02  0.32987049082E+02  0.00000000000E+00 0. -1.
         23    2    1    2    0    0  0.52846772974E+02 -0.19155224612E+02  0.21481286353E+03  0.23569089564E+03  0.79031183125E+02 0.  0.
         24    2    1    2    0    0 -0.84743217237E+02 -0.12445886723E+02  0.17320011763E+03  0.20838304200E+03  0.78031394209E+02 0.  0.
        -13    1    4    4    0    0 -0.40340263233E+02 -0.41848715819E+02  0.11878391788E+03  0.13224322667E+03  0.00000000000E+00 0.  1.
         14    1    4    4    0    0 -0.44402954004E+02  0.29402829096E+02  0.54416199751E+02  0.76139815330E+02  0.00000000000E+00 0. -1.
        -11    1    3    3    0    0  0.91500178687E+01 -0.33977324848E+02  0.33448120592E+02  0.48548513901E+02  0.00000000000E+00 0.  1.
         11    1    3    3    0    0  0.43696755105E+02  0.14822100237E+02  0.18136474294E+03  0.18714238174E+03  0.00000000000E+00 0. -1.
         21    1    1    2  502  501  0.31896444263E+02  0.31601111334E+02  0.96727307931E+02  0.10664044961E+03  0.00000000000E+00 0. -1.
<scales pt_clust_5="13000.00000" pt_clust_6="13000.00000" pt_clust_7="13000.00000" pt_clust_8="13000.00000" pt_clust_9="44.90004"></scales>
<clustering>
<clus scale="   44.900">  1  9  2 -1</clus>
<clus scale="   78.031">  5  6 -1 -1</clus>
<clus scale="   79.031">  7  8 -1 -1</clus>
<clus scale="  104.925">  2  5  1 -1</clus>
<clus scale="  104.925">  2  5  1 -1</clus>
</clustering>
</event>
<event>
 9    2  0.5608219E-005  0.1191537E+03  0.7546771E-02  0.1248274E+00
         -3   -1    0    0    0  501 -0.00000000000E+00  0.00000000000E+00  0.68246961335E+02  0.68246961335E+02  0.00000000000E+00 0.  1.
          4   -1    0    0  502    0  0.00000000000E+00 -0.00000000000E+00 -0.40917675844E+03  0.40917675844E+03  0.00000000000E+00 0. -1.
         23    2    1    2    0    0  0.42726246340E+01 -0.66258506669E+02 -0.40620400032E+02  0.12004859636E+03  0.91395861837E+02 0.  0.
         24    2    1    2    0    0  0.25965098038E+02  0.75766713604E+02 -0.30506645161E+03  0.32532273755E+03  0.79715509572E+02 0.  0.
        -13    1    4    4    0    0  0.52734798163E+01  0.22367789378E+02 -0.10544265770E+02  0.25284563110E+02  0.00000000000E+00 0.  1.
         14    1    4    4    0    0  0.20691618221E+02  0.53398924227E+02 -0.29452218584E+03  0.30003817444E+03  0.00000000000E+00 0. -1.
        -13    1    3    3    0    0 -0.42366320085E+02 -0.31676381348E+02 -0.81454773579E+01  0.53522397314E+02  0.00000000000E+00 0. -1.
         13    1    3    3    0    0  0.46638944719E+02 -0.34582125322E+02 -0.32474922674E+02  0.66526199042E+02  0.00000000000E+00 0.  1.
         21    1    1    2  502  501 -0.30237722672E+02 -0.95082069347E+01  0.47570545397E+01  0.32052385861E+02  0.00000000000E+00 0.  1.
<scales pt_clust_5="13000.00000" pt_clust_6="13000.00000" pt_clust_7="13000.00000" pt_clust_8="13000.00000" pt_clust_9="31.69741"></scales>
<clustering>
<clus scale="   31.697">  1  9  2 -1</clus>
<clus scale="   79.716">  5  6 -1 -1</clus>
<clus scale="   91.396">  7  8 -1 -1</clus>
<clus scale="  110.449">  2  5  1 -1</clus>
<clus scale="  110.449">  2  5  1 -1</clus>
</clustering>
</event>
<event>
 9    2  0.5608219E-005  0.1018272E+03  0.7546771E-02  0.1281620E+00
          4   -1    0    0  502    0  0.00000000000E+00  0.00000000000E+00  0.32475819404E+03  0.32475819404E+03  0.00000000000E+00 0. -1.
         -3   -1    0    0    0  501 -0.00000000000E+00 -0.00000000000E+00 -0.40232052518E+02  0.40232052518E+02  0.00000000000E+00 0.  1.
         23    2    1    2    0    0 -0.31981888838E+01  0.31380975105E+02  0.11827113395E+03  0.15269591028E+03  0.91285189807E+02 0.  0.
         24    2    1    2    0    0 -0.87738788119E+01 -0.56709192992E+02  0.15063809371E+03  0.18022040567E+03  0.80589365452E+02 0.  0.
        -13    1    4    4    0    0 -0.31793504124E+02  0.56616783690E+01  0.44597246187E+02  0.55061746012E+02  0.00000000000E+00 0.  1.
         14    1    4    4    0    0  0.23019625312E+02 -0.62370871362E+02  0.10604084753E+03  0.12515865966E+03  0.00000000000E+00 0. -1.
        -11    1    3    3    0    0  0.27610135713E+02  0.40715791858E+02  0.27441864892E+02  0.56330730951E+02  0.00000000000E+00 0.  1.
         11    1    3    3    0    0 -0.30808324597E+02 -0.93348167538E+01  0.90829269059E+02  0.96365179324E+02  0.00000000000E+00 0. -1.
         21    1    1    2  502  501  0.11972067696E+02  0.25328217888E+02  0.15616913857E+02  0.32073930609E+02  0.00000000000E+00 0.  1.
<scales pt_clust_5="13000.00000" pt_clust_6="13000.00000" pt_clust_7="13000.00000" pt_clust_8="13000.00000" pt_clust_9="28.01516"></scales>
<clustering>
<clus scale="   28.015">  2  9  1 -1</clus>
<clus scale="   80.589">  5  6 -1 -1</clus>
<clus scale="   91.285">  7  8 -1 -1</clus>
<clus scale="   92.360">  1  5  2 -1</clus>
<clus scale="   92.360">  1  5  2 -1</clus>
</clustering>
</event>
<event>
 9    2  0.5608219E-005  0.1183619E+03  0.7546771E-02  0.1247590E+00
         -1   -1    0    0    0  501 -0.00000000000E+00  0.00000000000E+00  0.48709737922E+02  0.48709737922E+02  0.00000000000E+00 0.  1.
          2   -1    0    0  502    0  0.00000000000E+00 -0.00000000000E+00 -0.10120274481E+04  0.10120274481E+04  0.00000000000E+00 0. -1.
         23    2    1    2    0    0 -0.14296228856E+02 -0.64727178552E+02 -0.82493922972E+02  0.13797109090E+03  0.88525616600E+02 0.  0.
         24    2    1    2    0    0  0.49048241259E+02  0.64468689304E+02 -0.88041100512E+03  0.88801067001E+03  0.82930514555E+02 0.  0.
        -11    1    4    4    0    0 -0.20169493874E+02  0.21651523803E+02 -0.13710008479E+03  0.14025701485E+03  0.00000000000E+00 0.  1.
         12    1    4    4    0    0  0.69217735133E+02  0.42817165500E+02 -0.74331092033E+03  0.74775365516E+03  0.00000000000E+00 0. -1.
        -11    1    3    3    0    0  0.24661857367E+02 -0.90132398478E+01 -0.61418209900E+02  0.66795525364E+02  0.00000000000E+00 0. -1.
         11    1    3    3    0    0 -0.38958086223E+02 -0.55713938704E+02 -0.21075713072E+02  0.71175565537E+02  0.00000000000E+00 0.  1.
         21    1    1    2  502  501 -0.34752012403E+02  0.25848924801E+00 -0.41278204502E+00  0.34755425069E+02  0.00000000000E+00 0. -1.
<scales pt_clust_5="13000.00000" pt_clust_6="13000.00000" pt_clust_7="13000.00000" pt_clust_8="13000.00000" pt_clust_9="34.75297"></scales>
<clustering>
<clus scale="   34.753">  1  9  2 -1</clus>
<clus scale="   82.931">  5  6 -1 -1</clus>
<clus scale="   88.526">  7  8 -1 -1</clus>
<clus scale="  114.238">  2  5  1 -1</clus>
<clus scale="  114.238">  2  5  1 -1</clus>
</clustering>
</event>
<event>
 9    2  0.5608219E-005  0.1563191E+03  0.7546771E-02  0.1193920E+00
          2   -1    0    0  502    0  0.00000000000E+00  0.00000000000E+00  0.44468602783E+03  0.44468602783E+03  0.00000000000E+00 0. -1.
         -1   -1    0    0    0  501 -0.00000000000E+00 -0.00000000000E+00 -0.16747546453E+03  0.16747546453E+03  0.00000000000E+00 0.  1.
         23    2    1    2    0    0  0.10311412726E+03 -0.16348777126E+03 -0.26032298349E+02  0.21270805421E+03  0.84889700071E+02 0.  0.
         24    2    1    2    0    0 -0.72017780138E+02  0.99034804104E+02  0.29307953749E+03  0.32717300554E+03  0.78435369411E+02 0.  0.
        -11    1    4    4    0    0 -0.55018958661E+02  0.14871150177E+02  0.14792381403E+03  0.15852347358E+03  0.00000000000E+00 0.  1.
         12    1    4    4    0    0 -0.16998821477E+02  0.84163653927E+02  0.14515572346E+03  0.16864953195E+03  0.00000000000E+00 0. -1.
        -11    1    3    3    0    0  0.35396949306E+02 -0.12794742110E+03 -0.28106548397E+01  0.13278323075E+03  0.00000000000E+00 0.  1.
         11    1    3    3    0    0  0.67717177951E+02 -0.35540350161E+02 -0.23221643509E+02  0.79924823468E+02  0.00000000000E+00 0. -1.
         21    1    1    2  502  501 -0.31096347120E+02  0.64452967158E+02  0.10163324162E+02  0.72280432606E+02  0.00000000000E+00 0. -1.
<scales pt_clust_5="13000.00000" pt_clust_6="13000.00000" pt_clust_7="13000.00000" pt_clust_8="13000.00000" pt_clust_9="71.56233"></scales>
<clustering>
<clus scale="   71.562">  2  9  1 -1</clus>
<clus scale="   78.435">  5  6 -1 -1</clus>
<clus scale="   84.890">  7  8 -1 -1</clus>
<clus scale="  152.910">  1  5  2 -1</clus>
<clus scale="  152.910">  1  5  2 -1</clus>
</clustering>
</event>
<event>
 9    2  0.5608219E-005  0.1008942E+03  0.7546771E-02  0.1284674E+00
         -1   -1    0    0    0  501 -0.00000000000E+00  0.00000000000E+00  0.18808774937E+03  0.18808774937E+03  0.00000000000E+00 0.  1.
          2   -1    0    0  502    0  0.00000000000E+00 -0.00000000000E+00 -0.10650832647E+03  0.10650832647E+03  0.00000000000E+00 0. -1.
         24    2    1    2    0    0  0.15976575284E+02 -0.28348020080E+02  0.76351759258E+02  0.11431261292E+03  0.78606113830E+02 0.  0.
         23    2    1    2    0    0 -0.52794889166E+01  0.46797739516E+02 -0.54926029426E+02  0.11646115809E+03  0.91260238922E+02 0.  0.
        -11    1    3    3    0    0 -0.18815781164E+02 -0.14330242114E+02 -0.54936704059E+01  0.24281059993E+02  0.00000000000E+00 0.  1.
         12    1    3    3    0    0  0.34792356448E+02 -0.14017777967E+02  0.81845429663E+02  0.90031552931E+02  0.00000000000E+00 0. -1.
        -11    1    4    4    0    0  0.22225505450E+02 -0.40448854352E+01 -0.54124659364E+02  0.58649918516E+02  0.00000000000E+00 0. -1.
         11    1    4    4    0    0 -0.27504994367E+02  0.50842624952E+02 -0.80137006215E+00  0.57811239574E+02  0.00000000000E+00 0.  1.
         21    1    1    2  502  501 -0.10697086367E+02 -0.18449719436E+02  0.60153693067E+02  0.63822304828E+02  0.00000000000E+00 0.  1.
<scales pt_clust_5="13000.00000" pt_clust_6="13000.00000" pt_clust_7="13000.00000" pt_clust_8="13000.00000" pt_clust_9="21.32650"></scales>
<clustering>
<clus scale="   21.327">  1  9  2 -1</clus>
<clus scale="   78.606">  5  6 -1 -1</clus>
<clus scale="   89.611">  1  5  2 -1</clus>
<clus scale="   91.260">  7  8 -1 -1</clus>
<clus scale="  100.894">  2  5  1 -1</clus>
</clustering>
</event>
<event>
 9    2  0.5608219E-005  0.1126692E+03  0.7546771E-02  0.1258494E+00
         -1   -1    0    0    0  501 -0.00000000000E+00  0.00000000000E+00  0.23909893034E+03  0.23909893034E+03  0.00000000000E+00 0.  1.
          2   -1    0    0  502    0  0.00000000000E+00 -0.00000000000E+00 -0.11922065288E+03  0.11922065288E+03  0.00000000000E+00 0. -1.
         23    2    1    2    0    0  0.76747207973E+02 -0.15437206939E+02  0.10102555309E+03  0.15595729926E+03  0.89376034410E+02 0.  0.
         24    2    1    2    0    0 -0.65683436370E+02 -0.16202701787E+02 -0.56321559866E+02  0.12005393761E+03  0.81633255920E+02 0.  0.
        -11    1    4    4    0    0 -0.10196912488E+01  0.24191698931E+02  0.16568295213E+01  0.24269799164E+02  0.00000000000E+00 0.  1.
         12    1    4    4    0    0 -0.64663745121E+02 -0.40394400718E+02 -0.57978389388E+02  0.95784138449E+02  0.00000000000E+00 0. -1.
        -11    1    3    3    0    0  0.29895619941E+02  0.27070680763E+02  0.45447734246E+01  0.40586017470E+02  0.00000000000E+00 0. -1.
         11    1    3    3    0    0  0.46851588032E+02 -0.42507887701E+02  0.96480779665E+02  0.11537128179E+03  0.00000000000E+00 0.  1.
         21    1    1    2  502  501 -0.11063771603E+02  0.31639908726E+02  0.75174284235E+02  0.82308346336E+02  0.00000000000E+00 0. -1.
<scales pt_clust_5="13000.00000" pt_clust_6="13000.00000" pt_clust_7="13000.00000" pt_clust_8="13000.00000" pt_clust_9="33.51852"></scales>
<clustering>
<clus scale="   33.519">  1  9  2 -1</clus>
<clus scale="   81.633">  5  6 -1 -1</clus>
<clus scale="   89.376">  7  8 -1 -1</clus>
<clus scale="  106.631">  2  5  1 -1</clus>
<clus scale="  106.631">  2  5  1 -1</clus>
</clustering>
</event>
<event>
 9    2  0.5608219E-005  0.1205337E+03  0.7546771E-02  0.1250986E+00
         -1   -1    0    0    0  501 -0.00000000000E+00  0.00000000000E+00  0.94540986078E+02  0.94540986078E+02  0.00000000000E+00 0.  1.
          2   -1    0    0  502    0  0.00000000000E+00 -0.00000000000E+00 -0.16863520590E+03  0.16863520590E+03  0.00000000000E+00 0. -1.
         23    2    1    2    0    0  0.35689060649E+02  0.49650905861E+02 -0.32228747222E+02  0.12743744636E+03  0.10706394857E+03 0.  0.
         24    2    1    2    0    0 -0.10965429403E+02 -0.52371857420E+02 -0.46664751473E+02  0.11040705407E+03  0.84552152345E+02 0.  0.
        -13    1    4    4    0    0 -0.14512118456E+02 -0.74901334533E+02 -0.42130241478E+02  0.87153707574E+02  0.00000000000E+00 0.  1.
         14    1    4    4    0    0  0.35466890529E+01  0.22529477113E+02 -0.45345099945E+01  0.23253346493E+02  0.00000000000E+00 0. -1.
        -13    1    3    3    0    0  0.67679505165E+02  0.47253206427E+01 -0.22180343050E+02  0.71377949622E+02  0.00000000000E+00 0.  1.
         13    1    3    3    0    0 -0.31990444516E+02  0.44925585219E+02 -0.10048404172E+02  0.56059496733E+02  0.00000000000E+00 0. -1.
         21    1    1    2  502  501 -0.24723631245E+02  0.27209515583E+01  0.47992788731E+01  0.25331691555E+02  0.00000000000E+00 0. -1.
<scales pt_clust_5="13000.00000" pt_clust_6="13000.00000" pt_clust_7="13000.00000" pt_clust_8="13000.00000" pt_clust_9="24.87291"></scales>
<clustering>
<clus scale="   24.873">  1  9  2 -1</clus>
<clus scale="   84.552">  5  6 -1 -1</clus>
<clus scale="  101.068">  2  5  1 -1</clus>
<clus scale="  107.064">  7  8 -1 -1</clus>
<clus scale="  101.068">  2  5  1 -1</clus>
</clustering>
</event>
<event>
 9    2  0.5608219E-005  0.9462177E+02  0.7546771E-02  0.1299289E+00
         -1   -1    0    0    0  501 -0.00000000000E+00  0.00000000000E+00  0.22427392058E+03  0.22427392058E+03  0.00000000000E+00 0.  1.
          2   -1    0    0  502    0  0.00000000000E+00 -0.00000000000E+00 -0.31469557288E+03  0.31469557288E+03  0.00000000000E+00 0. -1.
         23    2    1    2    0    0  0.43021874450E+02 -0.19109945211E+02  0.68833510202E+02  0.12364270194E+03  0.91287424811E+02 0.  0.
         24    2    1    2    0    0 -0.21144252249E+02  0.10336960761E+02 -0.28023698235E+03  0.29207016354E+03  0.78856084060E+02 0.  0.
        -13    1    4    4    0    0  0.26095439740E+02 -0.29571104890E+01 -0.48100193339E+02  0.54802783478E+02  0.00000000000E+00 0.  1.
         14    1    4    4    0    0 -0.47239691989E+02  0.13294071250E+02 -0.23213678901E+03  0.23726738006E+03  0.00000000000E+00 0. -1.
        -13    1    3    3    0    0 -0.14714438055E+02 -0.36573264106E+02  0.42064194009E+02  0.57649932804E+02  0.00000000000E+00 0. -1.
         13    1    3    3    0    0  0.57736312506E+02  0.17463318895E+02  0.26769316193E+02  0.65992769134E+02  0.00000000000E+00 0.  1.
         21    1    1    2  502  501 -0.21877622201E+02  0.87729844503E+01  0.12098181984E+03  0.12325662798E+03  0.00000000000E+00 0. -1.
<scales pt_clust_5="13000.00000" pt_clust_6="13000.00000" pt_clust_7="13000.00000" pt_clust_8="13000.00000" pt_clust_9="23.57108"></scales>
<clustering>
<clus scale="   23.571">  1  9  2 -1</clus>
<clus scale="   78.856">  5  6 -1 -1</clus>
<clus scale="   82.693">  2  5  1 -1</clus>
<clus scale="   91.287">  7  8 -1 -1</clus>
<clus scale="   82.693">  2  5  1 -1</clus>
</clustering>
</event>
<event>
 9    2  0.5608219E-005  0.9175866E+02  0.7546771E-02  0.1306956E+00
         -1   -1    0    0    0  501 -0.00000000000E+00  0.00000000000E+00  0.79801100310E+02  0.79801100310E+02  0.00000000000E+00 0.  1.
          2   -1    0    0  502    0  0.00000000000E+00 -0.00000000000E+00 -0.14611036490E+03  0.14611036490E+03  0.00000000000E+00 0. -1.
         24    2    1    2    0    0  0.74305125950E+01 -0.69951407755E+01  0.17939791809E+02  0.79223180446E+02  0.76487460919E+02 0.  0.
         23    2    1    2    0    0 -0.22699389937E+02 -0.11303359904E+02 -0.79056054411E+02  0.12229687210E+03  0.89797755747E+02 0.  0.
        -13    1    3    3    0    0  0.38856403764E+02 -0.11123364803E+02 -0.40897388055E+01  0.40623580856E+02  0.00000000000E+00 0.  1.
         14    1    3    3    0    0 -0.31425891169E+02  0.41282240278E+01  0.22029530615E+02  0.38599599590E+02  0.00000000000E+00 0. -1.
        -11    1    4    4    0    0 -0.55193372784E+02  0.70267616060E+01 -0.52547645656E+02  0.76530639889E+02  0.00000000000E+00 0. -1.
         11    1    4    4    0    0  0.32493982846E+02 -0.18330121510E+02 -0.26508408756E+02  0.45766232208E+02  0.00000000000E+00 0.  1.
         21    1    1    2  502  501  0.15268877342E+02  0.18298500679E+02 -0.51930019925E+01  0.24391412671E+02  0.00000000000E+00 0.  1.
<scales pt_clust_5="13000.00000" pt_clust_6="13000.00000" pt_clust_7="13000.00000" pt_clust_8="13000.00000" pt_clust_9="23.83220"></scales>
<clustering>
<clus scale="   23.832">  1  9  2 -1</clus>
<clus scale="   76.487">  5  6 -1 -1</clus>
<clus scale="   78.780">  1  5  2 -1</clus>
<clus scale="   89.798">  7  8 -1 -1</clus>
<clus scale="   91.759">  2  5  1 -1</clus>
</clustering>
</event>
<event>
 9    2  0.5608219E-005  0.1174967E+03  0.7546771E-02  0.1250781E+00
         -1   -1    0    0    0  501 -0.00000000000E+00  0.00000000000E+00  0.49749203587E+02  0.49749203587E+02  0.00000000000E+00 0.  1.
          2   -1    0    0  502    0  0.00000000000E+00 -0.00000000000E+00 -0.31493135202E+03  0.31493135202E+03  0.00000000000E+00 0. -1.
         24    2    1    2    0    0  0.62769609165E+02 -0.31413704046E+02 -0.10956352688E+03  0.15290311684E+03  0.80301631868E+02 0.  0.
         23    2    1    2    0    0 -0.60307243422E+02  0.53200588297E+02 -0.13717204392E+03  0.18312420515E+03  0.90835228155E+02 0.  0.
        -11    1    3    3    0    0  0.68318751448E+01 -0.27378607760E+02  0.17366264184E+01  0.28271514855E+02  0.00000000000E+00 0.  1.
         12    1    3    3    0    0  0.55937734020E+02 -0.40350962856E+01 -0.11130015330E+03  0.12463160199E+03  0.00000000000E+00 0. -1.
        -11    1    4    4    0    0 -0.17185292044E+02  0.63230321790E+02 -0.11780302817E+03  0.13479970809E+03  0.00000000000E+00 0. -1.
         11    1    4    4    0    0 -0.43121951378E+02 -0.10029733493E+02 -0.19369015754E+02  0.48324497058E+02  0.00000000000E+00 0.  1.
         21    1    1    2  502  501 -0.24623657429E+01 -0.21786884251E+02 -0.18446577630E+02  0.28653233617E+02  0.00000000000E+00 0.  1.
<scales pt_clust_5="13000.00000" pt_clust_6="13000.00000" pt_clust_7="13000.00000" pt_clust_8="13000.00000" pt_clust_9="21.92559"></scales>
<clustering>
<clus scale="   21.926">  1  9  2 -1</clus>
<clus scale="   80.302">  5  6 -1 -1</clus>
<clus scale="   90.835">  7  8 -1 -1</clus>
<clus scale="  109.557">  1  5  2 -1</clus>
<clus scale="  117.497">  2  5  1 -1</clus>
</clustering>
</event>
<event>
 9    2  0.5608219E-005  0.9213742E+02  0.7546771E-02  0.1303713E+00
         -1   -1    0    0    0  501 -0.00000000000E+00  0.00000000000E+00  0.16243752818E+03  0.16243752818E+03  0.00000000000E+00 0.  1.
          2   -1    0    0  502    0  0.00000000000E+00 -0.00000000000E+00 -0.23093977363E+03  0.23093977363E+03  0.00000000000E+00 0. -1.
         24    2    1    2    0    0 -0.46318830812E+02  0.24530951210E+02  0.79177673842E+02  0.12424336479E+03  0.80125576468E+02 0.  0.
         23    2    1    2    0    0  0.12530333405E+02 -0.11077375826E+02 -0.19147090388E+03  0.21221020226E+03  0.89957464388E+02 0.  0.
        -13    1    3    3    0    0 -0.90805471261E+01  0.49845923920E+02  0.39883196209E+02  0.64480553715E+02  0.00000000000E+00 0.  1.
         14    1    3    3    0    0 -0.37238283686E+02 -0.25314972710E+02  0.39294477633E+02  0.59762811075E+02  0.00000000000E+00 0. -1.
        -13    1    4    4    0    0 -0.14274804540E+02 -0.40211071625E+02 -0.14507294943E+03  0.15121792546E+03  0.00000000000E+00 0. -1.
         13    1    4    4    0    0  0.26805137945E+02  0.29133695799E+02 -0.46397954454E+02  0.60992276796E+02  0.00000000000E+00 0.  1.
         21    1    1    2  502  501  0.33788497406E+02 -0.13453575384E+02  0.43790984593E+02  0.56923734762E+02  0.00000000000E+00 0.  1.
<scales pt_clust_5="13000.00000" pt_clust_6="13000.00000" pt_clust_7="13000.00000" pt_clust_8="13000.00000" pt_clust_9="36.36841"></scales>
<clustering>
<clus scale="   36.368">  1  9  2 -1</clus>
<clus scale="   80.126">  5  6 -1 -1</clus>
<clus scale="   82.566">  1  5  2 -1</clus>
<clus scale="   89.957">  7  8 -1 -1</clus>
<clus scale="   92.137">  2  5  1 -1</clus>
</clustering>
</event>
<event>
 9    2  0.5608219E-005  0.1802968E+03  0.7546771E-02  0.1186726E+00
          2   -1    0    0  502    0  0.00000000000E+00  0.00000000000E+00  0.12699268858E+04  0.12699268858E+04  0.00000000000E+00 0. -1.
         -1   -1    0    0    0  501 -0.00000000000E+00 -0.00000000000E+00 -0.49723216657E+02  0.49723216657E+02  0.00000000000E+00 0.  1.
         23    2    1    2    0    0  0.79001412946E+02  0.38625607297E+01  0.14412229860E+03  0.18551805162E+03  0.85962595939E+02 0.  0.
         24    2    1    2    0    0 -0.11987634027E+02 -0.16001119469E+03  0.42258697317E+03  0.45890751792E+03  0.79177486158E+02 0.  0.
        -13    1    4    4    0    0  0.17154841496E+02 -0.79065332272E+02  0.12308481285E+03  0.14729387804E+03  0.00000000000E+00 0.  1.
         14    1    4    4    0    0 -0.29142475523E+02 -0.80945862420E+02  0.29950216032E+03  0.31161363988E+03  0.00000000000E+00 0. -1.
        -13    1    3    3    0    0  0.68581351713E+02 -0.27980570393E+02  0.61197421013E+02  0.96080375004E+02  0.00000000000E+00 0.  1.
         13    1    3    3    0    0  0.10420061233E+02  0.31843131123E+02  0.82924877584E+02  0.89437676614E+02  0.00000000000E+00 0. -1.
         21    1    1    2  502  501 -0.67013778918E+02  0.15614863396E+03  0.65349439736E+03  0.67522453290E+03  0.00000000000E+00 0. -1.
<scales pt_clust_5="13000.00000" pt_clust_6="13000.00000" pt_clust_7="13000.00000" pt_clust_8="13000.00000" pt_clust_9="161.98107"></scales>
<clustering>
<clus scale="   79.177">  5  6 -1 -1</clus>
<clus scale="   85.963">  7  8 -1 -1</clus>
<clus scale="  116.815">  2  7  1 -1</clus>
<clus scale="  161.981">  1  9  2 -1</clus>
<clus scale="  161.981">  1  5  2 -1</clus>
</clustering>
</event>
<event>
 9    2  0.5608219E-005  0.9644594E+02  0.7546771E-02  0.1292994E+00
         -3   -1    0    0    0  501 -0.00000000000E+00  0.00000000000E+00  0.10351824359E+03  0.10351824359E+03  0.00000000000E+00 0.  1.
          4   -1    0    0  502    0  0.00000000000E+00 -0.00000000000E+00 -0.26424168213E+03  0.26424168213E+03  0.00000000000E+00 0. -1.
         23    2    1    2    0    0  0.27082079059E+02 -0.49257815786E+02  0.32420208946E+02  0.11334970772E+03  0.92937155488E+02 0.  0.
         24    2    1    2    0    0 -0.17861388491E+02  0.13608012149E+02 -0.19900071528E+03  0.21712436441E+03  0.83889795246E+02 0.  0.
        -13    1    4    4    0    0  0.76159082052E-01  0.25562010869E+02 -0.10894192763E+02  0.27786788873E+02  0.00000000000E+00 0.  1.
         14    1    4    4    0    0 -0.17937547573E+02 -0.11953998721E+02 -0.18810652251E+03  0.18933757554E+03  0.00000000000E+00 0. -1.
        -11    1    3    3    0    0 -0.28642867134E+01 -0.56267894655E+02  0.52180902555E+02  0.76792751603E+02  0.00000000000E+00 0. -1.
         11    1    3    3    0    0  0.29946365772E+02  0.70100788685E+01 -0.19760693609E+02  0.36556956118E+02  0.00000000000E+00 0.  1.
         21    1    1    2  502  501 -0.92206905681E+01  0.35649803638E+02  0.58570677920E+01  0.37285853579E+02  0.00000000000E+00 0.  1.
<scales pt_clust_5="13000.00000" pt_clust_6="13000.00000" pt_clust_7="13000.00000" pt_clust_8="13000.00000" pt_clust_9="36.82295"></scales>
<clustering>
<clus scale="   36.823">  1  9  2 -1</clus>
<clus scale="   83.890">  5  6 -1 -1</clus>
<clus scale="   87.761">  2  5  1 -1</clus>
<clus scale="   92.937">  7  8 -1 -1</clus>
<clus scale="   87.761">  2  5  1 -1</clus>
</clustering>
</event>
<event>
 9    2  0.5608219E-005  0.1074918E+03  0.7546771E-02  0.1275835E+00
          2   -1    0    0  502    0  0.00000000000E+00  0.00000000000E+00  0.10140549559E+03  0.10140549559E+03  0.00000000000E+00 0. -1.
         -1   -1    0    0    0  501 -0.00000000000E+00 -0.00000000000E+00 -0.28961665912E+03  0.28961665912E+03  0.00000000000E+00 0.  1.
         23    2    1    2    0    0 -0.72063466111E+02 -0.23222803795E+02 -0.18738335461E+03  0.22624167734E+03  0.10168742900E+03 0.  0.
         24    2    1    2    0    0  0.23757018079E+02  0.18647731238E+02  0.45895714746E+02  0.97419272843E+02  0.80448519570E+02 0.  0.
        -13    1    4    4    0    0  0.15377142085E+01  0.46720914101E+02  0.12334092014E+02  0.48346025744E+02  0.00000000000E+00 0.  1.
         14    1    4    4    0    0  0.22219303871E+02 -0.28073182863E+02  0.33561622731E+02  0.49073247100E+02  0.00000000000E+00 0. -1.
        -11    1    3    3    0    0 -0.29886497100E+02 -0.20027735220E+02 -0.19326240337E+01  0.36028432142E+02  0.00000000000E+00 0. -1.
         11    1    3    3    0    0 -0.42176969011E+02 -0.31950685754E+01 -0.18545073057E+03  0.19021324520E+03  0.00000000000E+00 0.  1.
         21    1    1    2  502  501  0.48306448032E+02  0.45750725574E+01 -0.46723523669E+02  0.67361204520E+02  0.00000000000E+00 0. -1.
<scales pt_clust_5="13000.00000" pt_clust_6="13000.00000" pt_clust_7="13000.00000" pt_clust_8="13000.00000" pt_clust_9="48.52262"></scales>
<clustering>
<clus scale="   48.523">  2  9  1 -1</clus>
<clus scale="   80.449">  5  6 -1 -1</clus>
<clus scale="   87.671">  1  5  2 -1</clus>
<clus scale="  101.687">  7  8 -1 -1</clus>
<clus scale="   87.671">  1  5  2 -1</clus>
</clustering>
</event>
<event>
 9    2  0.5608219E-005  0.1024498E+03  0.7546771E-02  0.1278869E+00
          2   -1    0    0  502    0  0.00000000000E+00  0.00000000000E+00  0.33187706628E+03  0.33187706628E+03  0.00000000000E+00 0. -1.
         -1   -1    0    0    0  501 -0.00000000000E+00 -0.00000000000E+00 -0.11921430668E+03  0.11921430668E+03  0.00000000000E+00 0.  1.
         24    2    1    2    0    0 -0.47026981384E+02  0.45757105935E+02 -0.45789179198E+02  0.11299214136E+03  0.79782989137E+02 0.  0.
         23    2    1    2    0    0  0.45109906252E+02 -0.24608617471E+02  0.28584278207E+03  0.30344101416E+03  0.87919652606E+02 0.  0.
        -11    1    3    3    0    0 -0.58212311707E+00  0.41835924450E+02 -0.51141228663E+02  0.66075780063E+02  0.00000000000E+00 0.  1.
         12    1    3    3    0    0 -0.46444858267E+02  0.39211814850E+01  0.53520494647E+01  0.46916361295E+02  0.00000000000E+00 0. -1.
        -13    1    4    4    0    0  0.23998820056E+02 -0.38490511805E+02  0.26963367823E+03  0.27342235333E+03  0.00000000000E+00 0. -1.
         13    1    4    4    0    0  0.21111086196E+02  0.13881894334E+02  0.16209103842E+02  0.30018660830E+02  0.00000000000E+00 0.  1.
         21    1    1    2  502  501  0.19170751326E+01 -0.21148488463E+02 -0.27390843269E+02  0.34658217444E+02  0.00000000000E+00 0. -1.
<scales pt_clust_5="13000.00000" pt_clust_6="13000.00000" pt_clust_7="13000.00000" pt_clust_8="13000.00000" pt_clust_9="21.23520"></scales>
<clustering>
<clus scale="   21.235">  2  9  1 -1</clus>
<clus scale="   79.783">  5  6 -1 -1</clus>
<clus scale="   87.920">  7  8 -1 -1</clus>
<clus scale="   95.558">  2  5  1 -1</clus>
<clus scale="  102.450">  1  5  2 -1</clus>
</clustering>
</event>
<event>
 9    2  0.5608219E-005  0.1833719E+03  0.7546771E-02  0.1165792E+00
          2   -1    0    0  502    0  0.00000000000E+00  0.00000000000E+00  0.47034428707E+03  0.47034428707E+03  0.00000000000E+00 0. -1.
         -1   -1    0    0    0  501 -0.00000000000E+00 -0.00000000000E+00 -0.17760775000E+03  0.17760775000E+03  0.00000000000E+00 0.  1.
         23    2    1    2    0    0 -0.12181383862E+03 -0.59087909363E+02  0.69604282377E+02  0.17770936513E+03  0.91683531884E+02 0.  0.
         24    2    1    2    0    0  0.15919520065E+03  0.60257682409E+02  0.31720327452E+03  0.36900981478E+03  0.81093932193E+02 0.  0.
        -13    1    4    4    0    0  0.23470577206E+02  0.38666081713E+02  0.43571864672E+02  0.62804786923E+02  0.00000000000E+00 0.  1.
         14    1    4    4    0    0  0.13572462345E+03  0.21591600696E+02  0.27363140984E+03  0.30620502786E+03  0.00000000000E+00 0. -1.
        -13    1    3    3    0    0 -0.10038911755E+03 -0.68082733498E+02  0.20004632538E+02  0.12293664566E+03  0.00000000000E+00 0.  1.
         13    1    3    3    0    0 -0.21424721064E+02  0.89948241359E+01  0.49599649839E+02  0.54772719469E+02  0.00000000000E+00 0. -1.
         21    1    1    2  502  501 -0.37381362036E+02 -0.11697730465E+01 -0.94071019830E+02  0.10123285716E+03  0.00000000000E+00 0.  1.
<scales pt_clust_5="13000.00000" pt_clust_6="13000.00000" pt_clust_7="13000.00000" pt_clust_8="13000.00000" pt_clust_9="37.39966"></scales>
<clustering>
<clus scale="   37.400">  2  9  1 -1</clus>
<clus scale="   81.094">  5  6 -1 -1</clus>
<clus scale="   91.684">  7  8 -1 -1</clus>
<clus scale="  178.313">  1  5  2 -1</clus>
<clus scale="  178.313">  1  5  2 -1</clus>
</clustering>
</event>
<event>
 9    2  0.5608219E-005  0.1577772E+03  0.7546771E-02  0.1209647E+00
         -3   -1    0    0    0  501 -0.00000000000E+00  0.00000000000E+00  0.34630200475E+03  0.34630200475E+03  0.00000000000E+00 0.  1.
          4   -1    0    0  502    0  0.00000000000E+00 -0.00000000000E+00 -0.25996346235E+03  0.25996346235E+03  0.00000000000E+00 0. -1.
         23    2    1    2    0    0 -0.16703699101E+02  0.52568311525E+02  0.22856653047E+03  0.25186109869E+03  0.90271331233E+02 0.  0.
         24    2    1    2    0    0  0.12075317189E+03 -0.89352214546E+02 -0.16991017546E+03  0.24062540810E+03  0.80411271176E+02 0.  0.
        -13    1    4    4    0    0  0.87609881657E+02 -0.21767715060E+02 -0.63866005609E+02  0.11058115326E+03  0.00000000000E+00 0.  1.
         14    1    4    4    0    0  0.33143290232E+02 -0.67584499486E+02 -0.10604416985E+03  0.13004425484E+03  0.00000000000E+00 0. -1.
        -11    1    3    3    0    0  0.13327106233E+02  0.54863604050E+02  0.20765865817E+03  0.21519699144E+03  0.00000000000E+00 0. -1.
         11    1    3    3    0    0 -0.30030805334E+02 -0.22952925253E+01  0.20907872303E+02  0.36664107258E+02  0.00000000000E+00 0.  1.
         21    1    1    2  502  501 -0.10404947279E+03  0.36783903022E+02  0.27682187386E+02  0.11377896030E+03  0.00000000000E+00 0.  1.
<scales pt_clust_5="13000.00000" pt_clust_6="13000.00000" pt_clust_7="13000.00000" pt_clust_8="13000.00000" pt_clust_9="135.74854"></scales>
<clustering>
<clus scale="   80.411">  5  6 -1 -1</clus>
<clus scale="   90.271">  7  8 -1 -1</clus>
<clus scale="  105.789">  1  7  2 -1</clus>
<clus scale="  135.749">  1  9  2 -1</clus>
<clus scale="  157.777">  2  5  1 -1</clus>
</clustering>
</event>
<event>
 9    2  0.5608219E-005  0.1456501E+03  0.7546771E-02  0.1207668E+00
         -1   -1    0    0    0  501 -0.00000000000E+00  0.00000000000E+00  0.24496746302E+03  0.24496746302E+03  0.00000000000E+00 0.  1.
          2   -1    0    0  502    0  0.00000000000E+00 -0.00000000000E+00 -0.25095349717E+03  0.25095349717E+03  0.00000000000E+00 0. -1.
         23    2    1    2    0    0  0.41300115591E+02  0.91330338285E+02  0.60379489912E+02  0.14760311127E+03  0.89967024041E+02 0.  0.
         24    2    1    2    0    0 -0.17310501683E+03 -0.79152228016E+02 -0.61699423844E+02  0.21586932740E+03  0.81008182044E+02 0.  0.
        -13    1    4    4    0    0 -0.42282617210E+02 -0.43848542582E+02  0.11301951462E+02  0.61953599666E+02  0.00000000000E+00 0.  1.
         14    1    4    4    0    0 -0.13082239962E+03 -0.35303685434E+02 -0.73001375306E+02  0.15391572774E+03  0.00000000000E+00 0. -1.
        -13    1    3    3    0    0  0.29868191885E+02 -0.69517738897E+01  0.32764458667E+02  0.44877007458E+02  0.00000000000E+00 0.  1.
         13    1    3    3    0    0  0.11431923706E+02  0.98282112175E+02  0.27615031245E+02  0.10272610381E+03  0.00000000000E+00 0. -1.
         21    1    1    2  502  501  0.13180490124E+03 -0.12178110269E+02 -0.46661002148E+01  0.13244852152E+03  0.00000000000E+00 0.  1.
<scales pt_clust_5="13000.00000" pt_clust_6="13000.00000" pt_clust_7="13000.00000" pt_clust_8="13000.00000" pt_clust_9="132.36630"></scales>
<clustering>
<clus scale="   81.008">  5  6 -1 -1</clus>
<clus scale="   89.967">  7  8 -1 -1</clus>
<clus scale="  132.366">  2  9  1 -1</clus>
<clus scale="  140.293">  2  5  1 -1</clus>
<clus scale="  132.366">  2  5  1 -1</clus>
</clustering>
</event>
<event>
 9    2  0.5608219E-005  0.1384942E+03  0.7546771E-02  0.1218110E+00
         -1   -1    0    0    0  501 -0.00000000000E+00  0.00000000000E+00  0.11748493382E+03  0.11748493382E+03  0.00000000000E+00 0.  1.
          2   -1    0    0  502    0  0.00000000000E+00 -0.00000000000E+00 -0.20230732720E+03  0.20230732720E+03  0.00000000000E+00 0. -1.
         23    2    1    2    0    0 -0.51938728775E+02  0.78930954352E+02 -0.31798939357E+02  0.13521411359E+03  0.91345261888E+02 0.  0.
         24    2    1    2    0    0  0.76565115870E+02 -0.82510812448E+02 -0.70118437084E+02  0.15438687765E+03  0.79047211407E+02 0.  0.
        -11    1    4    4    0    0 -0.70084504024E+01 -0.32112714798E+02  0.21648888515E+01  0.32939817433E+02  0.00000000000E+00 0.  1.
         12    1    4    4    0    0  0.83573566273E+02 -0.50398097650E+02 -0.72283325935E+02  0.12144706021E+03  0.00000000000E+00 0. -1.
        -13    1    3    3    0    0 -0.21880433805E+02  0.35850405062E+02  0.31833152399E+02  0.52700612124E+02  0.00000000000E+00 0.  1.
         13    1    3    3    0    0 -0.30058294970E+02  0.43080549290E+02 -0.63632091756E+02  0.82513501471E+02  0.00000000000E+00 0. -1.
         21    1    1    2  502  501 -0.24626387096E+02  0.35798580963E+01  0.17094983054E+02  0.30191269781E+02  0.00000000000E+00 0.  1.
<scales pt_clust_5="13000.00000" pt_clust_6="13000.00000" pt_clust_7="13000.00000" pt_clust_8="13000.00000" pt_clust_9="24.88522"></scales>
<clustering>
<clus scale="   24.885">  1  9  2 -1</clus>
<clus scale="   79.047">  5  6 -1 -1</clus>
<clus scale="   91.345">  7  8 -1 -1</clus>
<clus scale="  130.710">  2  5  1 -1</clus>
<clus scale="  130.710">  2  5  1 -1</clus>
</clustering>
</event>
<event>
 9    2  0.5608219E-005  0.9554852E+02  0.7546771E-02  0.1295730E+00
         -1   -1    0    0    0  501 -0.00000000000E+00  0.00000000000E+00  0.16343882140E+02  0.16343882140E+02  0.00000000000E+00 0.  1.
          2   -1    0    0  502    0  0.00000000000E+00 -0.00000000000E+00 -0.76514378120E+03  0.76514378120E+03  0.00000000000E+00 0. -1.
         23    2    1    2    0    0  0.18416892352E+02 -0.60673810008E+01 -0.23852817722E+03  0.25645719841E+03  0.92187896441E+02 0.  0.
         24    2    1    2    0    0 -0.85363281656E+01  0.29673906616E+02 -0.46352570311E+03  0.47173802769E+03  0.82019995693E+02 0.  0.
        -11    1    4    4    0    0  0.16884791486E+02  0.30102232386E+02 -0.77052533571E+02  0.84429458768E+02  0.00000000000E+00 0.  1.
         12    1    4    4    0    0 -0.25421119651E+02 -0.42832577019E+00 -0.38647316954E+03  0.38730856892E+03  0.00000000000E+00 0. -1.
        -13    1    3    3    0    0 -0.48367771432E+01  0.31243484576E+02 -0.30837939384E+02  0.44164785146E+02  0.00000000000E+00 0. -1.
         13    1    3    3    0    0  0.23253669495E+02 -0.37310865577E+02 -0.20769023784E+03  0.21229241326E+03  0.00000000000E+00 0.  1.
         21    1    1    2  502  501 -0.98805641860E+01 -0.23606525615E+02 -0.46746018723E+02  0.53292437238E+02  0.00000000000E+00 0. -1.
<scales pt_clust_5="13000.00000" pt_clust_6="13000.00000" pt_clust_7="13000.00000" pt_clust_8="13000.00000" pt_clust_9="25.59089"></scales>
<clustering>
<clus scale="   25.591">  1  9  2 -1</clus>
<clus scale="   82.020">  5  6 -1 -1</clus>
<clus scale="   85.780">  2  5  1 -1</clus>
<clus scale="   92.188">  7  8 -1 -1</clus>
<clus scale="   85.780">  2  5  1 -1</clus>
</clustering>
</event>
<event>
 9    2  0.5608219E-005  0.1071172E+03  0.7546771E-02  0.1273490E+00
         -1   -1    0    0    0  501 -0.00000000000E+00  0.00000000000E+00  0.38644140802E+03  0.38644140802E+03  0.00000000000E+00 0.  1.
          2   -1    0    0  502    0  0.00000000000E+00 -0.00000000000E+00 -0.86632366858E+02  0.86632366858E+02  0.00000000000E+00 0. -1.
         24    2    1    2    0    0 -0.20186064747E+01  0.20251081105E+02  0.23842257108E+03  0.25215858984E+03  0.79526416807E+02 0.  0.
         23    2    1    2    0    0 -0.15147705720E+02 -0.49867416567E+02 -0.38131934352E+02  0.11567392687E+03  0.95969790643E+02 0.  0.
        -13    1    3    3    0    0  0.27168995654E+02  0.32274419448E+02  0.18795685051E+03  0.19263325291E+03  0.00000000000E+00 0.  1.
         14    1    3    3    0    0 -0.29187602129E+02 -0.12023338343E+02  0.50465720575E+02  0.59525336925E+02  0.00000000000E+00 0. -1.
        -13    1    4    4    0    0  0.67626058968E+01 -0.58315077082E+02 -0.59743964152E+02  0.83759908704E+02  0.00000000000E+00 0. -1.
         13    1    4    4    0    0 -0.21910311617E+02  0.84476605150E+01  0.21612029799E+02  0.31914018164E+02  0.00000000000E+00 0.  1.
         21    1    1    2  502  501  0.17166312195E+02  0.29616335462E+02  0.99518404434E+02  0.10524125817E+03  0.00000000000E+00 0.  1.
<scales pt_clust_5="13000.00000" pt_clust_6="13000.00000" pt_clust_7="13000.00000" pt_clust_8="13000.00000" pt_clust_9="34.23170"></scales>
<clustering>
<clus scale="   34.232">  1  9  2 -1</clus>
<clus scale="   79.526">  5  6 -1 -1</clus>
<clus scale="   92.673">  1  5  2 -1</clus>
<clus scale="   95.970">  7  8 -1 -1</clus>
<clus scale="  107.117">  2  5  1 -1</clus>
</clustering>
</event>
<event>
 9    2  0.5608219E-005  0.1114007E+03  0.7546771E-02  0.1260826E+00
         -1   -1    0    0    0  501 -0.00000000000E+00  0.00000000000E+00  0.12236998026E+03  0.12236998026E+03  0.00000000000E+00 0.  1.
          2   -1    0    0  502    0  0.00000000000E+00 -0.00000000000E+00 -0.21859981431E+03  0.21859981431E+03  0.00000000000E+00 0. -1.
         23    2    1    2    0    0 -0.51187306138E+02  0.22349633089E+02  0.67766782198E+02  0.11365703545E+03  0.72152190048E+02 0.  0.
         24    2    1    2    0    0  0.68877051128E+02 -0.42683239663E+02 -0.16451117875E+03  0.20035636084E+03  0.80702145399E+02 0.  0.
        -13    1    4    4    0    0  0.21483727900E+02 -0.47803797234E+02 -0.36800705472E+02  0.64039405976E+02  0.00000000000E+00 0.  1.
         14    1    4    4    0    0  0.47393323227E+02  0.51205575708E+01 -0.12771047328E+03  0.13631695486E+03  0.00000000000E+00 0. -1.
        -13    1    3    3    0    0 -0.41865302128E+02 -0.15814121723E+02  0.57848684188E+02  0.73138637056E+02  0.00000000000E+00 0.  1.
         13    1    3    3    0    0 -0.93220040095E+01  0.38163754813E+02  0.99180980101E+01  0.40518398393E+02  0.00000000000E+00 0. -1.
         21    1    1    2  502  501 -0.17689744990E+02  0.20333606574E+02  0.51456250122E+00  0.26956398288E+02  0.00000000000E+00 0.  1.
<scales pt_clust_5="13000.00000" pt_clust_6="13000.00000" pt_clust_7="13000.00000" pt_clust_8="13000.00000" pt_clust_9="26.95149"></scales>
<clustering>
<clus scale="   26.951">  1  9  2 -1</clus>
<clus scale="   72.152">  7  8 -1 -1</clus>
<clus scale="   80.702">  5  6 -1 -1</clus>
<clus scale="  105.372">  1  7  2 -1</clus>
<clus scale="  111.401">  2  5  1 -1</clus>
</clustering>
</event>
<event>
 9    2  0.5608219E-005  0.1011707E+03  0.7546771E-02  0.1281036E+00
         -1   -1    0    0    0  501 -0.00000000000E+00  0.00000000000E+00  0.37890562466E+03  0.37890562466E+03  0.00000000000E+00 0.  1.
          2   -1    0    0  502    0  0.00000000000E+00 -0.00000000000E+00 -0.19008369829E+03  0.19008369829E+03  0.00000000000E+00 0. -1.
         23    2    1    2    0    0  0.25894812054E+02 -0.21698583170E+02  0.33181309642E+03  0.34472177868E+03  0.87130958543E+02 0.  0.
         24    2    1    2    0    0 -0.52294968560E+02  0.26675981065E+01 -0.16082130750E+03  0.18715877902E+03  0.80143844447E+02 0.  0.
        -13    1    4    4    0    0 -0.22702383553E+02 -0.12800824226E+02 -0.34571331683E+01  0.26290893663E+02  0.00000000000E+00 0.  1.
         14    1    4    4    0    0 -0.29592585007E+02  0.15468422332E+02 -0.15736417433E+03  0.16086788536E+03  0.00000000000E+00 0. -1.
        -13    1    3    3    0    0  0.43672435332E+02  0.13456669457E+02  0.10500981680E+03  0.11452259683E+03  0.00000000000E+00 0.  1.
         13    1    3    3    0    0 -0.17777623277E+02 -0.35155252627E+02  0.22680327962E+03  0.23019918185E+03  0.00000000000E+00 0. -1.
         21    1    1    2  502  501  0.26400156506E+02  0.19030985064E+02  0.17830137447E+02  0.37108765237E+02  0.00000000000E+00 0.  1.
<scales pt_clust_5="13000.00000" pt_clust_6="13000.00000" pt_clust_7="13000.00000" pt_clust_8="13000.00000" pt_clust_9="32.54453"></scales>
<clustering>
<clus scale="   32.545">  1  9  2 -1</clus>
<clus scale="   80.144">  5  6 -1 -1</clus>
<clus scale="   87.131">  7  8 -1 -1</clus>
<clus scale="   95.219">  2  5  1 -1</clus>
<clus scale="   95.219">  2  5  1 -1</clus>
</clustering>
</event>
<event>
 9    2  0.5608219E-005  0.1012091E+03  0.7546771E-02  0.1284806E+00
          2   -1    0    0  502    0  0.00000000000E+00  0.00000000000E+00  0.26956300323E+03  0.26956300323E+03  0.00000000000E+00 0. -1.
         -1   -1    0    0    0  501 -0.00000000000E+00 -0.00000000000E+00 -0.68024572227E+02  0.68024572227E+02  0.00000000000E+00 0.  1.
         24    2    1    2    0    0  0.21489986020E+02  0.10348038885E+02 -0.58968453719E+01  0.84313862389E+02  0.80654529927E+02 0.  0.
         23    2    1    2    0    0 -0.18680545026E+02 -0.36766511648E+02  0.20113438837E+03  0.22596932054E+03  0.94373473496E+02 0.  0.
        -13    1    3    3    0    0 -0.11186220966E+02 -0.30078894313E+02 -0.34217808750E+01  0.32273518664E+02  0.00000000000E+00 0.  1.
         14    1    3    3    0    0  0.32676206986E+02  0.40426933198E+02 -0.24750644969E+01  0.52040343725E+02  0.00000000000E+00 0. -1.
        -13    1    4    4    0    0 -0.29156231676E+02  0.23470891587E+02  0.11027043444E+03  0.11644972009E+03  0.00000000000E+00 0. -1.
         13    1    4    4    0    0  0.10475686650E+02 -0.60237403235E+02  0.90863953928E+02  0.10951960045E+03  0.00000000000E+00 0.  1.
         21    1    1    2  502  501 -0.28094409935E+01  0.26418472763E+02  0.63008880103E+01  0.27304392532E+02  0.00000000000E+00 0. -1.
<scales pt_clust_5="13000.00000" pt_clust_6="13000.00000" pt_clust_7="13000.00000" pt_clust_8="13000.00000" pt_clust_9="26.56744"></scales>
<clustering>
<clus scale="   26.567">  2  9  1 -1</clus>
<clus scale="   80.655">  5  6 -1 -1</clus>
<clus scale="   88.556">  2  5  1 -1</clus>
<clus scale="   94.373">  7  8 -1 -1</clus>
<clus scale="  101.209">  1  5  2 -1</clus>
</clustering>
</event>
<event>
 9    2  0.5608219E-005  0.9359900E+02  0.7546771E-02  0.1301555E+00
         -1   -1    0    0    0  501 -0.00000000000E+00  0.00000000000E+00  0.24716057668E+02  0.24716057668E+02  0.00000000000E+00 0.  1.
          2   -1    0    0  502    0  0.00000000000E+00 -0.00000000000E+00 -0.65949908698E+03  0.65949908698E+03  0.00000000000E+00 0. -1.
         23    2    1    2    0    0 -0.37786128251E+01 -0.17404389189E+02 -0.20532411760E+03  0.22568170026E+03  0.91962198130E+02 0.  0.
         24    2    1    2    0    0 -0.18673637052E+02  0.10285769785E+02 -0.42687101184E+03  0.43483797029E+03  0.80066833828E+02 0.  0.
        -13    1    4    4    0    0  0.22239525674E+02  0.72397929984E+01 -0.44496086022E+02  0.50268407336E+02  0.00000000000E+00 0.  1.
         14    1    4    4    0    0 -0.40913162727E+02  0.30459767865E+01 -0.38237492582E+03  0.38456956296E+03  0.00000000000E+00 0. -1.
        -11    1    3    3    0    0 -0.43001001994E+01 -0.45641192093E+02 -0.50098203805E+02  0.67907579120E+02  0.00000000000E+00 0.  1.
         11    1    3    3    0    0  0.52148737430E+00  0.28236802904E+02 -0.15522591380E+03  0.15777412114E+03  0.00000000000E+00 0. -1.
         21    1    1    2  502  501  0.22452249877E+02  0.71186194043E+01 -0.25878998689E+01  0.23695474093E+02  0.00000000000E+00 0.  1.
<scales pt_clust_5="13000.00000" pt_clust_6="13000.00000" pt_clust_7="13000.00000" pt_clust_8="13000.00000" pt_clust_9="23.55373"></scales>
<clustering>
<clus scale="   23.554">  1  9  2 -1</clus>
<clus scale="   80.067">  5  6 -1 -1</clus>
<clus scale="   81.942">  2  5  1 -1</clus>
<clus scale="   91.962">  7  8 -1 -1</clus>
<clus scale="   81.942">  2  5  1 -1</clus>
</clustering>
</event>
<event>
 9    2  0.5608219E-005  0.1710662E+03  0.7546771E-02  0.1178526E+00
         -1   -1    0    0    0  501 -0.00000000000E+00  0.00000000000E+00  0.21253587310E+03  0.21253587310E+03  0.00000000000E+00 0.  1.
          2   -1    0    0  502    0  0.00000000000E+00 -0.00000000000E+00 -0.32163350658E+03  0.32163350658E+03  0.00000000000E+00 0. -1.
         24    2    1    2    0    0 -0.11247955487E+03  0.45078114579E+02  0.82365902001E+02  0.16726891524E+03  0.80691148922E+02 0.  0.
         23    2    1    2    0    0  0.12302795612E+03 -0.83425286968E+02 -0.24420325060E+03  0.30084554827E+03  0.93686497531E+02 0.  0.
        -11    1    3    3    0    0 -0.10933349659E+03  0.13490191458E+02  0.78543232295E+02  0.13529537347E+03  0.00000000000E+00 0.  1.
         12    1    3    3    0    0 -0.31460582838E+01  0.31587923121E+02  0.38226697061E+01  0.31973541773E+02  0.00000000000E+00 0. -1.
        -11    1    4    4    0    0 -0.81253294979E+01 -0.27357524053E+02 -0.70675485125E+02  0.76219940300E+02  0.00000000000E+00 0.  1.
         11    1    4    4    0    0  0.13115328562E+03 -0.56067762915E+02 -0.17352776547E+03  0.22462560797E+03  0.00000000000E+00 0. -1.
         21    1    1    2  502  501 -0.10548401245E+02  0.38347172389E+02  0.52739715114E+02  0.66054916164E+02  0.00000000000E+00 0. -1.
<scales pt_clust_5="13000.00000" pt_clust_6="13000.00000" pt_clust_7="13000.00000" pt_clust_8="13000.00000" pt_clust_9="39.77153"></scales>
<clustering>
<clus scale="   39.772">  1  9  2 -1</clus>
<clus scale="   80.691">  5  6 -1 -1</clus>
<clus scale="   93.686">  7  8 -1 -1</clus>
<clus scale="  164.309">  1  5  2 -1</clus>
<clus scale="  171.066">  2  5  1 -1</clus>
</clustering>
</event>
<event>
 9    2  0.5608219E-005  0.1037829E+03  0.7546771E-02  0.1277245E+00
         -3   -1    0    0    0  501 -0.00000000000E+00  0.00000000000E+00  0.95564878549E+02  0.95564878549E+02  0.00000000000E+00 0.  1.
          4   -1    0    0  502    0  0.00000000000E+00 -0.00000000000E+00 -0.61225484703E+03  0.61225484703E+03  0.00000000000E+00 0. -1.
         23    2    1    2    0    0 -0.40148620486E+02  0.30511645706E+02  0.27239072145E+02  0.10895326548E+03  0.92660535056E+02 0.  0.
         24    2    1    2    0    0  0.18840069889E+02 -0.42926104513E+02 -0.56093943909E+03  0.56890770893E+03  0.82494413537E+02 0.  0.
        -11    1    4    4    0    0  0.25922774386E+02  0.15641843960E+02 -0.10873998326E+03  0.11287622191E+03  0.00000000000E+00 0.  1.
         12    1    4    4    0    0 -0.70827044972E+01 -0.58567948473E+02 -0.45219945583E+03  0.45603148701E+03  0.00000000000E+00 0. -1.
        -11    1    3    3    0    0 -0.21472914658E+02 -0.17631003705E+02  0.46227635045E+02  0.53934521388E+02  0.00000000000E+00 0.  1.
         11    1    3    3    0    0 -0.18675705827E+02  0.48142649411E+02 -0.18988562900E+02  0.55018744092E+02  0.00000000000E+00 0. -1.
         21    1    1    2  502  501  0.21308550597E+02  0.12414458807E+02  0.17010398465E+02  0.29958751175E+02  0.00000000000E+00 0. -1.
<scales pt_clust_5="13000.00000" pt_clust_6="13000.00000" pt_clust_7="13000.00000" pt_clust_8="13000.00000" pt_clust_9="24.66117"></scales>
<clustering>
<clus scale="   24.661">  1  9  2 -1</clus>
<clus scale="   82.494">  5  6 -1 -1</clus>
<clus scale="   92.661">  7  8 -1 -1</clus>
<clus scale="   94.817">  2  5  1 -1</clus>
<clus scale="   94.817">  2  5  1 -1</clus>
</clustering>
</event>
<event>
 9    2  0.5608219E-005  0.1966318E+03  0.7546771E-02  0.1153977E+00
         -1   -1    0    0    0  501 -0.00000000000E+00  0.00000000000E+00  0.26606056836E+03  0.26606056836E+03  0.00000000000E+00 0.  1.
          2   -1    0    0  502    0  0.00000000000E+00 -0.00000000000E+00 -0.18266877249E+03  0.18266877249E+03  0.00000000000E+00 0. -1.
         23    2    1    2    0    0 -0.15472395199E+03 -0.11135825615E+03  0.96320971156E+02  0.23284785412E+03  0.92737431229E+02 0.  0.
         24    2    1    2    0    0  0.11145914055E+03  0.10006634315E+03 -0.20817366283E+02  0.17047691907E+03  0.78693101033E+02 0.  0.
        -13    1    4    4    0    0  0.49567790617E+02  0.84678530144E+02  0.11831297563E+02  0.98830151958E+02  0.00000000000E+00 0.  1.
         14    1    4    4    0    0  0.61891349935E+02  0.15387813010E+02 -0.32648663846E+02  0.71646767107E+02  0.00000000000E+00 0. -1.
        -13    1    3    3    0    0 -0.49659660240E+02 -0.45595633946E+02  0.84846162886E+02  0.10836934551E+03  0.00000000000E+00 0.  1.
         13    1    3    3    0    0 -0.10506429175E+03 -0.65762622207E+02  0.11474808270E+02  0.12447850861E+03  0.00000000000E+00 0. -1.
         21    1    1    2  502  501  0.43264811440E+02  0.11291912998E+02  0.78881909958E+01  0.45404567670E+02  0.00000000000E+00 0.  1.
<scales pt_clust_5="13000.00000" pt_clust_6="13000.00000" pt_clust_7="13000.00000" pt_clust_8="13000.00000" pt_clust_9="44.71411"></scales>
<clustering>
<clus scale="   44.714">  2  9  1 -1</clus>
<clus scale="   78.693">  5  6 -1 -1</clus>
<clus scale="   92.737">  7  8 -1 -1</clus>
<clus scale="  190.411">  2  5  1 -1</clus>
<clus scale="   44.714">  2  5  1 -1</clus>
</clustering>
</event>
<event>
 9    2  0.5608219E-005  0.1642290E+03  0.7546771E-02  0.1186574E+00
         -1   -1    0    0    0  501 -0.00000000000E+00  0.00000000000E+00  0.11382719620E+03  0.11382719620E+03  0.00000000000E+00 0.  1.
          2   -1    0    0  502    0  0.00000000000E+00 -0.00000000000E+00 -0.43108051379E+03  0.43108051379E+03  0.00000000000E+00 0. -1.
         24    2    1    2    0    0  0.76952807494E+02 -0.91417884499E+02  0.30874815777E+02  0.14465512860E+03  0.75451227908E+02 0.  0.
         23    2    1    2    0    0 -0.81565094018E+02  0.11273222118E+03 -0.33593770154E+03  0.37526897150E+03  0.92796785520E+02 0.  0.
        -13    1    3    3    0    0  0.26747510815E+02  0.94250929922E+01  0.23890330206E+01  0.28459957686E+02  0.00000000000E+00 0.  1.
         14    1    3    3    0    0  0.50205296679E+02 -0.10084297749E+03  0.28485782756E+02  0.11619517091E+03  0.00000000000E+00 0. -1.
        -13    1    4    4    0    0 -0.52976938495E+01  0.45056992787E+02 -0.34331039998E+02  0.56893044095E+02  0.00000000000E+00 0.  1.
         13    1    4    4    0    0 -0.76267400168E+02  0.67675228396E+02 -0.30160666154E+03  0.31837592741E+03  0.00000000000E+00 0. -1.
         21    1    1    2  502  501  0.46122865242E+01 -0.21314336683E+02 -0.12190431826E+02  0.24983609894E+02  0.00000000000E+00 0.  1.
<scales pt_clust_5="13000.00000" pt_clust_6="13000.00000" pt_clust_7="13000.00000" pt_clust_8="13000.00000" pt_clust_9="21.80766"></scales>
<clustering>
<clus scale="   21.808">  1  9  2 -1</clus>
<clus scale="   75.451">  5  6 -1 -1</clus>
<clus scale="   92.797">  7  8 -1 -1</clus>
<clus scale="  155.090">  1  5  2 -1</clus>
<clus scale="  164.229">  2  5  1 -1</clus>
</clustering>
</event>
<event>
 9    2  0.5608219E-005  0.1661555E+03  0.7546771E-02  0.1183593E+00
          4   -1    0    0  502    0  0.00000000000E+00  0.00000000000E+00  0.27015172098E+03  0.27015172098E+03  0.00000000000E+00 0. -1.
         -3   -1    0    0    0  501 -0.00000000000E+00 -0.00000000000E+00 -0.44701541851E+03  0.44701541851E+03  0.00000000000E+00 0.  1.
         23    2    1    2    0    0 -0.64821965346E+02  0.22389769983E+02 -0.24891818446E+03  0.27388829626E+03  0.91385706119E+02 0.  0.
         24    2    1    2    0    0  0.13364155104E+03 -0.59550402334E+02  0.21997347618E+03  0.27595557720E+03  0.79729767223E+02 0.  0.
        -13    1    4    4    0    0  0.75445388765E+02 -0.81308791648E+00  0.62018956367E+02  0.97667900288E+02  0.00000000000E+00 0.  1.
         14    1    4    4    0    0  0.58196162277E+02 -0.58737314417E+02  0.15795451982E+03  0.17828767691E+03  0.00000000000E+00 0. -1.
        -11    1    3    3    0    0 -0.25350256484E+02  0.54484627277E+02 -0.10169450263E+03  0.11812274115E+03  0.00000000000E+00 0. -1.
         11    1    3    3    0    0 -0.39471708862E+02 -0.32094857294E+02 -0.14722368183E+03  0.15576555511E+03  0.00000000000E+00 0.  1.
         21    1    1    2  502  501 -0.68819585696E+02  0.37160632351E+02 -0.14791898925E+03  0.16732326603E+03  0.00000000000E+00 0. -1.
<scales pt_clust_5="13000.00000" pt_clust_6="13000.00000" pt_clust_7="13000.00000" pt_clust_8="13000.00000" pt_clust_9="78.21156"></scales>
<clustering>
<clus scale="   78.212">  2  9  1 -1</clus>
<clus scale="   79.730">  5  6 -1 -1</clus>
<clus scale="   91.386">  7  8 -1 -1</clus>
<clus scale="  160.041">  1  5  2 -1</clus>
<clus scale="  160.041">  1  5  2 -1</clus>
</clustering>
</event>
<event>
 9    2  0.5608219E-005  0.1420769E+03  0.7546771E-02  0.1210787E+00
         -1   -1    0    0    0  501 -0.00000000000E+00  0.00000000000E+00  0.11604454639E+03  0.11604454639E+03  0.00000000000E+00 0.  1.
          2   -1    0    0  502    0  0.00000000000E+00 -0.00000000000E+00 -0.24081926289E+03  0.24081926289E+03  0.00000000000E+00 0. -1.
         23    2    1    2    0    0  0.44739110699E+02 -0.10552991268E+03 -0.55965564771E+02  0.15892891577E+03  0.94805618661E+02 0.  0.
         24    2    1    2    0    0 -0.59058349379E+02  0.81414278992E+02 -0.88619198053E+02  0.16359770784E+03  0.93779924773E+02 0.  0.
        -11    1    4    4    0    0  0.18624321438E+02  0.50056152278E+02 -0.40114818649E+02  0.66795826255E+02  0.00000000000E+00 0.  1.
         12    1    4    4    0    0 -0.77682670816E+02  0.31358126715E+02 -0.48504379404E+02  0.96801881581E+02  0.00000000000E+00 0. -1.
        -13    1    3    3    0    0 -0.14991086420E+02 -0.69817035924E+02 -0.53616971940E+02  0.89296869246E+02  0.00000000000E+00 0.  1.
         13    1    3    3    0    0  0.59730197119E+02 -0.35712876758E+02 -0.23485928315E+01  0.69632046519E+02  0.00000000000E+00 0. -1.
         21    1    1    2  502  501  0.14319238680E+02  0.24115633689E+02  0.19810046325E+02  0.34337185673E+02  0.00000000000E+00 0. -1.
<scales pt_clust_5="13000.00000" pt_clust_6="13000.00000" pt_clust_7="13000.00000" pt_clust_8="13000.00000" pt_clust_9="28.04647"></scales>
<clustering>
<clus scale="   28.046">  1  9  2 -1</clus>
<clus scale="   93.780">  5  6 -1 -1</clus>
<clus scale="   94.806">  7  8 -1 -1</clus>
<clus scale="  141.395">  2  5  1 -1</clus>
<clus scale="  141.395">  2  5  1 -1</clus>
</clustering>
</event>
<event>
 9    2  0.5608219E-005  0.3254047E+03  0.7546771E-02  0.1073618E+00
          2   -1    0    0  502    0  0.00000000000E+00  0.00000000000E+00  0.18226155812E+03  0.18226155812E+03  0.00000000000E+00 0. -1.
         -1   -1    0    0    0  501 -0.00000000000E+00 -0.00000000000E+00 -0.91125971039E+03  0.91125971039E+03  0.00000000000E+00 0.  1.
         23    2    1    2    0    0  0.31881036569E+03  0.10435968045E+02 -0.50122537089E+03  0.60146363737E+03  0.93715932187E+02 0.  0.
         24    2    1    2    0    0 -0.30558791330E+03 -0.50219394947E+02 -0.68024559353E+02  0.32689998300E+03  0.79563168799E+02 0.  0.
        -11    1    4    4    0    0 -0.27863161756E+03 -0.24438180707E+02 -0.73506715009E+02  0.28919896288E+03  0.00000000000E+00 0.  1.
         12    1    4    4    0    0 -0.26956295739E+02 -0.25781214239E+02  0.54821556552E+01  0.37701020122E+02  0.00000000000E+00 0. -1.
        -11    1    3    3    0    0  0.28953765819E+03  0.19838995876E+02 -0.48846333475E+03  0.56817433122E+03  0.00000000000E+00 0. -1.
         11    1    3    3    0    0  0.29272707504E+02 -0.94030278316E+01 -0.12762036145E+02  0.33289306144E+02  0.00000000000E+00 0.  1.
         21    1    1    2  502  501 -0.13222452392E+02  0.39783426902E+02 -0.15974822202E+03  0.16515764815E+03  0.00000000000E+00 0. -1.
<scales pt_clust_5="13000.00000" pt_clust_6="13000.00000" pt_clust_7="13000.00000" pt_clust_8="13000.00000" pt_clust_9="41.92320"></scales>
<clustering>
<clus scale="   41.923">  2  9  1 -1</clus>
<clus scale="   79.563">  5  6 -1 -1</clus>
<clus scale="   93.716">  7  8 -1 -1</clus>
<clus scale="  321.614">  1  5  2 -1</clus>
<clus scale="  321.614">  1  5  2 -1</clus>
</clustering>
</event>
<event>
 9    2  0.5608219E-005  0.1082166E+03  0.7546771E-02  0.1267159E+00
         -1   -1    0    0    0  501 -0.00000000000E+00  0.00000000000E+00  0.33691574626E+02  0.33691574626E+02  0.00000000000E+00 0.  1.
          2   -1    0    0  502    0  0.00000000000E+00 -0.00000000000E+00 -0.59138897802E+03  0.59138897802E+03  0.00000000000E+00 0. -1.
         23    2    1    2    0    0 -0.32255147737E+02  0.29964473264E+02 -0.15078419239E+03  0.18156123315E+03  0.91051328900E+02 0.  0.
         24    2    1    2    0    0  0.29428861692E+02 -0.59037722176E+02 -0.39956124809E+03  0.41339801385E+03  0.83049481276E+02 0.  0.
        -11    1    4    4    0    0  0.36600424173E+02  0.42264650198E+01 -0.88067072752E+02  0.95463413722E+02  0.00000000000E+00 0.  1.
         12    1    4    4    0    0 -0.71715624813E+01 -0.63264187196E+02 -0.31149417533E+03  0.31793460013E+03  0.00000000000E+00 0. -1.
        -11    1    3    3    0    0  0.27152591325E+02 -0.73750449712E+01 -0.25532968867E+02  0.37994565442E+02  0.00000000000E+00 0. -1.
         11    1    3    3    0    0 -0.59407739062E+02  0.37339518235E+02 -0.12525122353E+03  0.14356666771E+03  0.00000000000E+00 0.  1.
         21    1    1    2  502  501  0.28262860455E+01  0.29073248912E+02 -0.73519629117E+01  0.30121305645E+02  0.00000000000E+00 0. -1.
<scales pt_clust_5="13000.00000" pt_clust_6="13000.00000" pt_clust_7="13000.00000" pt_clust_8="13000.00000" pt_clust_9="29.21030"></scales>
<clustering>
<clus scale="   29.210">  1  9  2 -1</clus>
<clus scale="   83.049">  5  6 -1 -1</clus>
<clus scale="   91.051">  7  8 -1 -1</clus>
<clus scale="  101.576">  2  5  1 -1</clus>
<clus scale="  101.576">  2  5  1 -1</clus>
</clustering>
</event>
<event>
 9    2  0.5608219E-005  0.1317892E+03  0.7546771E-02  0.1227383E+00
          2   -1    0    0  502    0  0.00000000000E+00  0.00000000000E+00  0.47452747530E+03  0.47452747530E+03  0.00000000000E+00 0. -1.
         -1   -1    0    0    0  501 -0.00000000000E+00 -0.00000000000E+00 -0.69087858337E+02  0.69087858337E+02  0.00000000000E+00 0.  1.
         23    2    1    2    0    0  0.79989602312E+02  0.76742416466E+02  0.73615635482E+02  0.16209500020E+03  0.92562369989E+02 0.  0.
         24    2    1    2    0    0 -0.55226015186E+02 -0.70903428085E+02  0.33437590463E+03  0.35595001188E+03  0.82558806256E+02 0.  0.
        -13    1    4    4    0    0  0.21463353981E+02 -0.20374258884E+02  0.97554701629E+02  0.10194462124E+03  0.00000000000E+00 0.  1.
         14    1    4    4    0    0 -0.76689369167E+02 -0.50529169201E+02  0.23682120301E+03  0.25400539064E+03  0.00000000000E+00 0. -1.
        -13    1    3    3    0    0  0.73439984224E+02  0.96444776297E+02  0.51348563312E+02  0.13164991877E+03  0.00000000000E+00 0.  1.
         13    1    3    3    0    0  0.65496180881E+01 -0.19702359832E+02  0.22267072170E+02  0.30445081426E+02  0.00000000000E+00 0. -1.
         21    1    1    2  502  501 -0.24763587127E+02 -0.58389883804E+01 -0.25519231565E+01  0.25570321556E+02  0.00000000000E+00 0. -1.
<scales pt_clust_5="13000.00000" pt_clust_6="13000.00000" pt_clust_7="13000.00000" pt_clust_8="13000.00000" pt_clust_9="25.44266"></scales>
<clustering>
<clus scale="   25.443">  2  9  1 -1</clus>
<clus scale="   82.559">  5  6 -1 -1</clus>
<clus scale="   92.562">  7  8 -1 -1</clus>
<clus scale="  124.966">  1  5  2 -1</clus>
<clus scale="  124.966">  1  5  2 -1</clus>
</clustering>
</event>
<event>
 9    2  0.5608219E-005  0.1564569E+03  0.7546771E-02  0.1194643E+00
         -1   -1    0    0    0  501 -0.00000000000E+00  0.00000000000E+00  0.39021190638E+02  0.39021190638E+02  0.00000000000E+00 0.  1.
          2   -1    0    0  502    0  0.00000000000E+00 -0.00000000000E+00 -0.79178105099E+03  0.79178105099E+03  0.00000000000E+00 0. -1.
         24    2    1    2    0    0  0.13830561096E+03  0.96011739653E+01 -0.26018601832E+03  0.30555832001E+03  0.80302541875E+02 0.  0.
         23    2    1    2    0    0 -0.11796081389E+03 -0.26522362024E+02 -0.45222661572E+03  0.47699315951E+03  0.91626267821E+02 0.  0.
        -11    1    3    3    0    0  0.30873745073E+02 -0.28366817482E+02 -0.41633637410E+02  0.59086582511E+02  0.00000000000E+00 0.  1.
         12    1    3    3    0    0  0.10743186588E+03  0.37967991447E+02 -0.21855238091E+03  0.24647173750E+03  0.00000000000E+00 0. -1.
        -13    1    4    4    0    0 -0.63196156792E+02 -0.59816868787E+02 -0.28100530848E+03  0.29416967114E+03  0.00000000000E+00 0. -1.
         13    1    4    4    0    0 -0.54764657094E+02  0.33294506762E+02 -0.17122130724E+03  0.18282348837E+03  0.00000000000E+00 0.  1.
         21    1    1    2  502  501 -0.20344797071E+02  0.16921188059E+02 -0.40347226302E+02  0.48250762103E+02  0.00000000000E+00 0. -1.
<scales pt_clust_5="13000.00000" pt_clust_6="13000.00000" pt_clust_7="13000.00000" pt_clust_8="13000.00000" pt_clust_9="26.46200"></scales>
<clustering>
<clus scale="   26.462">  1  9  2 -1</clus>
<clus scale="   80.303">  5  6 -1 -1</clus>
<clus scale="   91.626">  7  8 -1 -1</clus>
<clus scale="  150.106">  1  5  2 -1</clus>
<clus scale="  156.457">  2  5  1 -1</clus>
</clustering>
</event>
<event>
 9    2  0.5608219E-005  0.1384112E+03  0.7546771E-02  0.1217839E+00
          2   -1    0    0  502    0  0.00000000000E+00  0.00000000000E+00  0.23804571753E+03  0.23804571753E+03  0.00000000000E+00 0. -1.
         -1   -1    0    0    0  501 -0.00000000000E+00 -0.00000000000E+00 -0.10283981562E+03  0.10283981562E+03  0.00000000000E+00 0.  1.
         23    2    1    2    0    0  0.58074900542E+01 -0.10261855717E+03  0.11932035588E+02  0.13679284860E+03  0.89474100939E+02 0.  0.
         24    2    1    2    0    0 -0.30942150400E+02  0.10335712685E+03  0.11842903989E+03  0.17848469792E+03  0.78684417518E+02 0.  0.
        -11    1    4    4    0    0 -0.43944403984E+02  0.25382969115E+02  0.26532451228E+02  0.57265842618E+02  0.00000000000E+00 0.  1.
         12    1    4    4    0    0  0.13002253584E+02  0.77974157737E+02  0.91896588663E+02  0.12121885530E+03  0.00000000000E+00 0. -1.
        -11    1    3    3    0    0 -0.23748650274E+02 -0.59115426942E+02 -0.29146356631E+02  0.70058134412E+02  0.00000000000E+00 0.  1.
         11    1    3    3    0    0  0.29556140328E+02 -0.43503130228E+02  0.41078392219E+02  0.66734714190E+02  0.00000000000E+00 0. -1.
         21    1    1    2  502  501  0.25134660346E+02 -0.73856968158E+00  0.48448264282E+01  0.25607986625E+02  0.00000000000E+00 0. -1.
<scales pt_clust_5="13000.00000" pt_clust_6="13000.00000" pt_clust_7="13000.00000" pt_clust_8="13000.00000" pt_clust_9="25.14551"></scales>
<clustering>
<clus scale="   25.146">  2  9  1 -1</clus>
<clus scale="   78.684">  5  6 -1 -1</clus>
<clus scale="   89.474">  7  8 -1 -1</clus>
<clus scale="  131.694">  1  5  2 -1</clus>
<clus scale="  131.694">  1  5  2 -1</clus>
</clustering>
</event>
<event>
 9    2  0.5946630E-005  0.8930712E+02  0.7546771E-02  0.1305312E+00
          2   -1    0    0  502    0  0.00000000000E+00  0.00000000000E+00  0.49000859185E+03  0.49000859185E+03  0.00000000000E+00 0. -1.
         -1   -1    0    0    0  501 -0.00000000000E+00 -0.00000000000E+00 -0.17882419213E+03  0.17882419213E+03  0.00000000000E+00 0.  1.
         23    2    1    2    0    0 -0.43423095396E+02 -0.92921612887E+01 -0.14292250255E+03  0.17319048578E+03  0.87156142384E+02 0.  0.
         24    2    1    2    0    0  0.94823336561E+01 -0.17188953885E+02  0.44232435294E+03  0.45100987458E+03  0.85870245028E+02 0.  0.
        -13    1    4    4    0    0  0.13503740031E+02  0.31976815020E+02  0.11953312733E+03  0.12447102564E+03  0.00000000000E+00 0.  1.
         14    1    4    4    0    0 -0.40214063748E+01 -0.49165768905E+02  0.32279122561E+03  0.32653884895E+03  0.00000000000E+00 0. -1.
        -13    1    3    3    0    0 -0.31442412503E+02 -0.27636233646E+02 -0.16682373939E+02  0.45063159170E+02  0.00000000000E+00 0. -1.
         13    1    3    3    0    0 -0.11980682892E+02  0.18344072357E+02 -0.12624012861E+03  0.12812732661E+03  0.00000000000E+00 0.  1.
         21    1    1    2  502  501  0.33940761740E+02  0.26481115174E+02  0.11782549331E+02  0.44632423607E+02  0.00000000000E+00 0. -1.
<scales pt_clust_5="13000.00000" pt_clust_6="13000.00000" pt_clust_7="13000.00000" pt_clust_8="13000.00000" pt_clust_9="43.04910"></scales>
<clustering>
<clus scale="   43.049">  2  9  1 -1</clus>
<clus scale="   85.870">  5  6 -1 -1</clus>
<clus scale="   87.156">  7  8 -1 -1</clus>
<clus scale="   88.053">  1  5  2 -1</clus>
<clus scale="   88.053">  1  5  2 -1</clus>
</clustering>
</event>
<event>
 9    2  0.5608219E-005  0.1942235E+03  0.7546771E-02  0.1187242E+00
         -1   -1    0    0    0  501 -0.00000000000E+00  0.00000000000E+00  0.40529931299E+02  0.40529931299E+02  0.00000000000E+00 0.  1.
          2   -1    0    0  502    0  0.00000000000E+00 -0.00000000000E+00 -0.15379130199E+04  0.15379130199E+04  0.00000000000E+00 0. -1.
         23    2    1    2    0    0 -0.17494015224E+02  0.97411833779E+01 -0.12017005315E+03  0.15157512909E+03  0.90184515648E+02 0.  0.
         24    2    1    2    0    0  0.16779794563E+03 -0.51176057477E+02 -0.97374165613E+03  0.99432039786E+03  0.98615928273E+02 0.  0.
        -11    1    4    4    0    0  0.71058798408E+02 -0.57407752196E+02 -0.29878774782E+03  0.31244058810E+03  0.00000000000E+00 0.  1.
         12    1    4    4    0    0  0.96739147219E+02  0.62316947188E+01 -0.67495390831E+03  0.68187980976E+03  0.00000000000E+00 0. -1.
        -13    1    3    3    0    0 -0.14202365335E+02  0.45954832318E+02 -0.36613861703E+02  0.60449389272E+02  0.00000000000E+00 0.  1.
         13    1    3    3    0    0 -0.32916498885E+01 -0.36213648941E+02 -0.83556191445E+02  0.91125739818E+02  0.00000000000E+00 0. -1.
         21    1    1    2  502  501 -0.15030393040E+03  0.41434874099E+02 -0.40347137929E+03  0.43254742421E+03  0.00000000000E+00 0.  1.
<scales pt_clust_5="13000.00000" pt_clust_6="13000.00000" pt_clust_7="13000.00000" pt_clust_8="13000.00000" pt_clust_9="167.32506"></scales>
<clustering>
<clus scale="   90.185">  7  8 -1 -1</clus>
<clus scale="   92.381">  1  7  2 -1</clus>
<clus scale="   98.616">  5  6 -1 -1</clus>
<clus scale="  167.325">  1  9  2 -1</clus>
<clus scale="  194.224">  2  5  1 -1</clus>
</clustering>
</event>
<event>
 9    2  0.5608219E-005  0.1175197E+03  0.7546771E-02  0.1250944E+00
          2   -1    0    0  502    0  0.00000000000E+00  0.00000000000E+00  0.96663266242E+03  0.96663266242E+03  0.00000000000E+00 0. -1.
         -1   -1    0    0    0  501 -0.00000000000E+00 -0.00000000000E+00 -0.19330125077E+02  0.19330125077E+02  0.00000000000E+00 0.  1.
         23    2    1    2    0    0 -0.71855587316E+02 -0.41424368833E+01  0.30250065161E+03  0.32399923260E+03  0.91041052745E+02 0.  0.
         24    2    1    2    0    0  0.77064550979E+02 -0.29870109437E+02  0.51497006685E+03  0.52764941640E+03  0.79928520640E+02 0.  0.
        -11    1    4    4    0    0  0.33831524175E+02 -0.12713061625E+02  0.58140863995E+02  0.68458410951E+02  0.00000000000E+00 0.  1.
         12    1    4    4    0    0  0.43233026804E+02 -0.17157047812E+02  0.45682920286E+03  0.45919100544E+03  0.00000000000E+00 0. -1.
        -11    1    3    3    0    0 -0.27719441361E+02  0.29074172495E+02  0.22655772683E+03  0.23009145686E+03  0.00000000000E+00 0. -1.
         11    1    3    3    0    0 -0.44136145955E+02 -0.33216609378E+02  0.75942924783E+02  0.93907775732E+02  0.00000000000E+00 0.  1.
         21    1    1    2  502  501 -0.52089636624E+01  0.34012546320E+02  0.12983181887E+03  0.13431413850E+03  0.00000000000E+00 0. -1.
<scales pt_clust_5="13000.00000" pt_clust_6="13000.00000" pt_clust_7="13000.00000" pt_clust_8="13000.00000" pt_clust_9="34.40911"></scales>
<clustering>
<clus scale="   34.409">  1  9  2 -1</clus>
<clus scale="   79.929">  5  6 -1 -1</clus>
<clus scale="   91.041">  7  8 -1 -1</clus>
<clus scale="  109.137">  1  5  2 -1</clus>
<clus scale="   34.409">  1  5  2 -1</clus>
</clustering>
</event>
<event>
 9    2  0.5608219E-005  0.3553054E+03  0.7546771E-02  0.1084982E+00
          2   -1    0    0  502    0  0.00000000000E+00  0.00000000000E+00  0.70070165207E+03  0.70070165207E+03  0.00000000000E+00 0. -1.
         -1   -1    0    0    0  501 -0.00000000000E+00 -0.00000000000E+00 -0.40354077775E+03  0.40354077775E+03  0.00000000000E+00 0.  1.
         24    2    1    2    0    0  0.27529802080E+03 -0.16855370892E+03  0.32448837197E+03  0.46291556734E+03  0.69273125371E+02 0.  0.
         23    2    1    2    0    0  0.85991465278E+02  0.13151302767E+03  0.15134111796E+03  0.23657437143E+03  0.91504593795E+02 0.  0.
        -13    1    3    3    0    0  0.51983696011E+02 -0.66419508638E+02  0.75327411448E+02  0.11308436980E+03  0.00000000000E+00 0.  1.
         14    1    3    3    0    0  0.22331432479E+03 -0.10213420028E+03  0.24916096052E+03  0.34983119753E+03  0.00000000000E+00 0. -1.
        -11    1    4    4    0    0  0.15946695244E+00  0.66643571205E+02  0.26369368634E+02  0.71671016561E+02  0.00000000000E+00 0.  1.
         11    1    4    4    0    0  0.85831998325E+02  0.64869456466E+02  0.12497174932E+03  0.16490335487E+03  0.00000000000E+00 0. -1.
         21    1    1    2  502  501 -0.36128948608E+03  0.37040681244E+02 -0.17866861560E+03  0.40475249106E+03  0.00000000000E+00 0.  1.
<scales pt_clust_5="13000.00000" pt_clust_6="13000.00000" pt_clust_7="13000.00000" pt_clust_8="13000.00000" pt_clust_9="348.48700"></scales>
<clustering>
<clus scale="   69.273">  5  6 -1 -1</clus>
<clus scale="   91.505">  7  8 -1 -1</clus>
<clus scale="  181.833">  1  7  2 -1</clus>
<clus scale="  348.487">  2  9  1 -1</clus>
<clus scale="  181.833">  1  5  2 -1</clus>
</clustering>
</event>
<event>
 9    2  0.5608219E-005  0.4150309E+03  0.7546771E-02  0.1038881E+00
         -1   -1    0    0    0  501 -0.00000000000E+00  0.00000000000E+00  0.30611034272E+03  0.30611034272E+03  0.00000000000E+00 0.  1.
          2   -1    0    0  502    0  0.00000000000E+00 -0.00000000000E+00 -0.99167585224E+03  0.99167585224E+03  0.00000000000E+00 0. -1.
         23    2    1    2    0    0 -0.36253836424E+03  0.23826117386E+03  0.64575667738E+01  0.44338314642E+03  0.91348025968E+02 0.  0.
         24    2    1    2    0    0  0.33722174935E+03 -0.21119162561E+03 -0.70632085374E+03  0.81467751680E+03  0.80559896922E+02 0.  0.
        -11    1    4    4    0    0  0.15957763046E+03 -0.56057277354E+02 -0.26731822395E+03  0.31633284898E+03  0.00000000000E+00 0.  1.
         12    1    4    4    0    0  0.17764411889E+03 -0.15513434825E+03 -0.43900262979E+03  0.49834466783E+03  0.00000000000E+00 0. -1.
        -13    1    3    3    0    0 -0.28614942743E+03  0.18677112120E+03  0.42744300626E+02  0.34437192360E+03  0.00000000000E+00 0.  1.
         13    1    3    3    0    0 -0.76388936816E+02  0.51490052659E+02 -0.36286733852E+02  0.99011222820E+02  0.00000000000E+00 0. -1.
         21    1    1    2  502  501  0.25316614888E+02 -0.27069548252E+02  0.14297777444E+02  0.39725531737E+02  0.00000000000E+00 0. -1.
<scales pt_clust_5="13000.00000" pt_clust_6="13000.00000" pt_clust_7="13000.00000" pt_clust_8="13000.00000" pt_clust_9="37.06334"></scales>
<clustering>
<clus scale="   37.063">  1  9  2 -1</clus>
<clus scale="   80.560">  5  6 -1 -1</clus>
<clus scale="   91.348">  7  8 -1 -1</clus>
<clus scale="  412.791">  2  5  1 -1</clus>
<clus scale="  412.791">  2  5  1 -1</clus>
</clustering>
</event>
<event>
 9    2  0.5608219E-005  0.3558230E+03  0.7546771E-02  0.1060525E+00
          2   -1    0    0  502    0  0.00000000000E+00  0.00000000000E+00  0.13928116837E+04  0.13928116837E+04  0.00000000000E+00 0. -1.
         -1   -1    0    0    0  501 -0.00000000000E+00 -0.00000000000E+00 -0.15892254207E+03  0.15892254207E+03  0.00000000000E+00 0.  1.
         23    2    1    2    0    0 -0.50862769863E+02  0.23434271040E+03  0.11990044812E+03  0.28328373617E+03  0.91487870456E+02 0.  0.
         24    2    1    2    0    0  0.17367335802E+03 -0.36430291739E+03  0.89988657032E+03  0.98950279716E+03  0.80255188243E+02 0.  0.
        -13    1    4    4    0    0  0.32096292112E+02 -0.16805698072E+02  0.76246584541E+02  0.84416497850E+02  0.00000000000E+00 0.  1.
         14    1    4    4    0    0  0.14157706591E+03 -0.34749721932E+03  0.82363998578E+03  0.90508629931E+03  0.00000000000E+00 0. -1.
        -11    1    3    3    0    0 -0.27987726497E+02  0.23158815258E+03  0.10477930611E+03  0.25572463362E+03  0.00000000000E+00 0.  1.
         11    1    3    3    0    0 -0.22875043367E+02  0.27545578246E+01  0.15121142001E+02  0.27559102548E+02  0.00000000000E+00 0. -1.
         21    1    1    2  502  501 -0.12281058816E+03  0.12996020699E+03  0.21410212318E+03  0.27894769244E+03  0.00000000000E+00 0.  1.
<scales pt_clust_5="13000.00000" pt_clust_6="13000.00000" pt_clust_7="13000.00000" pt_clust_8="13000.00000" pt_clust_9="178.80743"></scales>
<clustering>
<clus scale="   80.255">  5  6 -1 -1</clus>
<clus scale="   91.488">  7  8 -1 -1</clus>
<clus scale="  178.807">  2  9  1 -1</clus>
<clus scale="  353.102">  1  5  2 -1</clus>
<clus scale="  353.102">  1  5  2 -1</clus>
</clustering>
</event>
<event>
 9    2  0.5608219E-005  0.1136671E+03  0.7546771E-02  0.1258691E+00
         -1   -1    0    0    0  501 -0.00000000000E+00  0.00000000000E+00  0.15373508402E+03  0.15373508402E+03  0.00000000000E+00 0.  1.
          2   -1    0    0  502    0  0.00000000000E+00 -0.00000000000E+00 -0.38713589475E+03  0.38713589475E+03  0.00000000000E+00 0. -1.
         24    2    1    2    0    0 -0.38659095284E+02  0.76173747138E+02  0.72795168061E+02  0.13791281644E+03  0.80148880489E+02 0.  0.
         23    2    1    2    0    0  0.31603016595E+02 -0.55297209460E+02 -0.34245901475E+03  0.36052438040E+03  0.92968381964E+02 0.  0.
        -11    1    3    3    0    0 -0.19549720543E+02  0.60841024230E+02  0.88240473165E+02  0.10895046079E+03  0.00000000000E+00 0.  1.
         12    1    3    3    0    0 -0.19109374741E+02  0.15332722908E+02 -0.15445305104E+02  0.28962355645E+02  0.00000000000E+00 0. -1.
        -11    1    4    4    0    0  0.22969126647E+02  0.23758805634E+02 -0.93096254635E+02  0.98787520725E+02  0.00000000000E+00 0.  1.
         11    1    4    4    0    0  0.86338899477E+01 -0.79056015094E+02 -0.24936276012E+03  0.26173685967E+03  0.00000000000E+00 0. -1.
         21    1    1    2  502  501  0.70560786894E+01 -0.20876537678E+02  0.36263035963E+02  0.42433781933E+02  0.00000000000E+00 0. -1.
<scales pt_clust_5="13000.00000" pt_clust_6="13000.00000" pt_clust_7="13000.00000" pt_clust_8="13000.00000" pt_clust_9="22.03674"></scales>
<clustering>
<clus scale="   22.037">  1  9  2 -1</clus>
<clus scale="   80.149">  5  6 -1 -1</clus>
<clus scale="   92.968">  7  8 -1 -1</clus>
<clus scale="  103.445">  1  5  2 -1</clus>
<clus scale="  113.667">  2  5  1 -1</clus>
</clustering>
</event>
<event>
 9    2  0.5608219E-005  0.1005978E+03  0.7546771E-02  0.1284836E+00
          2   -1    0    0  502    0  0.00000000000E+00  0.00000000000E+00  0.26768479190E+03  0.26768479190E+03  0.00000000000E+00 0. -1.
         -1   -1    0    0    0  501 -0.00000000000E+00 -0.00000000000E+00 -0.88585981773E+02  0.88585981773E+02  0.00000000000E+00 0.  1.
         23    2    1    2    0    0  0.42993080587E+02 -0.19367277485E+02 -0.31990052778E+02  0.10892379921E+03  0.92830674574E+02 0.  0.
         24    2    1    2    0    0 -0.39644631368E+01 -0.32667320954E+01  0.15703576706E+03  0.17693910175E+03  0.81368452640E+02 0.  0.
        -13    1    4    4    0    0 -0.18355031411E+02 -0.38910901474E+02  0.79318798840E+02  0.90235454679E+02  0.00000000000E+00 0.  1.
         14    1    4    4    0    0  0.14390568274E+02  0.35644169379E+02  0.77716968220E+02  0.86703647070E+02  0.00000000000E+00 0. -1.
        -13    1    3    3    0    0  0.18885974656E+01 -0.50002171316E+02 -0.32282396609E+01  0.50141853456E+02  0.00000000000E+00 0.  1.
         13    1    3    3    0    0  0.41104483121E+02  0.30634893831E+02 -0.28761813117E+02  0.58781945753E+02  0.00000000000E+00 0. -1.
         21    1    1    2  502  501 -0.39028617450E+02  0.22634009580E+02  0.54053095841E+02  0.70407872711E+02  0.00000000000E+00 0. -1.
<scales pt_clust_5="13000.00000" pt_clust_6="13000.00000" pt_clust_7="13000.00000" pt_clust_8="13000.00000" pt_clust_9="45.11686"></scales>
<clustering>
<clus scale="   45.117">  1  9  2 -1</clus>
<clus scale="   81.368">  5  6 -1 -1</clus>
<clus scale="   90.129">  1  5  2 -1</clus>
<clus scale="   92.831">  7  8 -1 -1</clus>
<clus scale="   45.117">  1  5  2 -1</clus>
</clustering>
</event>
<event>
 9    2  0.5608219E-005  0.1080327E+03  0.7546771E-02  0.1269230E+00
         -1   -1    0    0    0  501 -0.00000000000E+00  0.00000000000E+00  0.55010342484E+02  0.55010342484E+02  0.00000000000E+00 0.  1.
          2   -1    0    0  502    0  0.00000000000E+00 -0.00000000000E+00 -0.66806464417E+03  0.66806464417E+03  0.00000000000E+00 0. -1.
         23    2    1    2    0    0  0.47483779188E+02 -0.50470669165E+02 -0.30621186387E+02  0.11853970028E+03  0.91170202120E+02 0.  0.
         24    2    1    2    0    0 -0.30756017880E+02 -0.21825354044E+02 -0.32681136277E+03  0.33836050670E+03  0.79119447309E+02 0.  0.
        -13    1    4    4    0    0  0.25533311930E+02 -0.13775764374E+02 -0.80428531378E+02  0.85501288656E+02  0.00000000000E+00 0.  1.
         14    1    4    4    0    0 -0.56289329810E+02 -0.80495896701E+01 -0.24638283139E+03  0.25285921804E+03  0.00000000000E+00 0. -1.
        -11    1    3    3    0    0  0.34668823130E+02 -0.77050287591E+02 -0.27568456995E+02  0.88874596686E+02  0.00000000000E+00 0.  1.
         11    1    3    3    0    0  0.12814956058E+02  0.26579618426E+02 -0.30527293919E+01  0.29665103593E+02  0.00000000000E+00 0. -1.
         21    1    1    2  502  501 -0.16727761308E+02  0.72296023210E+02 -0.25562175253E+03  0.26617477968E+03  0.00000000000E+00 0. -1.
<scales pt_clust_5="13000.00000" pt_clust_6="13000.00000" pt_clust_7="13000.00000" pt_clust_8="13000.00000" pt_clust_9="74.20602"></scales>
<clustering>
<clus scale="   74.206">  2  9  1 -1</clus>
<clus scale="   79.119">  5  6 -1 -1</clus>
<clus scale="   91.170">  7  8 -1 -1</clus>
<clus scale="   98.076">  2  5  1 -1</clus>
<clus scale="   74.206">  2  5  1 -1</clus>
</clustering>
</event>
<event>
 9    2  0.5608219E-005  0.9337247E+02  0.7546771E-02  0.1298096E+00
         -1   -1    0    0    0  501 -0.00000000000E+00  0.00000000000E+00  0.17443555508E+03  0.17443555508E+03  0.00000000000E+00 0.  1.
          2   -1    0    0  502    0  0.00000000000E+00 -0.00000000000E+00 -0.17100464106E+03  0.17100464106E+03  0.00000000000E+00 0. -1.
         23    2    1    2    0    0 -0.49892189734E+02  0.30744868913E+02  0.96170681866E+02  0.14200449567E+03  0.86498550152E+02 0.  0.
         24    2    1    2    0    0  0.11735895418E+02 -0.31560763911E+02 -0.12564205019E+03  0.15304593302E+03  0.80643163246E+02 0.  0.
        -11    1    4    4    0    0  0.46439433000E+02 -0.14644895201E+02 -0.73514457953E+02  0.88178622245E+02  0.00000000000E+00 0.  1.
         12    1    4    4    0    0 -0.34703537582E+02 -0.16915868711E+02 -0.52127592241E+02  0.64867310780E+02  0.00000000000E+00 0. -1.
        -11    1    3    3    0    0 -0.19036372744E+02  0.58037802456E+02  0.42791308413E+02  0.74577919499E+02  0.00000000000E+00 0.  1.
         11    1    3    3    0    0 -0.30855816990E+02 -0.27292933543E+02  0.53379373453E+02  0.67426576168E+02  0.00000000000E+00 0. -1.
         21    1    1    2  502  501  0.38156294316E+02  0.81589499863E+00  0.32902282349E+02  0.50389767457E+02  0.00000000000E+00 0.  1.
<scales pt_clust_5="13000.00000" pt_clust_6="13000.00000" pt_clust_7="13000.00000" pt_clust_8="13000.00000" pt_clust_9="38.16502"></scales>
<clustering>
<clus scale="   38.165">  1  9  2 -1</clus>
<clus scale="   80.643">  5  6 -1 -1</clus>
<clus scale="   86.499">  7  8 -1 -1</clus>
<clus scale="   87.976">  2  5  1 -1</clus>
<clus scale="   87.976">  2  5  1 -1</clus>
</clustering>
</event>
<event>
 9    2  0.5608219E-005  0.9048095E+02  0.7546771E-02  0.1307824E+00
          2   -1    0    0  502    0  0.00000000000E+00  0.00000000000E+00  0.75797506943E+02  0.75797506943E+02  0.00000000000E+00 0. -1.
         -1   -1    0    0    0  501 -0.00000000000E+00 -0.00000000000E+00 -0.38854421099E+03  0.38854421099E+03  0.00000000000E+00 0.  1.
         23    2    1    2    0    0  0.37971937605E+02 -0.19828667318E+02 -0.21099072529E+03  0.23350826362E+03  0.90410059870E+02 0.  0.
         24    2    1    2    0    0  0.87079289141E+01 -0.31361865371E+01  0.31940140086E+02  0.87372495709E+02  0.80796762099E+02 0.  0.
        -13    1    4    4    0    0  0.58643849437E+01  0.34201320128E+02 -0.46586337063E+01  0.35011771981E+02  0.00000000000E+00 0.  1.
         14    1    4    4    0    0  0.28435439704E+01 -0.37337506665E+02  0.36598773792E+02  0.52360723728E+02  0.00000000000E+00 0. -1.
        -11    1    3    3    0    0  0.17871936888E+02  0.30684672966E+02 -0.37264812514E+02  0.51474474595E+02  0.00000000000E+00 0.  1.
         11    1    3    3    0    0  0.20100000718E+02 -0.50513340285E+02 -0.17372591278E+03  0.18203378902E+03  0.00000000000E+00 0. -1.
         21    1    1    2  502  501 -0.46679866519E+02  0.22964853856E+02 -0.13369611884E+03  0.14346095861E+03  0.00000000000E+00 0.  1.
<scales pt_clust_5="13000.00000" pt_clust_6="13000.00000" pt_clust_7="13000.00000" pt_clust_8="13000.00000" pt_clust_9="52.02302"></scales>
<clustering>
<clus scale="   52.023">  2  9  1 -1</clus>
<clus scale="   80.797">  5  6 -1 -1</clus>
<clus scale="   80.876">  1  5  2 -1</clus>
<clus scale="   90.410">  7  8 -1 -1</clus>
<clus scale="   80.876">  1  5  2 -1</clus>
</clustering>
</event>
<event>
 9    2  0.5608219E-005  0.1508991E+03  0.7546771E-02  0.1201807E+00
          2   -1    0    0  502    0  0.00000000000E+00  0.00000000000E+00  0.74226575869E+03  0.74226575869E+03  0.00000000000E+00 0. -1.
         -1   -1    0    0    0  501 -0.00000000000E+00 -0.00000000000E+00 -0.25997752496E+03  0.25997752496E+03  0.00000000000E+00 0.  1.
         23    2    1    2    0    0  0.85815157722E+02  0.61849720283E+02 -0.18416560818E+03  0.23078480050E+03  0.90305169906E+02 0.  0.
         24    2    1    2    0    0 -0.84266739835E+02 -0.87497707373E+02  0.70810215014E+03  0.72252180551E+03  0.76631404568E+02 0.  0.
        -13    1    4    4    0    0 -0.30334978252E+00 -0.45107715007E+02  0.15313720578E+03  0.15964273165E+03  0.00000000000E+00 0.  1.
         14    1    4    4    0    0 -0.83963390053E+02 -0.42389992366E+02  0.55496494436E+03  0.56287907386E+03  0.00000000000E+00 0. -1.
        -13    1    3    3    0    0  0.78960189355E+02  0.24980378050E+02 -0.17276439655E+03  0.19158879797E+03  0.00000000000E+00 0.  1.
         13    1    3    3    0    0  0.68549683673E+01  0.36869342234E+02 -0.11401211628E+02  0.39196002534E+02  0.00000000000E+00 0. -1.
         21    1    1    2  502  501 -0.15484178870E+01  0.25647987090E+02 -0.41648308238E+02  0.48936677643E+02  0.00000000000E+00 0.  1.
<scales pt_clust_5="13000.00000" pt_clust_6="13000.00000" pt_clust_7="13000.00000" pt_clust_8="13000.00000" pt_clust_9="25.69469"></scales>
<clustering>
<clus scale="   25.695">  2  9  1 -1</clus>
<clus scale="   76.631">  5  6 -1 -1</clus>
<clus scale="   90.305">  7  8 -1 -1</clus>
<clus scale="  143.136">  1  5  2 -1</clus>
<clus scale="  143.136">  1  5  2 -1</clus>
</clustering>
</event>
<event>
 9    2  0.5608219E-005  0.1967714E+03  0.7546771E-02  0.1185486E+00
          2   -1    0    0  502    0  0.00000000000E+00  0.00000000000E+00  0.12300688515E+04  0.12300688515E+04  0.00000000000E+00 0. -1.
         -1   -1    0    0    0  501 -0.00000000000E+00 -0.00000000000E+00 -0.16178463462E+03  0.16178463462E+03  0.00000000000E+00 0.  1.
         23    2    1    2    0    0  0.10680513785E+01 -0.20776858236E+02 -0.11431464153E+03  0.14697268747E+03  0.90001750111E+02 0.  0.
         24    2    1    2    0    0  0.91801533372E+02 -0.14612515900E+03  0.71334724363E+03  0.73824668897E+03  0.79773430153E+02 0.  0.
        -11    1    4    4    0    0  0.39685334058E+02 -0.12361767615E+03  0.42598472597E+03  0.44533048667E+03  0.00000000000E+00 0.  1.
         12    1    4    4    0    0  0.52116199314E+02 -0.22507482848E+02  0.28736251765E+03  0.29291620229E+03  0.00000000000E+00 0. -1.
        -13    1    3    3    0    0 -0.34173350620E+02 -0.33224015863E+02 -0.34491673752E+02  0.58833057722E+02  0.00000000000E+00 0. -1.
         13    1    3    3    0    0  0.35241401999E+02  0.12447157627E+02 -0.79822967776E+02  0.88139629750E+02  0.00000000000E+00 0.  1.
         21    1    1    2  502  501 -0.92869584751E+02  0.16690201723E+03  0.46925161482E+03  0.50663410972E+03  0.00000000000E+00 0. -1.
<scales pt_clust_5="13000.00000" pt_clust_6="13000.00000" pt_clust_7="13000.00000" pt_clust_8="13000.00000" pt_clust_9="179.87544"></scales>
<clustering>
<clus scale="   79.773">  5  6 -1 -1</clus>
<clus scale="   90.002">  7  8 -1 -1</clus>
<clus scale="   92.375">  2  7  1 -1</clus>
<clus scale="  179.875">  2  9  1 -1</clus>
<clus scale="  196.771">  1  5  2 -1</clus>
</clustering>
</event>
<event>
 9    2  0.5608219E-005  0.9835725E+02  0.7546771E-02  0.1289110E+00
          2   -1    0    0  502    0  0.00000000000E+00  0.00000000000E+00  0.69556993325E+02  0.69556993325E+02  0.00000000000E+00 0. -1.
         -1   -1    0    0    0  501 -0.00000000000E+00 -0.00000000000E+00 -0.29613916873E+03  0.29613916873E+03  0.00000000000E+00 0.  1.
         23    2    1    2    0    0 -0.57317920595E+02 -0.10345190221E+01 -0.17396324230E+03  0.20437584417E+03  0.90663453251E+02 0.  0.
         24    2    1    2    0    0  0.34438551633E+02  0.29114102742E+00  0.16066309366E+02  0.88920865763E+02  0.80390891709E+02 0.  0.
        -11    1    4    4    0    0  0.29864249010E+02 -0.10837453056E+02 -0.28548370481E+02  0.42712213883E+02  0.00000000000E+00 0.  1.
         12    1    4    4    0    0  0.45743026224E+01  0.11128594083E+02  0.44614679847E+02  0.46208651880E+02  0.00000000000E+00 0. -1.
        -11    1    3    3    0    0 -0.82006966984E+02 -0.96981147616E+00 -0.12436238508E+03  0.14897008422E+03  0.00000000000E+00 0.  1.
         11    1    3    3    0    0  0.24689046388E+02 -0.64707545986E-01 -0.49600857223E+02  0.55405759952E+02  0.00000000000E+00 0. -1.
         21    1    1    2  502  501  0.22879368963E+02  0.74337799473E+00 -0.68685242468E+02  0.72399452124E+02  0.00000000000E+00 0.  1.
<scales pt_clust_5="13000.00000" pt_clust_6="13000.00000" pt_clust_7="13000.00000" pt_clust_8="13000.00000" pt_clust_9="22.89144"></scales>
<clustering>
<clus scale="   22.891">  2  9  1 -1</clus>
<clus scale="   80.391">  5  6 -1 -1</clus>
<clus scale="   88.977">  1  5  2 -1</clus>
<clus scale="   90.663">  7  8 -1 -1</clus>
<clus scale="   88.977">  1  5  2 -1</clus>
</clustering>
</event>
<event>
 9    2  0.5608219E-005  0.1325139E+03  0.7546771E-02  0.1226074E+00
          2   -1    0    0  502    0  0.00000000000E+00  0.00000000000E+00  0.64010469891E+03  0.64010469891E+03  0.00000000000E+00 0. -1.
         -1   -1    0    0    0  501 -0.00000000000E+00 -0.00000000000E+00 -0.51142795713E+02  0.51142795713E+02  0.00000000000E+00 0.  1.
         23    2    1    2    0    0  0.10796172934E+03 -0.50185560598E+02  0.14216972445E+03  0.20593008742E+03  0.89558053005E+02 0.  0.
         24    2    1    2    0    0 -0.93161478407E+02  0.50557055682E+01  0.40066677081E+03  0.41911087807E+03  0.80096477235E+02 0.  0.
        -13    1    4    4    0    0 -0.48071099917E+02  0.38502193401E+02  0.26925724336E+03  0.27621135503E+03  0.00000000000E+00 0.  1.
         14    1    4    4    0    0 -0.45090378490E+02 -0.33446487832E+02  0.13140952746E+03  0.14289952305E+03  0.00000000000E+00 0. -1.
        -13    1    3    3    0    0  0.17706236589E+01  0.20588812580E+02  0.27234791006E+02  0.34187251319E+02  0.00000000000E+00 0. -1.
         13    1    3    3    0    0  0.10619110569E+03 -0.70774373178E+02  0.11493493345E+03  0.17174283610E+03  0.00000000000E+00 0.  1.
         21    1    1    2  502  501 -0.14800250937E+02  0.45129855030E+02  0.46125407926E+02  0.66206529127E+02  0.00000000000E+00 0. -1.
<scales pt_clust_5="13000.00000" pt_clust_6="13000.00000" pt_clust_7="13000.00000" pt_clust_8="13000.00000" pt_clust_9="47.49475"></scales>
<clustering>
<clus scale="   47.495">  2  9  1 -1</clus>
<clus scale="   80.096">  5  6 -1 -1</clus>
<clus scale="   89.558">  7  8 -1 -1</clus>
<clus scale="  126.312">  1  5  2 -1</clus>
<clus scale="  126.312">  1  5  2 -1</clus>
</clustering>
</event>
<event>
 9    2  0.5608219E-005  0.1231650E+03  0.7546771E-02  0.1241527E+00
          2   -1    0    0  502    0  0.00000000000E+00  0.00000000000E+00  0.63087320195E+03  0.63087320195E+03  0.00000000000E+00 0. -1.
         -1   -1    0    0    0  501 -0.00000000000E+00 -0.00000000000E+00 -0.53441181295E+02  0.53441181295E+02  0.00000000000E+00 0.  1.
         24    2    1    2    0    0 -0.16083088199E+02  0.57458042136E+02  0.17817180545E+02  0.10045332481E+03  0.78824654846E+02 0.  0.
         23    2    1    2    0    0  0.25319436177E+02 -0.83653881494E+02  0.52253858383E+03  0.53753416664E+03  0.90870033400E+02 0.  0.
        -11    1    3    3    0    0 -0.78243621384E+01  0.62999780893E+02 -0.15779450800E+02  0.65415472964E+02  0.00000000000E+00 0.  1.
         12    1    3    3    0    0 -0.82587260605E+01 -0.55417387572E+01  0.33596631345E+02  0.35037851851E+02  0.00000000000E+00 0. -1.
        -11    1    4    4    0    0 -0.11679852350E+02 -0.78406222835E+02  0.43783765022E+03  0.44495591094E+03  0.00000000000E+00 0. -1.
         11    1    4    4    0    0  0.36999288527E+02 -0.52476586588E+01  0.84700933615E+02  0.92578255698E+02  0.00000000000E+00 0.  1.
         21    1    1    2  502  501 -0.92363479782E+01  0.26195839358E+02  0.37076256273E+02  0.46326891789E+02  0.00000000000E+00 0.  1.
<scales pt_clust_5="13000.00000" pt_clust_6="13000.00000" pt_clust_7="13000.00000" pt_clust_8="13000.00000" pt_clust_9="27.77647"></scales>
<clustering>
<clus scale="   27.776">  2  9  1 -1</clus>
<clus scale="   78.825">  5  6 -1 -1</clus>
<clus scale="   90.870">  7  8 -1 -1</clus>
<clus scale="  114.567">  2  5  1 -1</clus>
<clus scale="  123.165">  1  5  2 -1</clus>
</clustering>
</event>
<event>
 9    2  0.5608219E-005  0.1264024E+03  0.7546771E-02  0.1236647E+00
         -1   -1    0    0    0  501 -0.00000000000E+00  0.00000000000E+00  0.16088973221E+03  0.16088973221E+03  0.00000000000E+00 0.  1.
          2   -1    0    0  502    0  0.00000000000E+00 -0.00000000000E+00 -0.17161712982E+03  0.17161712982E+03  0.00000000000E+00 0. -1.
         24    2    1    2    0    0  0.10424713304E+03  0.21351812875E+01  0.73291231720E+02  0.15004734636E+03  0.79186979724E+02 0.  0.
         23    2    1    2    0    0 -0.80867874977E+02  0.96983319027E+01 -0.93414610251E+02  0.15462237861E+03  0.92456042056E+02 0.  0.
        -11    1    3    3    0    0  0.48143963770E+02  0.18729433500E+02  0.75521101580E+02  0.91499014807E+02  0.00000000000E+00 0.  1.
         12    1    3    3    0    0  0.56103169269E+02 -0.16594252213E+02 -0.22298698602E+01  0.58548331557E+02  0.00000000000E+00 0. -1.
        -13    1    4    4    0    0 -0.81806231046E+01 -0.20835836017E+02 -0.68306490509E+02  0.71880674054E+02  0.00000000000E+00 0. -1.
         13    1    4    4    0    0 -0.72687251873E+02  0.30534167919E+02 -0.25108119743E+02  0.82741704553E+02  0.00000000000E+00 0.  1.
         21    1    1    2  502  501 -0.23379258062E+02 -0.11833513190E+02  0.93959809224E+01  0.27837137056E+02  0.00000000000E+00 0.  1.
<scales pt_clust_5="13000.00000" pt_clust_6="13000.00000" pt_clust_7="13000.00000" pt_clust_8="13000.00000" pt_clust_9="26.20347"></scales>
<clustering>
<clus scale="   26.203">  1  9  2 -1</clus>
<clus scale="   79.187">  5  6 -1 -1</clus>
<clus scale="   92.456">  7  8 -1 -1</clus>
<clus scale="  117.047">  1  5  2 -1</clus>
<clus scale="  126.402">  2  5  1 -1</clus>
</clustering>
</event>
<event>
 9    2  0.5608219E-005  0.9802858E+02  0.7546771E-02  0.1291507E+00
         -1   -1    0    0    0  501 -0.00000000000E+00  0.00000000000E+00  0.43004855802E+02  0.43004855802E+02  0.00000000000E+00 0.  1.
          2   -1    0    0  502    0  0.00000000000E+00 -0.00000000000E+00 -0.55213471820E+03  0.55213471820E+03  0.00000000000E+00 0. -1.
         23    2    1    2    0    0  0.28046743156E+01  0.37629424317E+02 -0.13238863495E+03  0.16621895028E+03  0.93156583220E+02 0.  0.
         24    2    1    2    0    0  0.19046939756E+02 -0.24003508675E+02 -0.39041103329E+03  0.39976548341E+03  0.80328777312E+02 0.  0.
        -13    1    4    4    0    0  0.27312343467E+02 -0.49733260952E+02 -0.30319785268E+03  0.30846117944E+03  0.00000000000E+00 0.  1.
         14    1    4    4    0    0 -0.82654037108E+01  0.25729752277E+02 -0.87213180612E+02  0.91304303969E+02  0.00000000000E+00 0. -1.
        -13    1    3    3    0    0  0.20074627660E+02 -0.26389775116E+02 -0.33311484240E+02  0.47000700937E+02  0.00000000000E+00 0.  1.
         13    1    3    3    0    0 -0.17269953345E+02  0.64019199432E+02 -0.99077150708E+02  0.11921824934E+03  0.00000000000E+00 0. -1.
         21    1    1    2  502  501 -0.21851614072E+02 -0.13625915642E+02  0.13669805845E+02  0.29155140309E+02  0.00000000000E+00 0.  1.
<scales pt_clust_5="13000.00000" pt_clust_6="13000.00000" pt_clust_7="13000.00000" pt_clust_8="13000.00000" pt_clust_9="25.75187"></scales>
<clustering>
<clus scale="   25.752">  1  9  2 -1</clus>
<clus scale="   80.329">  5  6 -1 -1</clus>
<clus scale="   85.931">  2  5  1 -1</clus>
<clus scale="   93.157">  7  8 -1 -1</clus>
<clus scale="   85.931">  2  5  1 -1</clus>
</clustering>
</event>
<event>
 9    2  0.5608219E-005  0.2663802E+03  0.7546771E-02  0.1103894E+00
         -1   -1    0    0    0  501 -0.00000000000E+00  0.00000000000E+00  0.95645223228E+02  0.95645223228E+02  0.00000000000E+00 0.  1.
          2   -1    0    0  502    0  0.00000000000E+00 -0.00000000000E+00 -0.15692474993E+04  0.15692474993E+04  0.00000000000E+00 0. -1.
         24    2    1    2    0    0 -0.18058535386E+03  0.14557067484E+03 -0.43836867708E+03  0.50247863710E+03  0.80720457699E+02 0.  0.
         23    2    1    2    0    0  0.20520315516E+03 -0.15954849885E+03 -0.10771366922E+04  0.11118444807E+04  0.91709525680E+02 0.  0.
        -13    1    3    3    0    0 -0.12556187130E+02  0.44527666637E+02 -0.54922876076E+02  0.71811511945E+02  0.00000000000E+00 0.  1.
         14    1    3    3    0    0 -0.16802916673E+03  0.10104300821E+03 -0.38344580100E+03  0.43066712515E+03  0.00000000000E+00 0. -1.
        -11    1    4    4    0    0  0.14038725269E+02 -0.56473854447E+02 -0.20848898334E+03  0.21645793637E+03  0.00000000000E+00 0. -1.
         11    1    4    4    0    0  0.19116442989E+03 -0.10307464440E+03 -0.86864770890E+03  0.89538654433E+03  0.00000000000E+00 0.  1.
         21    1    1    2  502  501 -0.24617801298E+02  0.13977824008E+02  0.41903093220E+02  0.50569604766E+02  0.00000000000E+00 0. -1.
<scales pt_clust_5="13000.00000" pt_clust_6="13000.00000" pt_clust_7="13000.00000" pt_clust_8="13000.00000" pt_clust_9="28.30929"></scales>
<clustering>
<clus scale="   28.309">  1  9  2 -1</clus>
<clus scale="   80.720">  5  6 -1 -1</clus>
<clus scale="   91.710">  7  8 -1 -1</clus>
<clus scale="  262.799">  1  5  2 -1</clus>
<clus scale="  266.380">  2  5  1 -1</clus>
</clustering>
</event>
<event>
 9    2  0.5608219E-005  0.1140619E+03  0.7546771E-02  0.1257959E+00
         -1   -1    0    0    0  501 -0.00000000000E+00  0.00000000000E+00  0.11157385634E+03  0.11157385634E+03  0.00000000000E+00 0.  1.
          2   -1    0    0  502    0  0.00000000000E+00 -0.00000000000E+00 -0.29715435867E+03  0.29715435867E+03  0.00000000000E+00 0. -1.
         23    2    1    2    0    0  0.14226844559E+02 -0.39753013780E+02 -0.13837434947E+02  0.10133177479E+03  0.91071119272E+02 0.  0.
         24    2    1    2    0    0 -0.59117031693E+02  0.51065414398E+02 -0.21650693791E+03  0.24299998525E+03  0.77918153776E+02 0.  0.
        -13    1    4    4    0    0 -0.23678088381E+02  0.12640515599E+01 -0.69479926670E+01  0.24708789890E+02  0.00000000000E+00 0.  1.
         14    1    4    4    0    0 -0.35438943312E+02  0.49801362838E+02 -0.20955894524E+03  0.21829119536E+03  0.00000000000E+00 0. -1.
        -11    1    3    3    0    0 -0.24551532461E+02 -0.23301289025E+01 -0.35520316692E+02  0.43242342036E+02  0.00000000000E+00 0. -1.
         11    1    3    3    0    0  0.38778377020E+02 -0.37422884877E+02  0.21682881745E+02  0.58089432754E+02  0.00000000000E+00 0.  1.
         21    1    1    2  502  501  0.44890187134E+02 -0.11312400618E+02  0.44763870526E+02  0.64396454973E+02  0.00000000000E+00 0.  1.
<scales pt_clust_5="13000.00000" pt_clust_6="13000.00000" pt_clust_7="13000.00000" pt_clust_8="13000.00000" pt_clust_9="46.29362"></scales>
<clustering>
<clus scale="   46.294">  1  9  2 -1</clus>
<clus scale="   77.918">  5  6 -1 -1</clus>
<clus scale="   91.071">  7  8 -1 -1</clus>
<clus scale="  103.862">  2  5  1 -1</clus>
<clus scale="  103.862">  2  5  1 -1</clus>
</clustering>
</event>
<event>
 9    2  0.5608219E-005  0.1560758E+03  0.7546771E-02  0.1215955E+00
         -1   -1    0    0    0  501 -0.00000000000E+00  0.00000000000E+00  0.10439448204E+03  0.10439448204E+03  0.00000000000E+00 0.  1.
          2   -1    0    0  502    0  0.00000000000E+00 -0.00000000000E+00 -0.76235343073E+03  0.76235343073E+03  0.00000000000E+00 0. -1.
         24    2    1    2    0    0  0.16884355848E+02 -0.13291898414E+02  0.46299417523E+02  0.10619827643E+03  0.93127234569E+02 0.  0.
         23    2    1    2    0    0 -0.97605597148E+02 -0.82592734171E+02 -0.45685860890E+03  0.48321153677E+03  0.91788825035E+02 0.  0.
        -13    1    3    3    0    0  0.26034753509E+02 -0.24173560130E+02  0.70034758807E+02  0.78530483514E+02  0.00000000000E+00 0.  1.
         14    1    3    3    0    0 -0.91503976617E+01  0.10881661716E+02 -0.23735341285E+02  0.27667792919E+02  0.00000000000E+00 0. -1.
        -13    1    4    4    0    0 -0.13481658062E+02 -0.55065270490E+02 -0.94514805963E+02  0.11021337335E+03  0.00000000000E+00 0.  1.
         13    1    4    4    0    0 -0.84123939086E+02 -0.27527463680E+02 -0.36234380294E+03  0.37299816342E+03  0.00000000000E+00 0. -1.
         21    1    1    2  502  501  0.80721241300E+02  0.95884632584E+02 -0.24739975731E+03  0.27733809958E+03  0.00000000000E+00 0. -1.
<scales pt_clust_5="13000.00000" pt_clust_6="13000.00000" pt_clust_7="13000.00000" pt_clust_8="13000.00000" pt_clust_9="126.23179"></scales>
<clustering>
<clus scale="   91.789">  7  8 -1 -1</clus>
<clus scale="   93.127">  5  6 -1 -1</clus>
<clus scale="   95.574">  1  5  2 -1</clus>
<clus scale="  126.232">  1  9  2 -1</clus>
<clus scale="  156.076">  2  5  1 -1</clus>
</clustering>
</event>
<event>
 9    2  0.5608219E-005  0.1034174E+03  0.7546771E-02  0.1275455E+00
         -1   -1    0    0    0  501 -0.00000000000E+00  0.00000000000E+00  0.70009003087E+02  0.70009003087E+02  0.00000000000E+00 0.  1.
          2   -1    0    0  502    0  0.00000000000E+00 -0.00000000000E+00 -0.20350646281E+03  0.20350646281E+03  0.00000000000E+00 0. -1.
         24    2    1    2    0    0 -0.40970676696E+01 -0.39968593911E+02 -0.21175479632E+02  0.96693206884E+02  0.85363346099E+02 0.  0.
         23    2    1    2    0    0 -0.13522729411E+02  0.55747920809E+02 -0.10939454527E+03  0.15298920883E+03  0.90265367655E+02 0.  0.
        -11    1    3    3    0    0  0.23473170250E+02 -0.21749358194E+02  0.24510178914E+02  0.40308475211E+02  0.00000000000E+00 0.  1.
         12    1    3    3    0    0 -0.27570237919E+02 -0.18219235717E+02 -0.45685658546E+02  0.56384731673E+02  0.00000000000E+00 0. -1.
        -11    1    4    4    0    0 -0.37261699980E+02  0.13101098764E+01 -0.76492319836E+02  0.85095391574E+02  0.00000000000E+00 0.  1.
         11    1    4    4    0    0  0.23738970569E+02  0.54437810933E+02 -0.32902225432E+02  0.67893817253E+02  0.00000000000E+00 0. -1.
         21    1    1    2  502  501  0.17619797080E+02 -0.15779326899E+02 -0.29274348229E+01  0.23833050186E+02  0.00000000000E+00 0.  1.
<scales pt_clust_5="13000.00000" pt_clust_6="13000.00000" pt_clust_7="13000.00000" pt_clust_8="13000.00000" pt_clust_9="23.65258"></scales>
<clustering>
<clus scale="   23.653">  1  9  2 -1</clus>
<clus scale="   85.363">  5  6 -1 -1</clus>
<clus scale="   90.265">  7  8 -1 -1</clus>
<clus scale="   99.168">  1  5  2 -1</clus>
<clus scale="  103.417">  2  5  1 -1</clus>
</clustering>
</event>
<event>
 9    2  0.5608219E-005  0.1171896E+03  0.7546771E-02  0.1251773E+00
          4   -1    0    0  502    0  0.00000000000E+00  0.00000000000E+00  0.12075995155E+03  0.12075995155E+03  0.00000000000E+00 0. -1.
         -3   -1    0    0    0  501 -0.00000000000E+00 -0.00000000000E+00 -0.27101631212E+03  0.27101631212E+03  0.00000000000E+00 0.  1.
         23    2    1    2    0    0 -0.31816140511E+02 -0.13070374055E+02 -0.17930230443E+03  0.20369211459E+03  0.90321977938E+02 0.  0.
         24    2    1    2    0    0  0.49020383567E+02  0.67246805764E+02  0.53479830497E+02  0.12621261645E+03  0.78386232157E+02 0.  0.
        -11    1    4    4    0    0  0.25981945377E+02  0.26631636012E+02 -0.17606556476E+02  0.41161831267E+02  0.00000000000E+00 0.  1.
         12    1    4    4    0    0  0.23038438190E+02  0.40615169752E+02  0.71086386973E+02  0.85050785188E+02  0.00000000000E+00 0. -1.
        -13    1    3    3    0    0 -0.22561068307E+02  0.35486768841E+02 -0.50412712384E+02  0.65648717702E+02  0.00000000000E+00 0. -1.
         13    1    3    3    0    0 -0.92550722037E+01 -0.48557142896E+02 -0.12888959205E+03  0.13804339689E+03  0.00000000000E+00 0.  1.
         21    1    1    2  502  501 -0.17204243056E+02 -0.54176431709E+02 -0.24433886640E+02  0.61871532616E+02  0.00000000000E+00 0.  1.
<scales pt_clust_5="13000.00000" pt_clust_6="13000.00000" pt_clust_7="13000.00000" pt_clust_8="13000.00000" pt_clust_9="56.84252"></scales>
<clustering>
<clus scale="   56.843">  2  9  1 -1</clus>
<clus scale="   78.386">  5  6 -1 -1</clus>
<clus scale="   90.322">  7  8 -1 -1</clus>
<clus scale="  108.258">  1  5  2 -1</clus>
<clus scale="  108.258">  1  5  2 -1</clus>
</clustering>
</event>
<event>
 9    2  0.5608219E-005  0.1036202E+03  0.7546771E-02  0.1280327E+00
         -1   -1    0    0    0  501 -0.00000000000E+00  0.00000000000E+00  0.13443248073E+03  0.13443248073E+03  0.00000000000E+00 0.  1.
          2   -1    0    0  502    0  0.00000000000E+00 -0.00000000000E+00 -0.12136715631E+03  0.12136715631E+03  0.00000000000E+00 0. -1.
         23    2    1    2    0    0  0.39577812513E+02 -0.52172149477E+01 -0.15451068578E+02  0.10507980870E+03  0.95965661056E+02 0.  0.
         24    2    1    2    0    0 -0.29282651579E+02  0.31027919117E+02 -0.21107009430E+02  0.93845714207E+02  0.80878345555E+02 0.  0.
        -13    1    4    4    0    0  0.10348940257E+02  0.45360320384E+02 -0.22496338533E+02  0.51679246097E+02  0.00000000000E+00 0.  1.
         14    1    4    4    0    0 -0.39631591836E+02 -0.14332401267E+02  0.13893291030E+01  0.42166468110E+02  0.00000000000E+00 0. -1.
        -11    1    3    3    0    0  0.22257743122E+02  0.15783568679E+02  0.37007337304E+02  0.45979029823E+02  0.00000000000E+00 0. -1.
         11    1    3    3    0    0  0.17320069391E+02 -0.21000783627E+02 -0.52458405882E+02  0.59100778881E+02  0.00000000000E+00 0.  1.
         21    1    1    2  502  501 -0.10295160935E+02 -0.25810704169E+02  0.49623402435E+02  0.56874114126E+02  0.00000000000E+00 0.  1.
<scales pt_clust_5="13000.00000" pt_clust_6="13000.00000" pt_clust_7="13000.00000" pt_clust_8="13000.00000" pt_clust_9="27.78818"></scales>
<clustering>
<clus scale="   27.788">  1  9  2 -1</clus>
<clus scale="   80.878">  5  6 -1 -1</clus>
<clus scale="   89.828">  2  5  1 -1</clus>
<clus scale="   95.966">  7  8 -1 -1</clus>
<clus scale="   89.828">  2  5  1 -1</clus>
</clustering>
</event>
<event>
 9    2  0.5608219E-005  0.1421691E+03  0.7546771E-02  0.1212751E+00
          2   -1    0    0  502    0  0.00000000000E+00  0.00000000000E+00  0.70615568354E+03  0.70615568354E+03  0.00000000000E+00 0. -1.
         -1   -1    0    0    0  501 -0.00000000000E+00 -0.00000000000E+00 -0.18392618386E+03  0.18392618386E+03  0.00000000000E+00 0.  1.
         23    2    1    2    0    0 -0.65363620987E+02  0.12590440743E+03 -0.34970836910E+02  0.17212502022E+03  0.90993078826E+02 0.  0.
         24    2    1    2    0    0  0.52187017578E+02 -0.93434363333E+02  0.62635201217E+03  0.64043342570E+03  0.79904095977E+02 0.  0.
        -11    1    4    4    0    0  0.66189449288E+02 -0.53173107636E+02  0.31758822273E+03  0.32874108625E+03  0.00000000000E+00 0.  1.
         12    1    4    4    0    0 -0.14002431710E+02 -0.40261255697E+02  0.30876378944E+03  0.31169233945E+03  0.00000000000E+00 0. -1.
        -13    1    3    3    0    0 -0.80738002098E+02  0.96054864926E+02 -0.26313298213E+01  0.12550731435E+03  0.00000000000E+00 0.  1.
         13    1    3    3    0    0  0.15374381111E+02  0.29849542502E+02 -0.32339507088E+02  0.46617705873E+02  0.00000000000E+00 0. -1.
         21    1    1    2  502  501  0.13176603408E+02 -0.32470044095E+02 -0.69151675584E+02  0.77523421474E+02  0.00000000000E+00 0.  1.
<scales pt_clust_5="13000.00000" pt_clust_6="13000.00000" pt_clust_7="13000.00000" pt_clust_8="13000.00000" pt_clust_9="35.04178"></scales>
<clustering>
<clus scale="   35.042">  2  9  1 -1</clus>
<clus scale="   79.904">  5  6 -1 -1</clus>
<clus scale="   90.993">  7  8 -1 -1</clus>
<clus scale="  135.340">  1  5  2 -1</clus>
<clus scale="  135.340">  1  5  2 -1</clus>
</clustering>
</event>
<event>
 9    2  0.5608219E-005  0.9851974E+02  0.7546771E-02  0.1287712E+00
         -1   -1    0    0    0  501 -0.00000000000E+00  0.00000000000E+00  0.75147299027E+02  0.75147299027E+02  0.00000000000E+00 0.  1.
          2   -1    0    0  502    0  0.00000000000E+00 -0.00000000000E+00 -0.42806562566E+03  0.42806562566E+03  0.00000000000E+00 0. -1.
         23    2    1    2    0    0  0.58358228809E+02 -0.22053592468E+01 -0.63954531777E+02  0.12589180726E+03  0.91367491599E+02 0.  0.
         24    2    1    2    0    0 -0.31634515411E+02  0.88808208005E+01 -0.32208210397E+03  0.33424512593E+03  0.83086165911E+02 0.  0.
        -13    1    4    4    0    0 -0.58835424460E+02  0.14254228898E+02 -0.24359391902E+03  0.25100356092E+03  0.00000000000E+00 0.  1.
         14    1    4    4    0    0  0.27200909050E+02 -0.53734080971E+01 -0.78488184952E+02  0.83241565007E+02  0.00000000000E+00 0. -1.
        -11    1    3    3    0    0 -0.22546596484E+02  0.12423554642E+02 -0.10360496210E+02  0.27749479359E+02  0.00000000000E+00 0.  1.
         11    1    3    3    0    0  0.80904825293E+02 -0.14628913889E+02 -0.53594035567E+02  0.98142327900E+02  0.00000000000E+00 0. -1.
         21    1    1    2  502  501 -0.26723713398E+02 -0.66754615537E+01  0.33118309116E+02  0.43075991497E+02  0.00000000000E+00 0.  1.
<scales pt_clust_5="13000.00000" pt_clust_6="13000.00000" pt_clust_7="13000.00000" pt_clust_8="13000.00000" pt_clust_9="27.54485"></scales>
<clustering>
<clus scale="   27.545">  1  9  2 -1</clus>
<clus scale="   83.086">  5  6 -1 -1</clus>
<clus scale="   90.892">  2  5  1 -1</clus>
<clus scale="   91.367">  7  8 -1 -1</clus>
<clus scale="   90.892">  2  5  1 -1</clus>
</clustering>
</event>
<event>
 9    2  0.5608219E-005  0.2752700E+03  0.7546771E-02  0.1147719E+00
         -1   -1    0    0    0  501 -0.00000000000E+00  0.00000000000E+00  0.15967012740E+03  0.15967012740E+03  0.00000000000E+00 0.  1.
          2   -1    0    0  502    0  0.00000000000E+00 -0.00000000000E+00 -0.77028192916E+03  0.77028192916E+03  0.00000000000E+00 0. -1.
         23    2    1    2    0    0  0.16150143697E+03  0.20276861898E+03 -0.11059084822E+03  0.29583859176E+03  0.89957265839E+02 0.  0.
         24    2    1    2    0    0 -0.73977277927E+01  0.85837997756E+01 -0.28305118866E+03  0.29426985816E+03  0.79676634134E+02 0.  0.
        -11    1    4    4    0    0 -0.41349029076E+02  0.17771501837E+02 -0.17134332093E+03  0.17715558729E+03  0.00000000000E+00 0.  1.
         12    1    4    4    0    0  0.33951301284E+02 -0.91877020617E+01 -0.11170786773E+03  0.11711427087E+03  0.00000000000E+00 0. -1.
        -11    1    3    3    0    0  0.69842901343E+02  0.12778725759E+03 -0.20543413704E+02  0.14707020744E+03  0.00000000000E+00 0. -1.
         11    1    3    3    0    0  0.91658535624E+02  0.74981361391E+02 -0.90047434518E+02  0.14876838432E+03  0.00000000000E+00 0.  1.
         21    1    1    2  502  501 -0.15410370917E+03 -0.21135241876E+03 -0.21696976488E+03  0.33984360663E+03  0.00000000000E+00 0.  1.
<scales pt_clust_5="13000.00000" pt_clust_6="13000.00000" pt_clust_7="13000.00000" pt_clust_8="13000.00000" pt_clust_9="260.15622"></scales>
<clustering>
<clus scale="   79.677">  5  6 -1 -1</clus>
<clus scale="   80.478">  2  5  1 -1</clus>
<clus scale="   89.957">  7  8 -1 -1</clus>
<clus scale="  260.156">  2  9  1 -1</clus>
<clus scale="   80.478">  2  5  1 -1</clus>
</clustering>
</event>
<event>
 9    2  0.5608219E-005  0.1661197E+03  0.7546771E-02  0.1186372E+00
         -1   -1    0    0    0  501 -0.00000000000E+00  0.00000000000E+00  0.15527152341E+03  0.15527152341E+03  0.00000000000E+00 0.  1.
          2   -1    0    0  502    0  0.00000000000E+00 -0.00000000000E+00 -0.71593493870E+03  0.71593493870E+03  0.00000000000E+00 0. -1.
         24    2    1    2    0    0  0.66785286969E+02 -0.97064947390E+02  0.80712139138E+02  0.16209812230E+03  0.76677723495E+02 0.  0.
         23    2    1    2    0    0 -0.87609520812E+02  0.96884547523E+02 -0.66023059687E+03  0.68101574497E+03  0.10399980849E+03 0.  0.
        -11    1    3    3    0    0  0.51289586151E+02 -0.51092887977E+02  0.86996911281E+02  0.11317935952E+03  0.00000000000E+00 0.  1.
         12    1    3    3    0    0  0.15495700818E+02 -0.45972059413E+02 -0.62847721431E+01  0.48918762774E+02  0.00000000000E+00 0. -1.
        -13    1    4    4    0    0 -0.47517797072E+01  0.77563795384E+02 -0.24028896542E+03  0.25254209286E+03  0.00000000000E+00 0.  1.
         13    1    4    4    0    0 -0.82857741104E+02  0.19320752139E+02 -0.41994163145E+03  0.42847365211E+03  0.00000000000E+00 0. -1.
         21    1    1    2  502  501  0.20824233843E+02  0.18039986708E+00  0.18855042450E+02  0.28092594843E+02  0.00000000000E+00 0.  1.
<scales pt_clust_5="13000.00000" pt_clust_6="13000.00000" pt_clust_7="13000.00000" pt_clust_8="13000.00000" pt_clust_9="20.82502"></scales>
<clustering>
<clus scale="   20.825">  1  9  2 -1</clus>
<clus scale="   76.678">  5  6 -1 -1</clus>
<clus scale="  104.000">  7  8 -1 -1</clus>
<clus scale="  150.530">  1  5  2 -1</clus>
<clus scale="  166.120">  2  5  1 -1</clus>
</clustering>
</event>
<event>
 9    2  0.5608219E-005  0.1096992E+03  0.7546771E-02  0.1266003E+00
         -1   -1    0    0    0  501 -0.00000000000E+00  0.00000000000E+00  0.94028066544E+02  0.94028066544E+02  0.00000000000E+00 0.  1.
          2   -1    0    0  502    0  0.00000000000E+00 -0.00000000000E+00 -0.70300798618E+03  0.70300798618E+03  0.00000000000E+00 0. -1.
         23    2    1    2    0    0  0.68366454110E+01  0.57319432888E+02  0.42764039116E+02  0.11661704591E+03  0.91861391496E+02 0.  0.
         24    2    1    2    0    0  0.22214817920E+02 -0.97865337490E+02 -0.57339125297E+03  0.58753679967E+03  0.79692154967E+02 0.  0.
        -11    1    4    4    0    0  0.33298235568E+02 -0.61191626655E+01 -0.11302580312E+03  0.11798749432E+03  0.00000000000E+00 0.  1.
         12    1    4    4    0    0 -0.11083417648E+02 -0.91746174824E+02 -0.46036544985E+03  0.46954930535E+03  0.00000000000E+00 0. -1.
        -13    1    3    3    0    0  0.35378990586E+01  0.82610591269E+02  0.28928369774E+02  0.87600668361E+02  0.00000000000E+00 0.  1.
         13    1    3    3    0    0  0.32987463524E+01 -0.25291158381E+02  0.13835669342E+02  0.29016377546E+02  0.00000000000E+00 0. -1.
         21    1    1    2  502  501 -0.29051463331E+02  0.40545904602E+02 -0.78352705776E+02  0.92882207145E+02  0.00000000000E+00 0. -1.
<scales pt_clust_5="13000.00000" pt_clust_6="13000.00000" pt_clust_7="13000.00000" pt_clust_8="13000.00000" pt_clust_9="49.87943"></scales>
<clustering>
<clus scale="   49.879">  2  9  1 -1</clus>
<clus scale="   79.692">  5  6 -1 -1</clus>
<clus scale="   91.861">  7  8 -1 -1</clus>
<clus scale="   99.731">  2  5  1 -1</clus>
<clus scale="   49.879">  2  5  1 -1</clus>
</clustering>
</event>
<event>
 9    2  0.5608219E-005  0.1287931E+03  0.7546771E-02  0.1233930E+00
         -1   -1    0    0    0  501 -0.00000000000E+00  0.00000000000E+00  0.34099821089E+03  0.34099821089E+03  0.00000000000E+00 0.  1.
          2   -1    0    0  502    0  0.00000000000E+00 -0.00000000000E+00 -0.40339111811E+03  0.40339111811E+03  0.00000000000E+00 0. -1.
         23    2    1    2    0    0 -0.39914209119E+02  0.47343811574E+02  0.21293096054E+03  0.23964101520E+03  0.90849554883E+02 0.  0.
         24    2    1    2    0    0  0.88407782385E+02 -0.28354805183E+02 -0.37451179367E+03  0.39271950654E+03  0.73140934195E+02 0.  0.
        -13    1    4    4    0    0  0.11618253906E+02  0.21244929150E+02 -0.11655413663E+03  0.11904283937E+03  0.00000000000E+00 0.  1.
         14    1    4    4    0    0  0.76789528479E+02 -0.49599734333E+02 -0.25795765704E+03  0.27367666717E+03  0.00000000000E+00 0. -1.
        -13    1    3    3    0    0 -0.42587005577E+02 -0.92118307930E+01  0.14394784030E+03  0.15039777790E+03  0.00000000000E+00 0.  1.
         13    1    3    3    0    0  0.26727964573E+01  0.56555642367E+02  0.68983120245E+02  0.89243237296E+02  0.00000000000E+00 0. -1.
         21    1    1    2  502  501 -0.48493573265E+02 -0.18989006391E+02  0.99187925901E+02  0.11202880726E+03  0.00000000000E+00 0. -1.
<scales pt_clust_5="13000.00000" pt_clust_6="13000.00000" pt_clust_7="13000.00000" pt_clust_8="13000.00000" pt_clust_9="52.07887"></scales>
<clustering>
<clus scale="   52.079">  1  9  2 -1</clus>
<clus scale="   73.141">  5  6 -1 -1</clus>
<clus scale="   90.850">  7  8 -1 -1</clus>
<clus scale="  116.977">  2  5  1 -1</clus>
<clus scale="  116.977">  2  5  1 -1</clus>
</clustering>
</event>
<event>
 9    2  0.5608219E-005  0.2456961E+03  0.7546771E-02  0.1138902E+00
         -1   -1    0    0    0  501 -0.00000000000E+00  0.00000000000E+00  0.48768978884E+03  0.48768978884E+03  0.00000000000E+00 0.  1.
          2   -1    0    0  502    0  0.00000000000E+00 -0.00000000000E+00 -0.29491936415E+03  0.29491936415E+03  0.00000000000E+00 0. -1.
         24    2    1    2    0    0 -0.98124162451E+02  0.60279067870E+02  0.20255809951E+03  0.24613024734E+03  0.79299418005E+02 0.  0.
         23    2    1    2    0    0  0.14464801010E+03 -0.21830190893E+03 -0.15579248153E+03  0.31635827899E+03  0.85044065725E+02 0.  0.
        -13    1    3    3    0    0 -0.96406137156E+02  0.19264496044E+02  0.15171731952E+03  0.18078553352E+03  0.00000000000E+00 0.  1.
         14    1    3    3    0    0 -0.17180252948E+01  0.41014571826E+02  0.50840779990E+02  0.65344713811E+02  0.00000000000E+00 0. -1.
        -13    1    4    4    0    0  0.42202564538E+02 -0.16897123295E+02 -0.47631788367E+02  0.65843424063E+02  0.00000000000E+00 0.  1.
         13    1    4    4    0    0  0.10244544556E+03 -0.20140478564E+03 -0.10816069316E+03  0.25051485493E+03  0.00000000000E+00 0. -1.
         21    1    1    2  502  501 -0.46523847650E+02  0.15802284106E+03  0.14600480672E+03  0.22012062666E+03  0.00000000000E+00 0.  1.
<scales pt_clust_5="13000.00000" pt_clust_6="13000.00000" pt_clust_7="13000.00000" pt_clust_8="13000.00000" pt_clust_9="230.50830"></scales>
<clustering>
<clus scale="   79.299">  5  6 -1 -1</clus>
<clus scale="   85.044">  7  8 -1 -1</clus>
<clus scale="  139.822">  1  5  2 -1</clus>
<clus scale="  230.508">  1  9  2 -1</clus>
<clus scale="  245.696">  2  5  1 -1</clus>
</clustering>
</event>
<event>
 9    2  0.5608219E-005  0.3424757E+03  0.7546771E-02  0.1102079E+00
          2   -1    0    0  502    0  0.00000000000E+00  0.00000000000E+00  0.53015111708E+03  0.53015111708E+03  0.00000000000E+00 0. -1.
         -1   -1    0    0    0  501 -0.00000000000E+00 -0.00000000000E+00 -0.48702062064E+03  0.48702062064E+03  0.00000000000E+00 0.  1.
         23    2    1    2    0    0 -0.15714362748E+03  0.27722881572E+03  0.10816253859E+03  0.34862195294E+03  0.91039526553E+02 0.  0.
         24    2    1    2    0    0  0.85136598943E+02  0.53174604231E+02  0.20040493515E+03  0.23865651781E+03  0.81969606835E+02 0.  0.
        -11    1    4    4    0    0  0.41810804984E+02 -0.18478341791E+02  0.65363140218E+02  0.79761724078E+02  0.00000000000E+00 0.  1.
         12    1    4    4    0    0  0.43325793959E+02  0.71652946022E+02  0.13504179493E+03  0.15889479373E+03  0.00000000000E+00 0. -1.
        -11    1    3    3    0    0 -0.21609717592E+02  0.44500939010E+02 -0.16093770725E+02  0.52022331006E+02  0.00000000000E+00 0.  1.
         11    1    3    3    0    0 -0.13553390989E+03  0.23272787671E+03  0.12425630931E+03  0.29659962193E+03  0.00000000000E+00 0. -1.
         21    1    1    2  502  501  0.72007028541E+02 -0.33040341995E+03 -0.26543697729E+03  0.42989326697E+03  0.00000000000E+00 0.  1.
<scales pt_clust_5="13000.00000" pt_clust_6="13000.00000" pt_clust_7="13000.00000" pt_clust_8="13000.00000" pt_clust_9="330.15360"></scales>
<clustering>
<clus scale="   81.970">  5  6 -1 -1</clus>
<clus scale="   91.040">  7  8 -1 -1</clus>
<clus scale="  129.595">  1  5  2 -1</clus>
<clus scale="  330.154">  2  9  1 -1</clus>
<clus scale="  129.595">  1  5  2 -1</clus>
</clustering>
</event>
<event>
 9    2  0.5608219E-005  0.1018291E+03  0.7546771E-02  0.1280446E+00
          2   -1    0    0  502    0  0.00000000000E+00  0.00000000000E+00  0.75225734073E+03  0.75225734073E+03  0.00000000000E+00 0. -1.
         -1   -1    0    0    0  501 -0.00000000000E+00 -0.00000000000E+00 -0.29387639560E+02  0.29387639560E+02  0.00000000000E+00 0.  1.
         23    2    1    2    0    0 -0.41205639535E+02  0.15387661519E+02  0.92311215721E+02  0.13637387682E+03  0.90231861750E+02 0.  0.
         24    2    1    2    0    0  0.48371486457E+02 -0.44780301688E+02  0.52771572040E+03  0.53807077240E+03  0.81799745926E+02 0.  0.
        -13    1    4    4    0    0  0.61566167565E+02 -0.56134086346E+02  0.48210750122E+03  0.48925358595E+03  0.00000000000E+00 0.  1.
         14    1    4    4    0    0 -0.13194681108E+02  0.11353784658E+02  0.45608219180E+02  0.48817186445E+02  0.00000000000E+00 0. -1.
        -11    1    3    3    0    0  0.27736165702E+02 -0.55967879121E+01  0.27311732034E+02  0.39326195207E+02  0.00000000000E+00 0.  1.
         11    1    3    3    0    0 -0.68941805236E+02  0.20984449431E+02  0.64999483688E+02  0.97047681615E+02  0.00000000000E+00 0. -1.
         21    1    1    2  502  501 -0.71658469223E+01  0.29392640169E+02  0.10284276505E+03  0.10720033107E+03  0.00000000000E+00 0. -1.
<scales pt_clust_5="13000.00000" pt_clust_6="13000.00000" pt_clust_7="13000.00000" pt_clust_8="13000.00000" pt_clust_9="30.25354"></scales>
<clustering>
<clus scale="   30.254">  1  9  2 -1</clus>
<clus scale="   81.800">  5  6 -1 -1</clus>
<clus scale="   90.232">  7  8 -1 -1</clus>
<clus scale="   94.438">  1  5  2 -1</clus>
<clus scale="   30.254">  1  5  2 -1</clus>
</clustering>
</event>
<event>
 9    2  0.5608219E-005  0.1421163E+03  0.7546771E-02  0.1211249E+00
          2   -1    0    0  502    0  0.00000000000E+00  0.00000000000E+00  0.47021975574E+03  0.47021975574E+03  0.00000000000E+00 0. -1.
         -1   -1    0    0    0  501 -0.00000000000E+00 -0.00000000000E+00 -0.41296541048E+03  0.41296541048E+03  0.00000000000E+00 0.  1.
         23    2    1    2    0    0  0.23605609168E+02 -0.92947604832E+02 -0.54675795006E+02  0.13947172931E+03  0.85243408473E+02 0.  0.
         24    2    1    2    0    0  0.10608520960E+02  0.11601333902E+03  0.41457260362E+03  0.43827097847E+03  0.81482337649E+02 0.  0.
        -13    1    4    4    0    0  0.21767440519E+02 -0.35544584017E+01  0.67183046007E+02  0.70710800533E+02  0.00000000000E+00 0.  1.
         14    1    4    4    0    0 -0.11158919559E+02  0.11956779742E+03  0.34738955761E+03  0.36756017794E+03  0.00000000000E+00 0. -1.
        -11    1    3    3    0    0  0.20153147093E+02 -0.27084123653E+02  0.20475559892E+02  0.39483511049E+02  0.00000000000E+00 0. -1.
         11    1    3    3    0    0  0.34524620742E+01 -0.65863481179E+02 -0.75151354898E+02  0.99988218258E+02  0.00000000000E+00 0.  1.
         21    1    1    2  502  501 -0.34214130128E+02 -0.23065734185E+02 -0.30264246336E+03  0.30544245845E+03  0.00000000000E+00 0.  1.
<scales pt_clust_5="13000.00000" pt_clust_6="13000.00000" pt_clust_7="13000.00000" pt_clust_8="13000.00000" pt_clust_9="41.26300"></scales>
<clustering>
<clus scale="   41.263">  2  9  1 -1</clus>
<clus scale="   81.482">  5  6 -1 -1</clus>
<clus scale="   85.243">  7  8 -1 -1</clus>
<clus scale="  139.893">  1  5  2 -1</clus>
<clus scale="  139.893">  1  5  2 -1</clus>
</clustering>
</event>
<event>
 9    2  0.5608219E-005  0.2696821E+03  0.7546771E-02  0.1101908E+00
         -1   -1    0    0    0  501 -0.00000000000E+00  0.00000000000E+00  0.11124603466E+03  0.11124603466E+03  0.00000000000E+00 0.  1.
          2   -1    0    0  502    0  0.00000000000E+00 -0.00000000000E+00 -0.16008716048E+04  0.16008716048E+04  0.00000000000E+00 0. -1.
         23    2    1    2    0    0 -0.14394335608E+03 -0.21888542753E+03 -0.14338396572E+03  0.30721739759E+03  0.72062803272E+02 0.  0.
         24    2    1    2    0    0  0.16331493819E+03  0.19717126553E+03 -0.13490906951E+04  0.13756619050E+04  0.82774975181E+02 0.  0.
        -11    1    4    4    0    0  0.82417627801E+02  0.12893979383E+03 -0.60358664764E+03  0.62268368937E+03  0.00000000000E+00 0.  1.
         12    1    4    4    0    0  0.80897310393E+02  0.68231471707E+02 -0.74550404742E+03  0.75297821567E+03  0.00000000000E+00 0. -1.
        -11    1    3    3    0    0 -0.11241260159E+03 -0.14091687450E+03 -0.63209222451E+02  0.19102241836E+03  0.00000000000E+00 0.  1.
         11    1    3    3    0    0 -0.31530754488E+02 -0.77968553026E+02 -0.80174743265E+02  0.11619497923E+03  0.00000000000E+00 0. -1.
         21    1    1    2  502  501 -0.19371582115E+02  0.21714161993E+02  0.28490906048E+01  0.29238336854E+02  0.00000000000E+00 0. -1.
<scales pt_clust_5="13000.00000" pt_clust_6="13000.00000" pt_clust_7="13000.00000" pt_clust_8="13000.00000" pt_clust_9="29.09919"></scales>
<clustering>
<clus scale="   29.099">  1  9  2 -1</clus>
<clus scale="   72.063">  7  8 -1 -1</clus>
<clus scale="   82.775">  5  6 -1 -1</clus>
<clus scale="  266.589">  1  7  2 -1</clus>
<clus scale="  269.682">  2  5  1 -1</clus>
</clustering>
</event>
<event>
 9    2  0.5608219E-005  0.1054720E+03  0.7546771E-02  0.1274612E+00
          2   -1    0    0  502    0  0.00000000000E+00  0.00000000000E+00  0.89867573378E+02  0.89867573378E+02  0.00000000000E+00 0. -1.
         -1   -1    0    0    0  501 -0.00000000000E+00 -0.00000000000E+00 -0.30268119880E+03  0.30268119880E+03  0.00000000000E+00 0.  1.
         23    2    1    2    0    0  0.40413459869E+02 -0.26359679092E+02 -0.97978143811E+02  0.14080952685E+03  0.88879276369E+02 0.  0.
         24    2    1    2    0    0  0.48677708032E+02 -0.66456354933E+01 -0.18687209868E+02  0.11656869695E+03  0.10404501701E+03 0.  0.
        -13    1    4    4    0    0 -0.32751093677E+02  0.74809464518E+00 -0.29087390894E+00  0.32760927799E+02  0.00000000000E+00 0.  1.
         14    1    4    4    0    0  0.81428801709E+02 -0.73937301384E+01 -0.18396335959E+02  0.83807769150E+02  0.00000000000E+00 0. -1.
        -13    1    3    3    0    0  0.21073970094E+02 -0.47338932143E+02 -0.16346773816E+02  0.54335105835E+02  0.00000000000E+00 0.  1.
         13    1    3    3    0    0  0.19339489775E+02  0.20979253051E+02 -0.81631369995E+02  0.86474421019E+02  0.00000000000E+00 0. -1.
         21    1    1    2  502  501 -0.89091167901E+02  0.33005314585E+02 -0.96148271741E+02  0.13517054837E+03  0.00000000000E+00 0.  1.
<scales pt_clust_5="13000.00000" pt_clust_6="13000.00000" pt_clust_7="13000.00000" pt_clust_8="13000.00000" pt_clust_9="95.00835"></scales>
<clustering>
<clus scale="   88.879">  7  8 -1 -1</clus>
<clus scale="   95.008">  2  9  1 -1</clus>
<clus scale="   95.008">  2  7  1 -1</clus>
<clus scale="  104.045">  5  6 -1 -1</clus>
<clus scale="  105.472">  1  5  2 -1</clus>
</clustering>
</event>
<event>
 9    2  0.5608219E-005  0.9524569E+02  0.7546771E-02  0.1297897E+00
          2   -1    0    0  502    0  0.00000000000E+00  0.00000000000E+00  0.71155267541E+03  0.71155267541E+03  0.00000000000E+00 0. -1.
         -1   -1    0    0    0  501 -0.00000000000E+00 -0.00000000000E+00 -0.29845904516E+02  0.29845904516E+02  0.00000000000E+00 0.  1.
         23    2    1    2    0    0  0.52526921101E+01  0.43541997512E+02  0.93812550063E+02  0.13697839821E+03  0.89659303509E+02 0.  0.
         24    2    1    2    0    0 -0.22127394505E+02 -0.22520886898E+02  0.55812808616E+03  0.56426217572E+03  0.76733502803E+02 0.  0.
        -13    1    4    4    0    0 -0.73176252804E+01  0.22634916185E+02  0.72246108429E+02  0.76061733175E+02  0.00000000000E+00 0.  1.
         14    1    4    4    0    0 -0.14809769225E+02 -0.45155803083E+02  0.48588197773E+03  0.48820044254E+03  0.00000000000E+00 0. -1.
        -13    1    3    3    0    0 -0.92881617710E+01  0.59742980422E+02  0.26102130258E+02  0.65854497666E+02  0.00000000000E+00 0.  1.
         13    1    3    3    0    0  0.14540853881E+02 -0.16200982910E+02  0.67710419805E+02  0.71123900547E+02  0.00000000000E+00 0. -1.
         21    1    1    2  502  501  0.16874702395E+02 -0.21021110613E+02  0.29766134678E+02  0.40158006001E+02  0.00000000000E+00 0.  1.
<scales pt_clust_5="13000.00000" pt_clust_6="13000.00000" pt_clust_7="13000.00000" pt_clust_8="13000.00000" pt_clust_9="26.95631"></scales>
<clustering>
<clus scale="   26.956">  2  9  1 -1</clus>
<clus scale="   76.734">  5  6 -1 -1</clus>
<clus scale="   83.192">  1  5  2 -1</clus>
<clus scale="   89.659">  7  8 -1 -1</clus>
<clus scale="   83.192">  1  5  2 -1</clus>
</clustering>
</event>
<event>
 9    2  0.5608219E-005  0.1892030E+03  0.7546771E-02  0.1161095E+00
         -1   -1    0    0    0  501 -0.00000000000E+00  0.00000000000E+00  0.12995393019E+03  0.12995393019E+03  0.00000000000E+00 0.  1.
          2   -1    0    0  502    0  0.00000000000E+00 -0.00000000000E+00 -0.49226350252E+03  0.49226350252E+03  0.00000000000E+00 0. -1.
         23    2    1    2    0    0  0.22710139314E+02 -0.19757721751E+03 -0.99938137387E+02  0.24075545694E+03  0.91777183631E+02 0.  0.
         24    2    1    2    0    0 -0.37957355053E+02  0.14973224840E+03 -0.28014000921E+03  0.32819527989E+03  0.73302182558E+02 0.  0.
        -11    1    4    4    0    0 -0.49423450331E+02  0.49012478849E+02 -0.11501182664E+03  0.13443444794E+03  0.00000000000E+00 0.  1.
         12    1    4    4    0    0  0.11466095277E+02  0.10071976955E+03 -0.16512818257E+03  0.19376083195E+03  0.00000000000E+00 0. -1.
        -11    1    3    3    0    0  0.57789370613E+02 -0.14187771199E+03 -0.68735527544E+02  0.16790911012E+03  0.00000000000E+00 0.  1.
         11    1    3    3    0    0 -0.35079231299E+02 -0.55699505530E+02 -0.31202609844E+02  0.72846346826E+02  0.00000000000E+00 0. -1.
         21    1    1    2  502  501  0.15247215739E+02  0.47844969116E+02  0.17768574276E+02  0.53266695874E+02  0.00000000000E+00 0. -1.
<scales pt_clust_5="13000.00000" pt_clust_6="13000.00000" pt_clust_7="13000.00000" pt_clust_8="13000.00000" pt_clust_9="50.21572"></scales>
<clustering>
<clus scale="   50.216">  1  9  2 -1</clus>
<clus scale="   73.302">  5  6 -1 -1</clus>
<clus scale="   91.777">  7  8 -1 -1</clus>
<clus scale="  180.964">  2  5  1 -1</clus>
<clus scale="  180.964">  2  5  1 -1</clus>
</clustering>
</event>
<event>
 9    2  0.5608219E-005  0.9752075E+02  0.7546771E-02  0.1292385E+00
         -1   -1    0    0    0  501 -0.00000000000E+00  0.00000000000E+00  0.10235003535E+03  0.10235003535E+03  0.00000000000E+00 0.  1.
          2   -1    0    0  502    0  0.00000000000E+00 -0.00000000000E+00 -0.20715655992E+03  0.20715655992E+03  0.00000000000E+00 0. -1.
         23    2    1    2    0    0 -0.77532411262E+01  0.98367851840E+01  0.10218224215E+02  0.94357903016E+02  0.92963039240E+02 0.  0.
         24    2    1    2    0    0  0.21472858619E+02 -0.25405827903E+02 -0.15055391662E+03  0.17400328227E+03  0.80648128833E+02 0.  0.
        -11    1    4    4    0    0  0.15489332593E+02  0.26427503817E+02 -0.31107778296E+02  0.43658060570E+02  0.00000000000E+00 0.  1.
         12    1    4    4    0    0  0.59835260261E+01 -0.51833331721E+02 -0.11944613832E+03  0.13034522170E+03  0.00000000000E+00 0. -1.
        -13    1    3    3    0    0  0.34307336985E+02  0.11386832866E+02 -0.21136328815E+02  0.41873592269E+02  0.00000000000E+00 0. -1.
         13    1    3    3    0    0 -0.42060578111E+02 -0.15500476820E+01  0.31354553030E+02  0.52484310747E+02  0.00000000000E+00 0.  1.
         21    1    1    2  502  501 -0.13719617493E+02  0.15569042719E+02  0.35529167838E+02  0.41145409982E+02  0.00000000000E+00 0.  1.
<scales pt_clust_5="13000.00000" pt_clust_6="13000.00000" pt_clust_7="13000.00000" pt_clust_8="13000.00000" pt_clust_9="20.75146"></scales>
<clustering>
<clus scale="   20.751">  1  9  2 -1</clus>
<clus scale="   80.648">  5  6 -1 -1</clus>
<clus scale="   85.862">  2  5  1 -1</clus>
<clus scale="   92.963">  7  8 -1 -1</clus>
<clus scale="   85.862">  2  5  1 -1</clus>
</clustering>
</event>
<event>
 9    2  0.5608219E-005  0.1323802E+03  0.7546771E-02  0.1227326E+00
         -1   -1    0    0    0  501 -0.00000000000E+00  0.00000000000E+00  0.16155955939E+03  0.16155955939E+03  0.00000000000E+00 0.  1.
          2   -1    0    0  502    0  0.00000000000E+00 -0.00000000000E+00 -0.50881275351E+03  0.50881275351E+03  0.00000000000E+00 0. -1.
         23    2    1    2    0    0  0.92256009329E+02  0.30100310509E+02  0.12123267513E+03  0.18016313485E+03  0.91346558178E+02 0.  0.
         24    2    1    2    0    0 -0.71772896723E+02 -0.27827537520E+02 -0.44788601258E+03  0.46107024373E+03  0.77834239472E+02 0.  0.
        -13    1    4    4    0    0 -0.66008042370E+02 -0.96783043401E+01 -0.17134753204E+03  0.18387688264E+03  0.00000000000E+00 0.  1.
         14    1    4    4    0    0 -0.57648543532E+01 -0.18149233180E+02 -0.27653848054E+03  0.27719336108E+03  0.00000000000E+00 0. -1.
        -13    1    3    3    0    0  0.22808610740E+02 -0.25647811641E+02  0.65142544562E+01  0.34935347100E+02  0.00000000000E+00 0. -1.
         13    1    3    3    0    0  0.69447398590E+02  0.55748122150E+02  0.11471842067E+03  0.14522778775E+03  0.00000000000E+00 0.  1.
         21    1    1    2  502  501 -0.20483112606E+02 -0.22727729888E+01 -0.20599856668E+02  0.29138934329E+02  0.00000000000E+00 0. -1.
<scales pt_clust_5="13000.00000" pt_clust_6="13000.00000" pt_clust_7="13000.00000" pt_clust_8="13000.00000" pt_clust_9="20.60882"></scales>
<clustering>
<clus scale="   20.609">  2  9  1 -1</clus>
<clus scale="   77.834">  5  6 -1 -1</clus>
<clus scale="   91.347">  7  8 -1 -1</clus>
<clus scale="  123.444">  2  5  1 -1</clus>
<clus scale="   20.609">  2  5  1 -1</clus>
</clustering>
</event>
<event>
 9    2  0.5608219E-005  0.1305741E+03  0.7546771E-02  0.1230099E+00
          2   -1    0    0  502    0  0.00000000000E+00  0.00000000000E+00  0.31510647864E+03  0.31510647864E+03  0.00000000000E+00 0. -1.
         -1   -1    0    0    0  501 -0.00000000000E+00 -0.00000000000E+00 -0.61618536933E+02  0.61618536933E+02  0.00000000000E+00 0.  1.
         23    2    1    2    0    0 -0.98855845375E+02 -0.32195570491E+02  0.13407601373E+03  0.19373820348E+03  0.93536522837E+02 0.  0.
         24    2    1    2    0    0  0.77581787389E+02  0.21680419995E+02  0.10713242370E+03  0.15626715344E+03  0.80331143975E+02 0.  0.
        -13    1    4    4    0    0  0.37592711866E+02  0.51226391302E+02  0.52760503594E+02  0.82589502303E+02  0.00000000000E+00 0.  1.
         14    1    4    4    0    0  0.39989075523E+02 -0.29545971307E+02  0.54371920105E+02  0.73677651141E+02  0.00000000000E+00 0. -1.
        -13    1    3    3    0    0 -0.80197037517E+02 -0.15672286580E+02  0.14506773455E+03  0.16649874775E+03  0.00000000000E+00 0. -1.
         13    1    3    3    0    0 -0.18658807858E+02 -0.16523283912E+02 -0.10991720820E+02  0.27239455730E+02  0.00000000000E+00 0.  1.
         21    1    1    2  502  501  0.21274057986E+02  0.10515150497E+02  0.12279504275E+02  0.26719658650E+02  0.00000000000E+00 0. -1.
<scales pt_clust_5="13000.00000" pt_clust_6="13000.00000" pt_clust_7="13000.00000" pt_clust_8="13000.00000" pt_clust_9="23.73086"></scales>
<clustering>
<clus scale="   23.731">  2  9  1 -1</clus>
<clus scale="   80.331">  5  6 -1 -1</clus>
<clus scale="   93.537">  7  8 -1 -1</clus>
<clus scale="  121.464">  1  5  2 -1</clus>
<clus scale="  121.464">  1  5  2 -1</clus>
</clustering>
</event>
<event>
 9    2  0.5608219E-005  0.1343781E+03  0.7546771E-02  0.1237313E+00
         -1   -1    0    0    0  501 -0.00000000000E+00  0.00000000000E+00  0.21489873513E+03  0.21489873513E+03  0.00000000000E+00 0.  1.
          2   -1    0    0  502    0  0.00000000000E+00 -0.00000000000E+00 -0.42795588901E+03  0.42795588901E+03  0.00000000000E+00 0. -1.
         23    2    1    2    0    0  0.85043896194E+02  0.17083337287E+02  0.11438328901E+03  0.17069509072E+03  0.92352436343E+02 0.  0.
         24    2    1    2    0    0  0.22578536040E+02  0.44770816152E+02 -0.33429966848E+03  0.34783908783E+03  0.81985037690E+02 0.  0.
        -11    1    4    4    0    0  0.44953295977E+02 -0.68991297594E+00 -0.17451992402E+03  0.18021786449E+03  0.00000000000E+00 0.  1.
         12    1    4    4    0    0 -0.22374759936E+02  0.45460729128E+02 -0.15977974446E+03  0.16762122334E+03  0.00000000000E+00 0. -1.
        -13    1    3    3    0    0  0.63592618632E+02 -0.22051849571E+02  0.26896152911E+02  0.72482468608E+02  0.00000000000E+00 0.  1.
         13    1    3    3    0    0  0.21451277562E+02  0.39135186859E+02  0.87487136100E+02  0.98212622113E+02  0.00000000000E+00 0. -1.
         21    1    1    2  502  501 -0.10762243223E+03 -0.61854153439E+02  0.68592255947E+01  0.12432044560E+03  0.00000000000E+00 0. -1.
<scales pt_clust_5="13000.00000" pt_clust_6="13000.00000" pt_clust_7="13000.00000" pt_clust_8="13000.00000" pt_clust_9="97.61401"></scales>
<clustering>
<clus scale="   81.985">  5  6 -1 -1</clus>
<clus scale="   92.352">  7  8 -1 -1</clus>
<clus scale="   96.103">  2  5  1 -1</clus>
<clus scale="   97.614">  2  9  1 -1</clus>
<clus scale="   96.103">  2  5  1 -1</clus>
</clustering>
</event>
<event>
 9    2  0.5608219E-005  0.2375917E+03  0.7546771E-02  0.1121869E+00
          2   -1    0    0  502    0  0.00000000000E+00  0.00000000000E+00  0.43503746132E+03  0.43503746132E+03  0.00000000000E+00 0. -1.
         -1   -1    0    0    0  501 -0.00000000000E+00 -0.00000000000E+00 -0.24643136469E+03  0.24643136469E+03  0.00000000000E+00 0.  1.
         24    2    1    2    0    0 -0.70051614491E+02 -0.22262294532E+03 -0.31670742454E+02  0.25021097994E+03  0.84464750529E+02 0.  0.
         23    2    1    2    0    0  0.51129914047E+02  0.20884110515E+03  0.28138383954E+03  0.36582058321E+03  0.91754883415E+02 0.  0.
        -13    1    3    3    0    0  0.91946666151E+01 -0.10948343759E+03 -0.90775041583E+01  0.11024321331E+03  0.00000000000E+00 0.  1.
         14    1    3    3    0    0 -0.79246281106E+02 -0.11313950773E+03 -0.22593238295E+02  0.13996776663E+03  0.00000000000E+00 0. -1.
        -13    1    4    4    0    0  0.72037334519E+02  0.10328221102E+03  0.14350548377E+03  0.19091992183E+03  0.00000000000E+00 0. -1.
         13    1    4    4    0    0 -0.20907420472E+02  0.10555889412E+03  0.13787835577E+03  0.17490066138E+03  0.00000000000E+00 0.  1.
         21    1    1    2  502  501  0.18921700444E+02  0.13781840170E+02 -0.61107000455E+02  0.65437262861E+02  0.00000000000E+00 0.  1.
<scales pt_clust_5="13000.00000" pt_clust_6="13000.00000" pt_clust_7="13000.00000" pt_clust_8="13000.00000" pt_clust_9="23.40876"></scales>
<clustering>
<clus scale="   23.409">  2  9  1 -1</clus>
<clus scale="   84.465">  5  6 -1 -1</clus>
<clus scale="   91.755">  7  8 -1 -1</clus>
<clus scale="  234.873">  2  5  1 -1</clus>
<clus scale="  237.592">  1  5  2 -1</clus>
</clustering>
</event>
<event>
 9    2  0.5608219E-005  0.1211121E+03  0.7546771E-02  0.1242733E+00
          2   -1    0    0  502    0  0.00000000000E+00  0.00000000000E+00  0.97096420006E+03  0.97096420006E+03  0.00000000000E+00 0. -1.
         -1   -1    0    0    0  501 -0.00000000000E+00 -0.00000000000E+00 -0.20395888148E+02  0.20395888148E+02  0.00000000000E+00 0.  1.
         23    2    1    2    0    0 -0.24995508793E+02  0.89004717930E+02  0.30290910471E+03  0.32745855813E+03  0.83238009955E+02 0.  0.
         24    2    1    2    0    0  0.35748111872E+00 -0.86921739963E+02  0.58487724272E+03  0.59642600660E+03  0.78019713049E+02 0.  0.
        -13    1    4    4    0    0  0.17228101287E+02 -0.59374375504E+02  0.18116158589E+03  0.19142007247E+03  0.00000000000E+00 0.  1.
         14    1    4    4    0    0 -0.16870620168E+02 -0.27547364458E+02  0.40371565682E+03  0.40500593413E+03  0.00000000000E+00 0. -1.
        -11    1    3    3    0    0 -0.51735143364E+02  0.79489920492E+02  0.25057872302E+03  0.26792698436E+03  0.00000000000E+00 0.  1.
         11    1    3    3    0    0  0.26739634571E+02  0.95147974374E+01  0.52330381693E+02  0.59531573769E+02  0.00000000000E+00 0. -1.
         21    1    1    2  502  501  0.24638027675E+02 -0.20829779669E+01  0.62781964489E+02  0.67475523488E+02  0.00000000000E+00 0. -1.
<scales pt_clust_5="13000.00000" pt_clust_6="13000.00000" pt_clust_7="13000.00000" pt_clust_8="13000.00000" pt_clust_9="24.72592"></scales>
<clustering>
<clus scale="   24.726">  2  9  1 -1</clus>
<clus scale="   78.020">  5  6 -1 -1</clus>
<clus scale="   83.238">  7  8 -1 -1</clus>
<clus scale="  117.587">  1  5  2 -1</clus>
<clus scale="  117.587">  1  5  2 -1</clus>
</clustering>
</event>
<event>
 9    2  0.5608219E-005  0.1177520E+03  0.7546771E-02  0.1248644E+00
         -3   -1    0    0    0  501 -0.00000000000E+00  0.00000000000E+00  0.10442279993E+03  0.10442279993E+03  0.00000000000E+00 0.  1.
          4   -1    0    0  502    0  0.00000000000E+00 -0.00000000000E+00 -0.74236098541E+03  0.74236098541E+03  0.00000000000E+00 0. -1.
         23    2    1    2    0    0 -0.67919387177E+02  0.12803071906E+02  0.34879043793E+02  0.11970880156E+03  0.91305463526E+02 0.  0.
         24    2    1    2    0    0 -0.58194924488E+02  0.55228138270E+02 -0.17172947429E+03  0.20590130510E+03  0.80421008497E+02 0.  0.
        -13    1    4    4    0    0 -0.71115221702E+02  0.55935428024E+02 -0.10808947901E+03  0.14095915131E+03  0.00000000000E+00 0.  1.
         14    1    4    4    0    0  0.12920297214E+02 -0.70728975448E+00 -0.63639995282E+02  0.64942153786E+02  0.00000000000E+00 0. -1.
        -11    1    3    3    0    0 -0.14146330210E+02  0.47147749424E+02  0.24778857325E+02  0.55109170784E+02  0.00000000000E+00 0.  1.
         11    1    3    3    0    0 -0.53773056967E+02 -0.34344677518E+02  0.10100186468E+02  0.64599630774E+02  0.00000000000E+00 0. -1.
         21    1    1    2  502  501  0.12611431167E+03 -0.68031210176E+02 -0.50108775498E+03  0.52117367869E+03  0.00000000000E+00 0. -1.
<scales pt_clust_5="13000.00000" pt_clust_6="13000.00000" pt_clust_7="13000.00000" pt_clust_8="13000.00000" pt_clust_9="74.35615"></scales>
<clustering>
<clus scale="   80.421">  5  6 -1 -1</clus>
<clus scale="   91.305">  7  8 -1 -1</clus>
<clus scale="  113.597">  2  5  1 -1</clus>
<clus scale="   74.356">  2  9  1 -1</clus>
<clus scale="  113.597">  2  5  1 -1</clus>
</clustering>
</event>
<event>
 9    2  0.5608219E-005  0.1134897E+03  0.7546771E-02  0.1258399E+00
          2   -1    0    0  502    0  0.00000000000E+00  0.00000000000E+00  0.10325474645E+04  0.10325474645E+04  0.00000000000E+00 0. -1.
         -1   -1    0    0    0  501 -0.00000000000E+00 -0.00000000000E+00 -0.17178636927E+02  0.17178636927E+02  0.00000000000E+00 0.  1.
         24    2    1    2    0    0  0.38717582156E+02  0.36330840295E+02  0.31195521983E+03  0.32646851753E+03  0.80291049540E+02 0.  0.
         23    2    1    2    0    0 -0.37467381574E+02 -0.69722374877E+02  0.64219839906E+03  0.65351620911E+03  0.91649536681E+02 0.  0.
        -13    1    3    3    0    0  0.45185563283E+02  0.20941202260E+02  0.82215811791E+02  0.96123403965E+02  0.00000000000E+00 0.  1.
         14    1    3    3    0    0 -0.64679811269E+01  0.15389638035E+02  0.22973940804E+03  0.23034511357E+03  0.00000000000E+00 0. -1.
        -13    1    4    4    0    0 -0.24529599557E+02  0.17512540697E+02  0.10972153997E+03  0.11378579291E+03  0.00000000000E+00 0. -1.
         13    1    4    4    0    0 -0.12937782017E+02 -0.87234915574E+02  0.53247685909E+03  0.53973041620E+03  0.00000000000E+00 0.  1.
         21    1    1    2  502  501 -0.12502005819E+01  0.33391534582E+02  0.61215208714E+02  0.69741374815E+02  0.00000000000E+00 0. -1.
<scales pt_clust_5="13000.00000" pt_clust_6="13000.00000" pt_clust_7="13000.00000" pt_clust_8="13000.00000" pt_clust_9="33.41493"></scales>
<clustering>
<clus scale="   33.415">  2  9  1 -1</clus>
<clus scale="   80.291">  5  6 -1 -1</clus>
<clus scale="   91.650">  7  8 -1 -1</clus>
<clus scale="  104.532">  2  5  1 -1</clus>
<clus scale="  113.490">  1  5  2 -1</clus>
</clustering>
</event>
<event>
 9    2  0.5608219E-005  0.4309133E+03  0.7546771E-02  0.1033733E+00
          2   -1    0    0  502    0  0.00000000000E+00  0.00000000000E+00  0.47536978528E+03  0.47536978528E+03  0.00000000000E+00 0. -1.
         -1   -1    0    0    0  501 -0.00000000000E+00 -0.00000000000E+00 -0.64714455392E+03  0.64714455392E+03  0.00000000000E+00 0.  1.
         23    2    1    2    0    0  0.39423488343E+03 -0.79791045951E+02 -0.32212925889E+03  0.52329810070E+03  0.91026855569E+02 0.  0.
         24    2    1    2    0    0 -0.47940370715E+03  0.46790674548E+02  0.11964493758E+03  0.50285322863E+03  0.80803321710E+02 0.  0.
        -11    1    4    4    0    0 -0.40623399080E+03  0.11170225582E+02  0.89934874430E+02  0.41622002699E+03  0.00000000000E+00 0.  1.
         12    1    4    4    0    0 -0.73169716347E+02  0.35620448966E+02  0.29710063149E+02  0.86633201645E+02  0.00000000000E+00 0. -1.
        -11    1    3    3    0    0  0.58852438493E+02 -0.18766165919E+02 -0.13016636654E+02  0.63128530235E+02  0.00000000000E+00 0.  1.
         11    1    3    3    0    0  0.33538244493E+03 -0.61024880032E+02 -0.30911262224E+03  0.46016957046E+03  0.00000000000E+00 0. -1.
         21    1    1    2  502  501  0.85168823726E+02  0.33000371403E+02  0.30709552672E+02  0.96363009879E+02  0.00000000000E+00 0.  1.
<scales pt_clust_5="13000.00000" pt_clust_6="13000.00000" pt_clust_7="13000.00000" pt_clust_8="13000.00000" pt_clust_9="91.33867"></scales>
<clustering>
<clus scale="   80.803">  5  6 -1 -1</clus>
<clus scale="   91.027">  7  8 -1 -1</clus>
<clus scale="   91.339">  1  9  2 -1</clus>
<clus scale="  428.870">  1  5  2 -1</clus>
<clus scale="   91.339">  1  5  2 -1</clus>
</clustering>
</event>
<event>
 9    2  0.5608219E-005  0.1055529E+03  0.7546771E-02  0.1274937E+00
          4   -1    0    0  502    0  0.00000000000E+00  0.00000000000E+00  0.17068830933E+03  0.17068830933E+03  0.00000000000E+00 0. -1.
         -3   -1    0    0    0  501 -0.00000000000E+00 -0.00000000000E+00 -0.35102556438E+03  0.35102556438E+03  0.00000000000E+00 0.  1.
         24    2    1    2    0    0 -0.33708779821E+02  0.64338864702E+02 -0.15935694547E+03  0.19303043619E+03  0.81180920644E+02 0.  0.
         23    2    1    2    0    0  0.19577798791E+01 -0.45806866721E+02  0.13363329897E+03  0.16975915085E+03  0.94118057589E+02 0.  0.
        -11    1    3    3    0    0  0.25602559417E+02  0.31473247702E+02 -0.69249609567E+02  0.80259359546E+02  0.00000000000E+00 0.  1.
         12    1    3    3    0    0 -0.59311339238E+02  0.32865617000E+02 -0.90107335907E+02  0.11277107664E+03  0.00000000000E+00 0. -1.
        -13    1    4    4    0    0 -0.45066387650E+02 -0.14742355845E+02  0.49993112586E+02  0.68903030831E+02  0.00000000000E+00 0. -1.
         13    1    4    4    0    0  0.47024167529E+02 -0.31064510876E+02  0.83640186385E+02  0.10085612002E+03  0.00000000000E+00 0.  1.
         21    1    1    2  502  501  0.31750999942E+02 -0.18531997981E+02 -0.15461360854E+03  0.15892428667E+03  0.00000000000E+00 0.  1.
<scales pt_clust_5="13000.00000" pt_clust_6="13000.00000" pt_clust_7="13000.00000" pt_clust_8="13000.00000" pt_clust_9="36.76358"></scales>
<clustering>
<clus scale="   36.764">  2  9  1 -1</clus>
<clus scale="   81.181">  5  6 -1 -1</clus>
<clus scale="   94.118">  7  8 -1 -1</clus>
<clus scale="   94.200">  2  5  1 -1</clus>
<clus scale="  105.553">  1  5  2 -1</clus>
</clustering>
</event>
<event>
 9    2  0.5608219E-005  0.2657170E+03  0.7546771E-02  0.1104247E+00
          2   -1    0    0  502    0  0.00000000000E+00  0.00000000000E+00  0.63301952587E+03  0.63301952587E+03  0.00000000000E+00 0. -1.
         -1   -1    0    0    0  501 -0.00000000000E+00 -0.00000000000E+00 -0.24414542907E+03  0.24414542907E+03  0.00000000000E+00 0.  1.
         24    2    1    2    0    0 -0.12699322436E+03 -0.14799682721E+03  0.63494057423E+02  0.22145852959E+03  0.83558632722E+02 0.  0.
         23    2    1    2    0    0  0.17762401559E+03  0.21628929172E+03  0.42961794761E+03  0.52119665157E+03  0.93504117944E+02 0.  0.
        -13    1    3    3    0    0 -0.12067965643E+03 -0.10407525953E+03  0.22299690645E+02  0.16091151396E+03  0.00000000000E+00 0.  1.
         14    1    3    3    0    0 -0.63135679327E+01 -0.43921567686E+02  0.41194366777E+02  0.60547015635E+02  0.00000000000E+00 0. -1.
        -13    1    4    4    0    0  0.15376043311E+03  0.22239519778E+03  0.39696190589E+03  0.48029225427E+03  0.00000000000E+00 0. -1.
         13    1    4    4    0    0  0.23863582476E+02 -0.61059060607E+01  0.32656041727E+02  0.40904397303E+02  0.00000000000E+00 0.  1.
         21    1    1    2  502  501 -0.50630791225E+02 -0.68292464507E+02 -0.10423790823E+03  0.13450977377E+03  0.00000000000E+00 0.  1.
<scales pt_clust_5="13000.00000" pt_clust_6="13000.00000" pt_clust_7="13000.00000" pt_clust_8="13000.00000" pt_clust_9="85.01375"></scales>
<clustering>
<clus scale="   83.559">  5  6 -1 -1</clus>
<clus scale="   85.014">  2  9  1 -1</clus>
<clus scale="   93.504">  7  8 -1 -1</clus>
<clus scale="  262.382">  2  5  1 -1</clus>
<clus scale="  265.717">  1  5  2 -1</clus>
</clustering>
</event>
<event>
 9    2  0.5608219E-005  0.2030213E+03  0.7546771E-02  0.1147986E+00
         -1   -1    0    0    0  501 -0.00000000000E+00  0.00000000000E+00  0.26136918662E+03  0.26136918662E+03  0.00000000000E+00 0.  1.
          2   -1    0    0  502    0  0.00000000000E+00 -0.00000000000E+00 -0.61103019247E+03  0.61103019247E+03  0.00000000000E+00 0. -1.
         23    2    1    2    0    0 -0.13846912514E+03 -0.12283301481E+03 -0.24556945671E+03  0.32033350965E+03  0.89708144520E+02 0.  0.
         24    2    1    2    0    0  0.15035264928E+03  0.99932812862E+02 -0.29730630821E+03  0.35713618847E+03  0.81010678210E+02 0.  0.
        -13    1    4    4    0    0  0.10196414275E+03  0.10403712122E+03 -0.24997752218E+03  0.28932537150E+03  0.00000000000E+00 0.  1.
         14    1    4    4    0    0  0.48388506529E+02 -0.41043083628E+01 -0.47328786031E+02  0.67810816972E+02  0.00000000000E+00 0. -1.
        -11    1    3    3    0    0 -0.77124905204E+02 -0.68438435409E+02 -0.20361632241E+03  0.22823601204E+03  0.00000000000E+00 0. -1.
         11    1    3    3    0    0 -0.61344219936E+02 -0.54394579399E+02 -0.41953134304E+02  0.92097497607E+02  0.00000000000E+00 0.  1.
         21    1    1    2  502  501 -0.11883524138E+02  0.22900201946E+02  0.19321475908E+03  0.19492968096E+03  0.00000000000E+00 0.  1.
<scales pt_clust_5="13000.00000" pt_clust_6="13000.00000" pt_clust_7="13000.00000" pt_clust_8="13000.00000" pt_clust_9="25.79995"></scales>
<clustering>
<clus scale="   25.800">  1  9  2 -1</clus>
<clus scale="   81.011">  5  6 -1 -1</clus>
<clus scale="   89.708">  7  8 -1 -1</clus>
<clus scale="  199.331">  2  5  1 -1</clus>
<clus scale="  199.331">  2  5  1 -1</clus>
</clustering>
</event>
<event>
 9    2  0.5608219E-005  0.1121923E+03  0.7546771E-02  0.1260268E+00
         -1   -1    0    0    0  501 -0.00000000000E+00  0.00000000000E+00  0.25239325713E+03  0.25239325713E+03  0.00000000000E+00 0.  1.
          2   -1    0    0  502    0  0.00000000000E+00 -0.00000000000E+00 -0.24355300474E+03  0.24355300474E+03  0.00000000000E+00 0. -1.
         24    2    1    2    0    0 -0.77457429542E+02  0.55202459070E+02  0.19675880094E+03  0.23324280738E+03  0.81493659700E+02 0.  0.
         23    2    1    2    0    0  0.57287538540E+02 -0.26572978742E+02 -0.19732369024E+03  0.22644151387E+03  0.91384545754E+02 0.  0.
        -13    1    3    3    0    0 -0.48815222046E+02  0.73375327375E+02  0.16348826877E+03  0.18572904618E+03  0.00000000000E+00 0.  1.
         14    1    3    3    0    0 -0.28642207496E+02 -0.18172868306E+02  0.33270532167E+02  0.47513761200E+02  0.00000000000E+00 0. -1.
        -13    1    4    4    0    0  0.34278974347E+02  0.29743536857E+02 -0.52730874398E+02  0.69572057479E+02  0.00000000000E+00 0.  1.
         13    1    4    4    0    0  0.23008564193E+02 -0.56316515599E+02 -0.14459281584E+03  0.15686945639E+03  0.00000000000E+00 0. -1.
         21    1    1    2  502  501  0.20169891002E+02 -0.28629480328E+02  0.94051416881E+01  0.36261940613E+02  0.00000000000E+00 0. -1.
<scales pt_clust_5="13000.00000" pt_clust_6="13000.00000" pt_clust_7="13000.00000" pt_clust_8="13000.00000" pt_clust_9="35.02102"></scales>
<clustering>
<clus scale="   35.021">  1  9  2 -1</clus>
<clus scale="   81.494">  5  6 -1 -1</clus>
<clus scale="   91.385">  7  8 -1 -1</clus>
<clus scale="  104.294">  1  5  2 -1</clus>
<clus scale="  112.192">  2  5  1 -1</clus>
</clustering>
</event>
<event>
 9    2  0.5608219E-005  0.1301579E+03  0.7546771E-02  0.1229343E+00
         -1   -1    0    0    0  501 -0.00000000000E+00  0.00000000000E+00  0.99591445116E+02  0.99591445116E+02  0.00000000000E+00 0.  1.
          2   -1    0    0  502    0  0.00000000000E+00 -0.00000000000E+00 -0.86752026579E+03  0.86752026579E+03  0.00000000000E+00 0. -1.
         23    2    1    2    0    0  0.63180174856E+02  0.50169774801E+02 -0.20372691704E+03  0.23706994275E+03  0.90491768845E+02 0.  0.
         24    2    1    2    0    0 -0.66704104006E+02 -0.72874556781E+02 -0.63899643832E+03  0.65179761425E+03  0.82240763851E+02 0.  0.
        -13    1    4    4    0    0 -0.41655920578E+02 -0.89336552496E+02 -0.49021430228E+03  0.50002629680E+03  0.00000000000E+00 0.  1.
         14    1    4    4    0    0 -0.25048183428E+02  0.16461995715E+02 -0.14878213604E+03  0.15177131745E+03  0.00000000000E+00 0. -1.
        -13    1    3    3    0    0 -0.11551181491E+02 -0.17101498805E+02 -0.37216894741E+02  0.42555708306E+02  0.00000000000E+00 0.  1.
         13    1    3    3    0    0  0.74731356347E+02  0.67271273607E+02 -0.16651002230E+03  0.19451423444E+03  0.00000000000E+00 0. -1.
         21    1    1    2  502  501  0.35239291502E+01  0.22704781980E+02  0.74794534688E+02  0.78244153907E+02  0.00000000000E+00 0.  1.
<scales pt_clust_5="13000.00000" pt_clust_6="13000.00000" pt_clust_7="13000.00000" pt_clust_8="13000.00000" pt_clust_9="22.97662"></scales>
<clustering>
<clus scale="   22.977">  1  9  2 -1</clus>
<clus scale="   82.241">  5  6 -1 -1</clus>
<clus scale="   90.492">  7  8 -1 -1</clus>
<clus scale="  124.563">  2  5  1 -1</clus>
<clus scale="  124.563">  2  5  1 -1</clus>
</clustering>
</event>
<event>
 9    2  0.5608219E-005  0.1268927E+03  0.7546771E-02  0.1232542E+00
          2   -1    0    0  502    0  0.00000000000E+00  0.00000000000E+00  0.10606454501E+04  0.10606454501E+04  0.00000000000E+00 0. -1.
         -1   -1    0    0    0  501 -0.00000000000E+00 -0.00000000000E+00 -0.51803328767E+02  0.51803328767E+02  0.00000000000E+00 0.  1.
         23    2    1    2    0    0  0.11203637944E+03 -0.12213227518E+03  0.25245317802E+03  0.31583580697E+03  0.92472736054E+02 0.  0.
         24    2    1    2    0    0 -0.72449947847E+02  0.11158145645E+02  0.50682063186E+03  0.52062984728E+03  0.93887090901E+02 0.  0.
        -13    1    4    4    0    0  0.15182198188E+02 -0.20703839058E+02  0.97600798448E+02  0.10092107783E+03  0.00000000000E+00 0.  1.
         14    1    4    4    0    0 -0.87632146035E+02  0.31861984704E+02  0.40921983341E+03  0.41970876944E+03  0.00000000000E+00 0. -1.
        -13    1    3    3    0    0  0.10987249670E+03 -0.56595769739E+02  0.15250615331E+03  0.19629868435E+03  0.00000000000E+00 0.  1.
         13    1    3    3    0    0  0.21638827421E+01 -0.65536505444E+02  0.99947024713E+02  0.11953712262E+03  0.00000000000E+00 0. -1.
         21    1    1    2  502  501 -0.39586431593E+02  0.11097412954E+03  0.24956831143E+03  0.27598312459E+03  0.00000000000E+00 0.  1.
<scales pt_clust_5="13000.00000" pt_clust_6="13000.00000" pt_clust_7="13000.00000" pt_clust_8="13000.00000" pt_clust_9="117.82336"></scales>
<clustering>
<clus scale="   92.473">  7  8 -1 -1</clus>
<clus scale="   93.887">  5  6 -1 -1</clus>
<clus scale="  117.823">  2  9  1 -1</clus>
<clus scale="  125.850">  2  7  1 -1</clus>
<clus scale="  126.893">  1  5  2 -1</clus>
</clustering>
</event>
<event>
 9    2  0.5608219E-005  0.9367445E+02  0.7546771E-02  0.1303205E+00
          2   -1    0    0  502    0  0.00000000000E+00  0.00000000000E+00  0.26747359817E+03  0.26747359817E+03  0.00000000000E+00 0. -1.
         -1   -1    0    0    0  501 -0.00000000000E+00 -0.00000000000E+00 -0.12911757377E+03  0.12911757377E+03  0.00000000000E+00 0.  1.
         23    2    1    2    0    0 -0.96818517589E-01  0.63175091318E+02 -0.66294731732E+02  0.13080311943E+03  0.93398945719E+02 0.  0.
         24    2    1    2    0    0 -0.12812706983E+01 -0.25097409220E+01  0.18633842305E+03  0.20240410018E+03  0.78977664012E+02 0.  0.
        -11    1    4    4    0    0 -0.24623603192E+02 -0.30046921914E+02  0.12832330110E+03  0.13407463949E+03  0.00000000000E+00 0.  1.
         12    1    4    4    0    0  0.23342332494E+02  0.27537180992E+02  0.58015121950E+02  0.68329460689E+02  0.00000000000E+00 0. -1.
        -11    1    3    3    0    0 -0.18127626449E+02  0.80928642901E+02 -0.33652594354E+02  0.89501693779E+02  0.00000000000E+00 0. -1.
         11    1    3    3    0    0  0.18030807932E+02 -0.17753551584E+02 -0.32642137378E+02  0.41301425655E+02  0.00000000000E+00 0.  1.
         21    1    1    2  502  501  0.13780892159E+01 -0.60665350396E+02  0.18312333089E+02  0.63383952320E+02  0.00000000000E+00 0.  1.
<scales pt_clust_5="13000.00000" pt_clust_6="13000.00000" pt_clust_7="13000.00000" pt_clust_8="13000.00000" pt_clust_9="60.68100"></scales>
<clustering>
<clus scale="   60.681">  2  9  1 -1</clus>
<clus scale="   78.978">  5  6 -1 -1</clus>
<clus scale="   79.303">  1  5  2 -1</clus>
<clus scale="   93.399">  7  8 -1 -1</clus>
<clus scale="   79.303">  1  5  2 -1</clus>
</clustering>
</event>
<event>
 9    2  0.5608219E-005  0.2338195E+03  0.7546771E-02  0.1152059E+00
          2   -1    0    0  502    0  0.00000000000E+00  0.00000000000E+00  0.20793397329E+04  0.20793397329E+04  0.00000000000E+00 0. -1.
         -1   -1    0    0    0  501 -0.00000000000E+00 -0.00000000000E+00 -0.69773508418E+02  0.69773508418E+02  0.00000000000E+00 0.  1.
         24    2    1    2    0    0  0.78467705834E+02 -0.39788778071E+02  0.51195100295E+02  0.12906779297E+03  0.79355082816E+02 0.  0.
         23    2    1    2    0    0  0.15593025305E+03  0.39801982172E+02  0.37535903229E+03  0.41977369443E+03  0.97041794153E+02 0.  0.
        -11    1    3    3    0    0  0.84848544131E+02 -0.37894965694E+02  0.17297015120E+02  0.94522434364E+02  0.00000000000E+00 0.  1.
         12    1    3    3    0    0 -0.63808382968E+01 -0.18938123766E+01  0.33898085175E+02  0.34545358606E+02  0.00000000000E+00 0. -1.
        -13    1    4    4    0    0  0.10349095910E+03 -0.12860675693E+01  0.13357794637E+03  0.16898254449E+03  0.00000000000E+00 0.  1.
         13    1    4    4    0    0  0.52439293951E+02  0.41088049741E+02  0.24178108591E+03  0.25079114994E+03  0.00000000000E+00 0. -1.
         21    1    1    2  502  501 -0.23439795888E+03 -0.13204101430E-01  0.15830120919E+04  0.16002717539E+04  0.00000000000E+00 0. -1.
<scales pt_clust_5="13000.00000" pt_clust_6="13000.00000" pt_clust_7="13000.00000" pt_clust_8="13000.00000" pt_clust_9="212.73095"></scales>
<clustering>
<clus scale="   79.355">  5  6 -1 -1</clus>
<clus scale="   97.042">  7  8 -1 -1</clus>
<clus scale="  118.480">  2  5  1 -1</clus>
<clus scale="  212.731">  1  9  2 -1</clus>
<clus scale="  212.731">  1  5  2 -1</clus>
</clustering>
</event>
<event>
 9    2  0.5608219E-005  0.2394181E+03  0.7546771E-02  0.1120371E+00
         -1   -1    0    0    0  501 -0.00000000000E+00  0.00000000000E+00  0.11347999949E+03  0.11347999949E+03  0.00000000000E+00 0.  1.
          2   -1    0    0  502    0  0.00000000000E+00 -0.00000000000E+00 -0.12931941765E+04  0.12931941765E+04  0.00000000000E+00 0. -1.
         24    2    1    2    0    0 -0.26055549564E+03  0.26192206544E+02 -0.16117799620E+03  0.31807080004E+03  0.81335658765E+02 0.  0.
         23    2    1    2    0    0  0.21469423742E+03 -0.35747248244E+02 -0.10151216779E+04  0.10416330379E+04  0.84592454617E+02 0.  0.
        -13    1    3    3    0    0 -0.84225634637E+02 -0.17253364731E+02 -0.20582576890E+02  0.88404064364E+02  0.00000000000E+00 0.  1.
         14    1    3    3    0    0 -0.17632986100E+03  0.43445571275E+02 -0.14059541931E+03  0.22966673567E+03  0.00000000000E+00 0. -1.
        -13    1    4    4    0    0  0.16298796513E+03 -0.29187440102E+02 -0.90212655948E+03  0.91719644174E+03  0.00000000000E+00 0. -1.
         13    1    4    4    0    0  0.51706272293E+02 -0.65598081417E+01 -0.11299511845E+03  0.12443659619E+03  0.00000000000E+00 0.  1.
         21    1    1    2  502  501  0.45861258215E+02  0.95550416999E+01 -0.34145029126E+01  0.46970338056E+02  0.00000000000E+00 0. -1.
<scales pt_clust_5="13000.00000" pt_clust_6="13000.00000" pt_clust_7="13000.00000" pt_clust_8="13000.00000" pt_clust_9="46.84607"></scales>
<clustering>
<clus scale="   46.846">  1  9  2 -1</clus>
<clus scale="   81.336">  5  6 -1 -1</clus>
<clus scale="   84.592">  7  8 -1 -1</clus>
<clus scale="  238.287">  1  5  2 -1</clus>
<clus scale="  239.418">  2  5  1 -1</clus>
</clustering>
</event>
<event>
 9    2  0.5608219E-005  0.4206073E+03  0.7546771E-02  0.1037041E+00
         -1   -1    0    0    0  501 -0.00000000000E+00  0.00000000000E+00  0.13098473470E+03  0.13098473470E+03  0.00000000000E+00 0.  1.
          2   -1    0    0  502    0  0.00000000000E+00 -0.00000000000E+00 -0.24537056724E+04  0.24537056724E+04  0.00000000000E+00 0. -1.
         24    2    1    2    0    0 -0.52785926650E+02  0.37441469696E+03 -0.29946855231E+03  0.48886085605E+03  0.79566345907E+02 0.  0.
         23    2    1    2    0    0  0.37298847651E+01 -0.41956446878E+03 -0.19505007489E+04  0.19971492705E+04  0.90021009024E+02 0.  0.
        -11    1    3    3    0    0 -0.34250928857E+02  0.33861366207E+03 -0.23781538899E+03  0.41519693823E+03  0.00000000000E+00 0.  1.
         12    1    3    3    0    0 -0.18534997793E+02  0.35801034889E+02 -0.61653163312E+02  0.73663917821E+02  0.00000000000E+00 0. -1.
        -13    1    4    4    0    0 -0.24038577119E+02 -0.16087971661E+03 -0.59098104814E+03  0.61295899998E+03  0.00000000000E+00 0.  1.
         13    1    4    4    0    0  0.27768461884E+02 -0.25868475217E+03 -0.13595197007E+04  0.13841902706E+04  0.00000000000E+00 0. -1.
         21    1    1    2  502  501  0.49056041885E+02  0.45149771820E+02 -0.72751636530E+02  0.98680280495E+02  0.00000000000E+00 0.  1.
<scales pt_clust_5="13000.00000" pt_clust_6="13000.00000" pt_clust_7="13000.00000" pt_clust_8="13000.00000" pt_clust_9="66.67081"></scales>
<clustering>
<clus scale="   66.671">  1  9  2 -1</clus>
<clus scale="   79.566">  5  6 -1 -1</clus>
<clus scale="   90.021">  7  8 -1 -1</clus>
<clus scale="  418.494">  1  5  2 -1</clus>
<clus scale="  420.607">  2  5  1 -1</clus>
</clustering>
</event>
<event>
 9    2  0.5608219E-005  0.1174214E+03  0.7546771E-02  0.1248252E+00
          2   -1    0    0  502    0  0.00000000000E+00  0.00000000000E+00  0.18869898076E+03  0.18869898076E+03  0.00000000000E+00 0. -1.
         -1   -1    0    0    0  501 -0.00000000000E+00 -0.00000000000E+00 -0.20675105585E+03  0.20675105585E+03  0.00000000000E+00 0.  1.
         24    2    1    2    0    0  0.38366476249E+02  0.37834128642E+02 -0.12109028856E+03  0.15798858247E+03  0.85989106382E+02 0.  0.
         23    2    1    2    0    0 -0.49769431545E+02 -0.63538872194E+02  0.14426634881E+03  0.18755634043E+03  0.88602578057E+02 0.  0.
        -11    1    3    3    0    0  0.48838536018E+01  0.47026184270E+02 -0.20423014129E+02  0.51501587733E+02  0.00000000000E+00 0.  1.
         12    1    3    3    0    0  0.33482622647E+02 -0.91920556271E+01 -0.10066727443E+03  0.10648699473E+03  0.00000000000E+00 0. -1.
        -13    1    4    4    0    0 -0.19820891018E+02 -0.42510084790E+02  0.94299743368E+01  0.47842443976E+02  0.00000000000E+00 0.  1.
         13    1    4    4    0    0 -0.29948540527E+02 -0.21028787404E+02  0.13483637448E+03  0.13971389645E+03  0.00000000000E+00 0. -1.
         21    1    1    2  502  501  0.11402955296E+02  0.25704743552E+02 -0.41228135352E+02  0.49905113717E+02  0.00000000000E+00 0.  1.
<scales pt_clust_5="13000.00000" pt_clust_6="13000.00000" pt_clust_7="13000.00000" pt_clust_8="13000.00000" pt_clust_9="28.12048"></scales>
<clustering>
<clus scale="   28.120">  2  9  1 -1</clus>
<clus scale="   85.989">  5  6 -1 -1</clus>
<clus scale="   88.603">  7  8 -1 -1</clus>
<clus scale="  115.462">  2  5  1 -1</clus>
<clus scale="  117.421">  1  5  2 -1</clus>
</clustering>
</event>
<event>
 9    2  0.5608219E-005  0.9676610E+02  0.7546771E-02  0.1290540E+00
         -1   -1    0    0    0  501 -0.00000000000E+00  0.00000000000E+00  0.26991384923E+02  0.26991384923E+02  0.00000000000E+00 0.  1.
          2   -1    0    0  502    0  0.00000000000E+00 -0.00000000000E+00 -0.67285380523E+03  0.67285380523E+03  0.00000000000E+00 0. -1.
         24    2    1    2    0    0  0.62160333164E+02  0.28519667744E+02 -0.31723248898E+03  0.33436354146E+03  0.80531033299E+02 0.  0.
         23    2    1    2    0    0 -0.69752802724E+01 -0.25495588899E+02 -0.27000442692E+03  0.28491189703E+03  0.87027116053E+02 0.  0.
        -13    1    3    3    0    0  0.40456432345E+02  0.26282126040E+02 -0.63766820606E+02  0.79960493229E+02  0.00000000000E+00 0.  1.
         14    1    3    3    0    0  0.21703900819E+02  0.22375417041E+01 -0.25346566837E+03  0.25440304823E+03  0.00000000000E+00 0. -1.
        -11    1    4    4    0    0 -0.44166207537E+02 -0.26040158510E+02 -0.12264096310E+03  0.13292685798E+03  0.00000000000E+00 0.  1.
         11    1    4    4    0    0  0.37190927264E+02  0.54456961173E+00 -0.14736346382E+03  0.15198503905E+03  0.00000000000E+00 0. -1.
         21    1    1    2  502  501 -0.55185052891E+02 -0.30240788452E+01 -0.58625504410E+02  0.80569751662E+02  0.00000000000E+00 0.  1.
<scales pt_clust_5="13000.00000" pt_clust_6="13000.00000" pt_clust_7="13000.00000" pt_clust_8="13000.00000" pt_clust_9="55.26785"></scales>
<clustering>
<clus scale="   55.268">  1  9  2 -1</clus>
<clus scale="   80.531">  5  6 -1 -1</clus>
<clus scale="   87.027">  7  8 -1 -1</clus>
<clus scale="   90.968">  1  5  2 -1</clus>
<clus scale="   96.766">  2  5  1 -1</clus>
</clustering>
</event>
<event>
 9    2  0.5608219E-005  0.1115519E+03  0.7546771E-02  0.1261885E+00
          2   -1    0    0  502    0  0.00000000000E+00  0.00000000000E+00  0.11691945755E+04  0.11691945755E+04  0.00000000000E+00 0. -1.
         -1   -1    0    0    0  501 -0.00000000000E+00 -0.00000000000E+00 -0.19880593978E+02  0.19880593978E+02  0.00000000000E+00 0.  1.
         23    2    1    2    0    0  0.31635452702E+02 -0.29545928913E+02  0.22865969724E+03  0.25029667702E+03  0.92137970452E+02 0.  0.
         24    2    1    2    0    0 -0.68517395161E+02  0.16370210680E+02  0.85917644549E+03  0.86588540711E+03  0.81306558925E+02 0.  0.
        -13    1    4    4    0    0  0.22543657912E+01  0.22145911849E+02  0.68483226022E+02  0.72010248042E+02  0.00000000000E+00 0.  1.
         14    1    4    4    0    0 -0.70771760952E+02 -0.57757011686E+01  0.79069321947E+03  0.79387515907E+03  0.00000000000E+00 0. -1.
        -11    1    3    3    0    0  0.38698782000E+02  0.10970724222E+02  0.38288141756E+02  0.55533182129E+02  0.00000000000E+00 0. -1.
         11    1    3    3    0    0 -0.70633292988E+01 -0.40516653134E+02  0.19037155549E+03  0.19476349489E+03  0.00000000000E+00 0.  1.
         21    1    1    2  502  501  0.36881942459E+02  0.13175718232E+02  0.61477838812E+02  0.72893085375E+02  0.00000000000E+00 0.  1.
<scales pt_clust_5="13000.00000" pt_clust_6="13000.00000" pt_clust_7="13000.00000" pt_clust_8="13000.00000" pt_clust_9="39.16474"></scales>
<clustering>
<clus scale="   39.165">  2  9  1 -1</clus>
<clus scale="   81.307">  5  6 -1 -1</clus>
<clus scale="   92.138">  7  8 -1 -1</clus>
<clus scale="  102.787">  1  5  2 -1</clus>
<clus scale="  102.787">  1  5  2 -1</clus>
</clustering>
</event>
<event>
 9    2  0.5608219E-005  0.1218179E+03  0.7546771E-02  0.1243723E+00
          2   -1    0    0  502    0  0.00000000000E+00  0.00000000000E+00  0.36669817027E+03  0.36669817027E+03  0.00000000000E+00 0. -1.
         -1   -1    0    0    0  501 -0.00000000000E+00 -0.00000000000E+00 -0.83013891221E+02  0.83013891221E+02  0.00000000000E+00 0.  1.
         24    2    1    2    0    0  0.44414873977E+02  0.68837079716E+02  0.12580983575E+02  0.11437605767E+03  0.78818632603E+02 0.  0.
         23    2    1    2    0    0 -0.15171620347E+02 -0.81032713066E+02  0.27718903276E+03  0.30307243995E+03  0.90678913335E+02 0.  0.
        -13    1    3    3    0    0 -0.17118141249E+02  0.43824722884E+02  0.17940015046E+01  0.47083495378E+02  0.00000000000E+00 0.  1.
         14    1    3    3    0    0  0.61533015226E+02  0.25012356832E+02  0.10786982070E+02  0.67292562288E+02  0.00000000000E+00 0. -1.
        -11    1    4    4    0    0  0.23315316232E+02 -0.35477490315E+02  0.39399731338E+02  0.57918866698E+02  0.00000000000E+00 0.  1.
         11    1    4    4    0    0 -0.38486936579E+02 -0.45555222751E+02  0.23778930143E+03  0.24515357325E+03  0.00000000000E+00 0. -1.
         21    1    1    2  502  501 -0.29243253631E+02  0.12195633350E+02 -0.60857372852E+01  0.32263563877E+02  0.00000000000E+00 0. -1.
<scales pt_clust_5="13000.00000" pt_clust_6="13000.00000" pt_clust_7="13000.00000" pt_clust_8="13000.00000" pt_clust_9="31.68440"></scales>
<clustering>
<clus scale="   31.684">  2  9  1 -1</clus>
<clus scale="   78.819">  5  6 -1 -1</clus>
<clus scale="   90.679">  7  8 -1 -1</clus>
<clus scale="  113.267">  2  5  1 -1</clus>
<clus scale="  121.818">  1  5  2 -1</clus>
</clustering>
</event>
<event>
 9    2  0.5608219E-005  0.1389783E+03  0.7546771E-02  0.1231892E+00
         -1   -1    0    0    0  501 -0.00000000000E+00  0.00000000000E+00  0.19433465955E+03  0.19433465955E+03  0.00000000000E+00 0.  1.
          2   -1    0    0  502    0  0.00000000000E+00 -0.00000000000E+00 -0.23400308338E+03  0.23400308338E+03  0.00000000000E+00 0. -1.
         23    2    1    2    0    0 -0.87526009021E+02 -0.50426042615E+02  0.10900226025E+03  0.17765861307E+03  0.97352462890E+02 0.  0.
         24    2    1    2    0    0  0.35542390315E+02 -0.39627848905E+02 -0.60838889803E+02  0.11456732259E+03  0.81182959885E+02 0.  0.
        -11    1    4    4    0    0 -0.18021415228E+02 -0.26739179530E+02  0.32851700861E+00  0.32246907637E+02  0.00000000000E+00 0.  1.
         12    1    4    4    0    0  0.53563805543E+02 -0.12888669375E+02 -0.61167406812E+02  0.82320414957E+02  0.00000000000E+00 0. -1.
        -11    1    3    3    0    0 -0.35222268244E+02  0.25742696112E+02  0.56510165026E+02  0.71391129243E+02  0.00000000000E+00 0.  1.
         11    1    3    3    0    0 -0.52303740777E+02 -0.76168738727E+02  0.52492095223E+02  0.10626748383E+03  0.00000000000E+00 0. -1.
         21    1    1    2  502  501  0.51983618705E+02  0.90053891519E+02 -0.87831794274E+02  0.13611180726E+03  0.00000000000E+00 0. -1.
<scales pt_clust_5="13000.00000" pt_clust_6="13000.00000" pt_clust_7="13000.00000" pt_clust_8="13000.00000" pt_clust_9="99.18402"></scales>
<clustering>
<clus scale="   81.183">  5  6 -1 -1</clus>
<clus scale="   97.079">  2  5  1 -1</clus>
<clus scale="   97.352">  7  8 -1 -1</clus>
<clus scale="   99.184">  2  9  1 -1</clus>
<clus scale="   97.079">  2  5  1 -1</clus>
</clustering>
</event>
<event>
 9    2  0.5608219E-005  0.1807671E+03  0.7546771E-02  0.1169954E+00
          2   -1    0    0  502    0  0.00000000000E+00  0.00000000000E+00  0.67599954166E+03  0.67599954166E+03  0.00000000000E+00 0. -1.
         -1   -1    0    0    0  501 -0.00000000000E+00 -0.00000000000E+00 -0.82806832691E+02  0.82806832691E+02  0.00000000000E+00 0.  1.
         23    2    1    2    0    0  0.82861268232E+02  0.10646640957E+03  0.16121106866E+03  0.23356200762E+03  0.10178957023E+03 0.  0.
         24    2    1    2    0    0 -0.10352161771E+03 -0.11661053103E+03  0.45813015484E+03  0.49040906777E+03  0.79391899442E+02 0.  0.
        -11    1    4    4    0    0 -0.28567755072E+02 -0.88601139363E+02  0.28165626190E+03  0.29664208803E+03  0.00000000000E+00 0.  1.
         12    1    4    4    0    0 -0.74953862642E+02 -0.28009391663E+02  0.17647389295E+03  0.19376697974E+03  0.00000000000E+00 0. -1.
        -13    1    3    3    0    0  0.71865963352E+02  0.12396063171E+03  0.11783389932E+03  0.18551491242E+03  0.00000000000E+00 0.  1.
         13    1    3    3    0    0  0.10995304880E+02 -0.17494222135E+02  0.43377169340E+02  0.48047095203E+02  0.00000000000E+00 0. -1.
         21    1    1    2  502  501  0.20660349482E+02  0.10144121453E+02 -0.26148514535E+02  0.34835298953E+02  0.00000000000E+00 0.  1.
<scales pt_clust_5="13000.00000" pt_clust_6="13000.00000" pt_clust_7="13000.00000" pt_clust_8="13000.00000" pt_clust_9="23.01637"></scales>
<clustering>
<clus scale="   23.016">  2  9  1 -1</clus>
<clus scale="   79.392">  5  6 -1 -1</clus>
<clus scale="  101.790">  7  8 -1 -1</clus>
<clus scale="  169.171">  1  5  2 -1</clus>
<clus scale="  169.171">  1  5  2 -1</clus>
</clustering>
</event>
<event>
 9    2  0.5608219E-005  0.1066954E+03  0.7546771E-02  0.1273260E+00
         -1   -1    0    0    0  501 -0.00000000000E+00  0.00000000000E+00  0.12320383765E+03  0.12320383765E+03  0.00000000000E+00 0.  1.
          2   -1    0    0  502    0  0.00000000000E+00 -0.00000000000E+00 -0.19243953044E+03  0.19243953044E+03  0.00000000000E+00 0. -1.
         23    2    1    2    0    0  0.63848182583E+02 -0.11879434634E+02  0.56100762335E+02  0.12772657187E+03  0.94599525579E+02 0.  0.
         24    2    1    2    0    0 -0.47046513312E+02 -0.85549327334E-01 -0.13594865589E+03  0.16472033666E+03  0.80233225881E+02 0.  0.
        -13    1    4    4    0    0 -0.63097180696E+01 -0.23939805648E+02 -0.46462461934E+01  0.25189570069E+02  0.00000000000E+00 0.  1.
         14    1    4    4    0    0 -0.40736795243E+02  0.23854256321E+02 -0.13130240970E+03  0.13953076659E+03  0.00000000000E+00 0. -1.
        -13    1    3    3    0    0  0.25117988477E+02 -0.81360481237E+01  0.78505554432E+02  0.82826509651E+02  0.00000000000E+00 0.  1.
         13    1    3    3    0    0  0.38730194105E+02 -0.37433865101E+01 -0.22404792097E+02  0.44900062215E+02  0.00000000000E+00 0. -1.
         21    1    1    2  502  501 -0.16801669270E+02  0.11964983961E+02  0.10612200767E+02  0.23196459570E+02  0.00000000000E+00 0. -1.
<scales pt_clust_5="13000.00000" pt_clust_6="13000.00000" pt_clust_7="13000.00000" pt_clust_8="13000.00000" pt_clust_9="20.62661"></scales>
<clustering>
<clus scale="   20.627">  1  9  2 -1</clus>
<clus scale="   80.233">  5  6 -1 -1</clus>
<clus scale="   94.192">  2  5  1 -1</clus>
<clus scale="   94.600">  7  8 -1 -1</clus>
<clus scale="   94.192">  2  5  1 -1</clus>
</clustering>
</event>
<event>
 9    2  0.5608219E-005  0.1302890E+03  0.7546771E-02  0.1230255E+00
         -1   -1    0    0    0  501 -0.00000000000E+00  0.00000000000E+00  0.84985777961E+02  0.84985777961E+02  0.00000000000E+00 0.  1.
          2   -1    0    0  502    0  0.00000000000E+00 -0.00000000000E+00 -0.75956421803E+03  0.75956421803E+03  0.00000000000E+00 0. -1.
         23    2    1    2    0    0 -0.19112826305E+01  0.10716574535E+03 -0.16755309525E+03  0.21886125782E+03  0.91312980847E+02 0.  0.
         24    2    1    2    0    0  0.75779378135E+02 -0.61357383161E+02 -0.52255938205E+03  0.53739260070E+03  0.78836900639E+02 0.  0.
        -11    1    4    4    0    0  0.12700627213E+02 -0.60894003957E+02 -0.24848556317E+03  0.25615319782E+03  0.00000000000E+00 0.  1.
         12    1    4    4    0    0  0.63078750922E+02 -0.46337920403E+00 -0.27407381888E+03  0.28123940288E+03  0.00000000000E+00 0. -1.
        -13    1    3    3    0    0 -0.30257561039E+02  0.46135938867E+02 -0.23700852126E+02  0.60048107769E+02  0.00000000000E+00 0.  1.
         13    1    3    3    0    0  0.28346278408E+02  0.61029806482E+02 -0.14385224312E+03  0.15881315005E+03  0.00000000000E+00 0. -1.
         21    1    1    2  502  501 -0.73868095505E+02 -0.45808362188E+02  0.15534037224E+02  0.88296137471E+02  0.00000000000E+00 0. -1.
<scales pt_clust_5="13000.00000" pt_clust_6="13000.00000" pt_clust_7="13000.00000" pt_clust_8="13000.00000" pt_clust_9="86.91894"></scales>
<clustering>
<clus scale="   78.837">  5  6 -1 -1</clus>
<clus scale="   86.919">  1  9  2 -1</clus>
<clus scale="   91.313">  7  8 -1 -1</clus>
<clus scale="  121.871">  2  5  1 -1</clus>
<clus scale="  121.871">  2  5  1 -1</clus>
</clustering>
</event>
<event>
 9    2  0.6118121E-004  0.1013395E+03  0.7546771E-02  0.1282241E+00
         -1   -1    0    0    0  501 -0.00000000000E+00  0.00000000000E+00  0.43200558037E+03  0.43200558037E+03  0.00000000000E+00 0.  1.
          2   -1    0    0  502    0  0.00000000000E+00 -0.00000000000E+00 -0.54951833033E+03  0.54951833033E+03  0.00000000000E+00 0. -1.
         24    2    1    2    0    0  0.17427656585E+02  0.85721385301E+02  0.38972342887E+03  0.40754870972E+03  0.80992102559E+02 0.  0.
         23    2    1    2    0    0 -0.14691440195E+01 -0.44363460891E+02 -0.51847467115E+03  0.52824276452E+03  0.90852400067E+02 0.  0.
        -13    1    3    3    0    0  0.20382124201E+02  0.88800803680E+02  0.39218036811E+03  0.40262445883E+03  0.00000000000E+00 0.  1.
         14    1    3    3    0    0 -0.29544676153E+01 -0.30794183790E+01 -0.24569392376E+01  0.49242508933E+01  0.00000000000E+00 0. -1.
        -13    1    4    4    0    0 -0.18094005826E+02  0.24322618080E+02 -0.14355065389E+03  0.14671664196E+03  0.00000000000E+00 0.  1.
         13    1    4    4    0    0  0.16624861806E+02 -0.68686078970E+02 -0.37492401726E+03  0.38152612256E+03  0.00000000000E+00 0. -1.
         21    1    1    2  502  501 -0.15958512566E+02 -0.41357924410E+02  0.11238492318E+02  0.45732436458E+02  0.00000000000E+00 0. -1.
<scales pt_clust_5="13000.00000" pt_clust_6="13000.00000" pt_clust_7="13000.00000" pt_clust_8="13000.00000" pt_clust_9="44.33004"></scales>
<clustering>
<clus scale="   44.330">  1  9  2 -1</clus>
<clus scale="   80.992">  5  6 -1 -1</clus>
<clus scale="   90.852">  7  8 -1 -1</clus>
<clus scale="   92.603">  1  5  2 -1</clus>
<clus scale="  101.340">  2  5  1 -1</clus>
</clustering>
</event>
<event>
 9    2  0.5608219E-005  0.1066839E+03  0.7546771E-02  0.1275975E+00
          2   -1    0    0  502    0  0.00000000000E+00  0.00000000000E+00  0.29413971190E+03  0.29413971190E+03  0.00000000000E+00 0. -1.
         -1   -1    0    0    0  501 -0.00000000000E+00 -0.00000000000E+00 -0.97481887959E+02  0.97481887959E+02  0.00000000000E+00 0.  1.
         23    2    1    2    0    0 -0.35129992089E+02 -0.61736691909E+02  0.55530424442E+02  0.12988434846E+03  0.93492141183E+02 0.  0.
         24    2    1    2    0    0  0.48073902708E+02  0.13913104258E+02  0.17874407037E+03  0.19953070604E+03  0.73200992935E+02 0.  0.
        -13    1    4    4    0    0  0.63828661586E+02  0.16294700868E+02  0.16761392518E+03  0.18009453971E+03  0.00000000000E+00 0.  1.
         14    1    4    4    0    0 -0.15754758879E+02 -0.23815966106E+01  0.11130145189E+02  0.19436166331E+02  0.00000000000E+00 0. -1.
        -13    1    3    3    0    0 -0.15390957131E+02 -0.81042069825E+02  0.19987797665E+02  0.84877621895E+02  0.00000000000E+00 0.  1.
         13    1    3    3    0    0 -0.19739034958E+02  0.19305377916E+02  0.35542626776E+02  0.45006726561E+02  0.00000000000E+00 0. -1.
         21    1    1    2  502  501 -0.12943910619E+02  0.47823587651E+02 -0.37616670878E+02  0.62206545362E+02  0.00000000000E+00 0.  1.
<scales pt_clust_5="13000.00000" pt_clust_6="13000.00000" pt_clust_7="13000.00000" pt_clust_8="13000.00000" pt_clust_9="49.54433"></scales>
<clustering>
<clus scale="   49.544">  2  9  1 -1</clus>
<clus scale="   73.201">  5  6 -1 -1</clus>
<clus scale="   89.438">  1  5  2 -1</clus>
<clus scale="   93.492">  7  8 -1 -1</clus>
<clus scale="   89.438">  1  5  2 -1</clus>
</clustering>
</event>
<event>
 9    2  0.5608219E-005  0.1566865E+03  0.7546771E-02  0.1194289E+00
         -1   -1    0    0    0  501 -0.00000000000E+00  0.00000000000E+00  0.10194912030E+04  0.10194912030E+04  0.00000000000E+00 0.  1.
          2   -1    0    0  502    0  0.00000000000E+00 -0.00000000000E+00 -0.32676505021E+02  0.32676505021E+02  0.00000000000E+00 0. -1.
         23    2    1    2    0    0 -0.32535097285E+02 -0.14008554070E+03  0.47602200282E+03  0.50555222521E+03  0.91124167886E+02 0.  0.
         24    2    1    2    0    0 -0.15085803454E+00  0.11825799279E+03  0.30135315465E+03  0.33351988302E+03  0.80229750937E+02 0.  0.
        -11    1    4    4    0    0 -0.15097293652E+01  0.12508156651E+03  0.30164748741E+03  0.32655609660E+03  0.00000000000E+00 0.  1.
         12    1    4    4    0    0  0.13588713306E+01 -0.68235737162E+01 -0.29433276375E+00  0.69637864219E+01  0.00000000000E+00 0. -1.
        -11    1    3    3    0    0  0.23089669583E+02 -0.96350014330E+02  0.29490635349E+03  0.31110483030E+03  0.00000000000E+00 0. -1.
         11    1    3    3    0    0 -0.55624766868E+02 -0.43735526370E+02  0.18111564933E+03  0.19444739491E+03  0.00000000000E+00 0.  1.
         21    1    1    2  502  501  0.32685955320E+02  0.21827547906E+02  0.20943954048E+03  0.21309559976E+03  0.00000000000E+00 0. -1.
<scales pt_clust_5="13000.00000" pt_clust_6="13000.00000" pt_clust_7="13000.00000" pt_clust_8="13000.00000" pt_clust_9="39.30412"></scales>
<clustering>
<clus scale="   39.304">  1  9  2 -1</clus>
<clus scale="   80.230">  5  6 -1 -1</clus>
<clus scale="   91.124">  7  8 -1 -1</clus>
<clus scale="  150.612">  2  5  1 -1</clus>
<clus scale="  150.612">  2  5  1 -1</clus>
</clustering>
</event>
<event>
 9    2  0.5608219E-005  0.9916760E+02  0.7546771E-02  0.1289433E+00
          2   -1    0    0  502    0  0.00000000000E+00  0.00000000000E+00  0.24460395382E+03  0.24460395382E+03  0.00000000000E+00 0. -1.
         -1   -1    0    0    0  501 -0.00000000000E+00 -0.00000000000E+00 -0.57768470353E+02  0.57768470353E+02  0.00000000000E+00 0.  1.
         24    2    1    2    0    0 -0.23452365906E+02  0.32186027442E+02  0.18427239787E+02  0.88795176864E+02  0.77194989727E+02 0.  0.
         23    2    1    2    0    0  0.37448050394E+02 -0.13993119655E+02  0.16113399796E+03  0.18949871478E+03  0.91364291320E+02 0.  0.
        -11    1    3    3    0    0 -0.26884089013E+02  0.17398693810E+02 -0.26378013923E+02  0.41488171891E+02  0.00000000000E+00 0.  1.
         12    1    3    3    0    0  0.34317231068E+01  0.14787333632E+02  0.44805253710E+02  0.47307004972E+02  0.00000000000E+00 0. -1.
        -13    1    4    4    0    0  0.20265837457E+02  0.39016602666E+02  0.68512364867E+02  0.81406041490E+02  0.00000000000E+00 0. -1.
         13    1    4    4    0    0  0.17182212937E+02 -0.53009722321E+02  0.92621633096E+02  0.10809267329E+03  0.00000000000E+00 0.  1.
         21    1    1    2  502  501 -0.13995684488E+02 -0.18192907787E+02  0.72742457208E+01  0.24078532531E+02  0.00000000000E+00 0. -1.
<scales pt_clust_5="13000.00000" pt_clust_6="13000.00000" pt_clust_7="13000.00000" pt_clust_8="13000.00000" pt_clust_9="22.95345"></scales>
<clustering>
<clus scale="   22.953">  2  9  1 -1</clus>
<clus scale="   77.195">  5  6 -1 -1</clus>
<clus scale="   86.289">  2  5  1 -1</clus>
<clus scale="   91.364">  7  8 -1 -1</clus>
<clus scale="   99.168">  1  5  2 -1</clus>
</clustering>
</event>
<event>
 9    2  0.5608219E-005  0.9658413E+02  0.7546771E-02  0.1297685E+00
         -3   -1    0    0    0  501 -0.00000000000E+00  0.00000000000E+00  0.45820967726E+02  0.45820967726E+02  0.00000000000E+00 0.  1.
          4   -1    0    0  502    0  0.00000000000E+00 -0.00000000000E+00 -0.50140765856E+03  0.50140765856E+03  0.00000000000E+00 0. -1.
         23    2    1    2    0    0 -0.55884516104E+01  0.10392189245E+02 -0.18434582462E+02  0.94076404932E+02  0.91494850924E+02 0.  0.
         24    2    1    2    0    0  0.14866604881E+02 -0.29371217632E+02 -0.41393394864E+03  0.42176160830E+03  0.73877303904E+02 0.  0.
        -13    1    4    4    0    0  0.37807093639E+01  0.20757239044E+02 -0.50662479589E+02  0.54880265799E+02  0.00000000000E+00 0.  1.
         14    1    4    4    0    0  0.11085895517E+02 -0.50128456677E+02 -0.36327146905E+03  0.36688134250E+03  0.00000000000E+00 0. -1.
        -11    1    3    3    0    0 -0.24812196967E+02  0.43013491162E+02  0.44136092190E+01  0.49852637709E+02  0.00000000000E+00 0.  1.
         11    1    3    3    0    0  0.19223745357E+02 -0.32621301917E+02 -0.22848191681E+02  0.44223767223E+02  0.00000000000E+00 0. -1.
         21    1    1    2  502  501 -0.92781532709E+01  0.18979028388E+02 -0.23218159732E+02  0.31390613056E+02  0.00000000000E+00 0.  1.
<scales pt_clust_5="13000.00000" pt_clust_6="13000.00000" pt_clust_7="13000.00000" pt_clust_8="13000.00000" pt_clust_9="21.12552"></scales>
<clustering>
<clus scale="   21.126">  1  9  2 -1</clus>
<clus scale="   73.877">  5  6 -1 -1</clus>
<clus scale="   80.094">  2  5  1 -1</clus>
<clus scale="   91.495">  7  8 -1 -1</clus>
<clus scale="   80.094">  2  5  1 -1</clus>
</clustering>
</event>
<event>
 9    2  0.5608219E-005  0.2663148E+03  0.7546771E-02  0.1103863E+00
          4   -1    0    0  502    0  0.00000000000E+00  0.00000000000E+00  0.24631300787E+03  0.24631300787E+03  0.00000000000E+00 0. -1.
         -3   -1    0    0    0  501 -0.00000000000E+00 -0.00000000000E+00 -0.43941231438E+03  0.43941231438E+03  0.00000000000E+00 0.  1.
         24    2    1    2    0    0  0.25397828317E+03 -0.28747094031E+02 -0.25889391501E+03  0.37220870467E+03  0.78625039681E+02 0.  0.
         23    2    1    2    0    0 -0.25012890751E+03  0.30805330938E+01  0.87807686982E+02  0.27948478443E+03  0.88473695397E+02 0.  0.
        -11    1    3    3    0    0  0.25327836150E+03 -0.26004928413E+02 -0.26374707611E+03  0.36659065027E+03  0.00000000000E+00 0.  1.
         12    1    3    3    0    0  0.69992166868E+00 -0.27421656177E+01  0.48531610990E+01  0.56180544026E+01  0.00000000000E+00 0. -1.
        -13    1    4    4    0    0 -0.12712738564E+03  0.40481410895E+02  0.66841539731E+02  0.14922435539E+03  0.00000000000E+00 0. -1.
         13    1    4    4    0    0 -0.12300152187E+03 -0.37400877801E+02  0.20966147252E+02  0.13026042904E+03  0.00000000000E+00 0.  1.
         21    1    1    2  502  501 -0.38493756566E+01  0.25666560937E+02 -0.22013078479E+02  0.34031833147E+02  0.00000000000E+00 0.  1.
<scales pt_clust_5="13000.00000" pt_clust_6="13000.00000" pt_clust_7="13000.00000" pt_clust_8="13000.00000" pt_clust_9="25.95361"></scales>
<clustering>
<clus scale="   25.954">  2  9  1 -1</clus>
<clus scale="   78.625">  5  6 -1 -1</clus>
<clus scale="   88.474">  7  8 -1 -1</clus>
<clus scale="  263.207">  2  5  1 -1</clus>
<clus scale="  266.315">  1  5  2 -1</clus>
</clustering>
</event>
<event>
 9    2  0.5608219E-005  0.9899924E+02  0.7546771E-02  0.1287861E+00
         -1   -1    0    0    0  501 -0.00000000000E+00  0.00000000000E+00  0.42917675642E+02  0.42917675642E+02  0.00000000000E+00 0.  1.
          2   -1    0    0  502    0  0.00000000000E+00 -0.00000000000E+00 -0.52330504375E+03  0.52330504375E+03  0.00000000000E+00 0. -1.
         23    2    1    2    0    0 -0.31717292339E+02 -0.26707595465E+02 -0.15850742890E+03  0.18752633332E+03  0.91226303123E+02 0.  0.
         24    2    1    2    0    0  0.40314308866E+02 -0.24782466406E+02 -0.31181952831E+03  0.32553298671E+03  0.80628115834E+02 0.  0.
        -11    1    4    4    0    0  0.20477235897E+02  0.29315563480E+02 -0.11181877637E+03  0.11739743694E+03  0.00000000000E+00 0.  1.
         12    1    4    4    0    0  0.19837072969E+02 -0.54098029886E+02 -0.20000075194E+03  0.20813554977E+03  0.00000000000E+00 0. -1.
        -13    1    3    3    0    0 -0.23926446644E+02  0.32472202905E+02 -0.58432930407E+02  0.71002296910E+02  0.00000000000E+00 0.  1.
         13    1    3    3    0    0 -0.77908456950E+01 -0.59179798370E+02 -0.10007449850E+03  0.11652403641E+03  0.00000000000E+00 0. -1.
         21    1    1    2  502  501 -0.85970165269E+01  0.51490061871E+02 -0.10060410900E+02  0.53163399365E+02  0.00000000000E+00 0.  1.
<scales pt_clust_5="13000.00000" pt_clust_6="13000.00000" pt_clust_7="13000.00000" pt_clust_8="13000.00000" pt_clust_9="52.20283"></scales>
<clustering>
<clus scale="   52.203">  1  9  2 -1</clus>
<clus scale="   80.628">  5  6 -1 -1</clus>
<clus scale="   89.328">  2  5  1 -1</clus>
<clus scale="   91.226">  7  8 -1 -1</clus>
<clus scale="   89.328">  2  5  1 -1</clus>
</clustering>
</event>
<event>
 9    2  0.5608219E-005  0.1367761E+03  0.7546771E-02  0.1218569E+00
         -1   -1    0    0    0  501 -0.00000000000E+00  0.00000000000E+00  0.12017137154E+03  0.12017137154E+03  0.00000000000E+00 0.  1.
          2   -1    0    0  502    0  0.00000000000E+00 -0.00000000000E+00 -0.67944926858E+03  0.67944926858E+03  0.00000000000E+00 0. -1.
         24    2    1    2    0    0 -0.94502661122E+02 -0.11156271891E+02 -0.55953665015E+02  0.14166312498E+03  0.88782954382E+02 0.  0.
         23    2    1    2    0    0  0.10140601247E+03 -0.15194967125E+02 -0.56971805373E+03  0.58619273534E+03  0.92353645446E+02 0.  0.
        -11    1    3    3    0    0 -0.10027252313E+03  0.19255304765E+01 -0.19046884399E+02  0.10208364398E+03  0.00000000000E+00 0.  1.
         12    1    3    3    0    0  0.57698620098E+01 -0.13081802368E+02 -0.36906780617E+02  0.39579481001E+02  0.00000000000E+00 0. -1.
        -13    1    4    4    0    0  0.24996846594E+02  0.37554772275E+02 -0.19256848359E+03  0.19778226445E+03  0.00000000000E+00 0.  1.
         13    1    4    4    0    0  0.76409165873E+02 -0.52749739400E+02 -0.37714957014E+03  0.38841047089E+03  0.00000000000E+00 0. -1.
         21    1    1    2  502  501 -0.69033513456E+01  0.26351239016E+02  0.66393821708E+02  0.71764779791E+02  0.00000000000E+00 0.  1.
<scales pt_clust_5="13000.00000" pt_clust_6="13000.00000" pt_clust_7="13000.00000" pt_clust_8="13000.00000" pt_clust_9="27.24049"></scales>
<clustering>
<clus scale="   27.240">  1  9  2 -1</clus>
<clus scale="   88.783">  5  6 -1 -1</clus>
<clus scale="   92.354">  7  8 -1 -1</clus>
<clus scale="  134.391">  1  5  2 -1</clus>
<clus scale="  136.776">  2  5  1 -1</clus>
</clustering>
</event>
<event>
 9    2  0.5608219E-005  0.1078973E+03  0.7546771E-02  0.1265039E+00
          2   -1    0    0  502    0  0.00000000000E+00  0.00000000000E+00  0.28721242599E+03  0.28721242599E+03  0.00000000000E+00 0. -1.
         -1   -1    0    0    0  501 -0.00000000000E+00 -0.00000000000E+00 -0.40838299436E+03  0.40838299436E+03  0.00000000000E+00 0.  1.
         23    2    1    2    0    0 -0.11122458227E+02 -0.77024912907E+02 -0.27593357138E+03  0.29824815772E+03  0.82195386002E+02 0.  0.
         24    2    1    2    0    0  0.47550025357E+02  0.51495656061E+02  0.26106511134E+03  0.28211337510E+03  0.80747486333E+02 0.  0.
        -13    1    4    4    0    0  0.45154994759E+02  0.35577817741E+02  0.70941948140E+02  0.91309992185E+02  0.00000000000E+00 0.  1.
         14    1    4    4    0    0  0.23950305981E+01  0.15917838320E+02  0.19012316320E+03  0.19080338292E+03  0.00000000000E+00 0. -1.
        -11    1    3    3    0    0  0.18505799494E+02 -0.45752250404E+02 -0.23015595182E+03  0.23538796738E+03  0.00000000000E+00 0.  1.
         11    1    3    3    0    0 -0.29628257721E+02 -0.31272662504E+02 -0.45777619564E+02  0.62860190332E+02  0.00000000000E+00 0. -1.
         21    1    1    2  502  501 -0.36427567130E+02  0.25529256847E+02 -0.10630210832E+03  0.11523388753E+03  0.00000000000E+00 0.  1.
<scales pt_clust_5="13000.00000" pt_clust_6="13000.00000" pt_clust_7="13000.00000" pt_clust_8="13000.00000" pt_clust_9="44.48270"></scales>
<clustering>
<clus scale="   44.483">  2  9  1 -1</clus>
<clus scale="   80.747">  5  6 -1 -1</clus>
<clus scale="   82.195">  7  8 -1 -1</clus>
<clus scale="  106.798">  1  5  2 -1</clus>
<clus scale="  106.798">  1  5  2 -1</clus>
</clustering>
</event>
<event>
 9    2  0.5608219E-005  0.1153333E+03  0.7546771E-02  0.1253973E+00
         -1   -1    0    0    0  501 -0.00000000000E+00  0.00000000000E+00  0.68617640344E+02  0.68617640344E+02  0.00000000000E+00 0.  1.
          2   -1    0    0  502    0  0.00000000000E+00 -0.00000000000E+00 -0.66716444800E+03  0.66716444800E+03  0.00000000000E+00 0. -1.
         23    2    1    2    0    0 -0.46037062321E+02  0.56430505975E+02 -0.77987456516E+01  0.11857516177E+03  0.93249318726E+02 0.  0.
         24    2    1    2    0    0  0.65565787261E+02  0.10610954081E+02 -0.39171383763E+03  0.40627909309E+03  0.84920586964E+02 0.  0.
        -13    1    4    4    0    0  0.64090564332E+02 -0.22850199220E+02 -0.19028159475E+03  0.20208121472E+03  0.00000000000E+00 0.  1.
         14    1    4    4    0    0  0.14752229290E+01  0.33461153301E+02 -0.20143224287E+03  0.20419787837E+03  0.00000000000E+00 0. -1.
        -11    1    3    3    0    0 -0.33081344844E+02  0.15177699913E+02  0.40026969793E+02  0.54100797242E+02  0.00000000000E+00 0. -1.
         11    1    3    3    0    0 -0.12955717477E+02  0.41252806062E+02 -0.47825715445E+02  0.64474364527E+02  0.00000000000E+00 0.  1.
         21    1    1    2  502  501 -0.19528724940E+02 -0.67041460056E+02 -0.19903422438E+03  0.21092783349E+03  0.00000000000E+00 0.  1.
<scales pt_clust_5="13000.00000" pt_clust_6="13000.00000" pt_clust_7="13000.00000" pt_clust_8="13000.00000" pt_clust_9="69.82785"></scales>
<clustering>
<clus scale="   69.828">  2  9  1 -1</clus>
<clus scale="   84.921">  5  6 -1 -1</clus>
<clus scale="   93.249">  7  8 -1 -1</clus>
<clus scale="  108.710">  2  5  1 -1</clus>
<clus scale="   69.828">  2  5  1 -1</clus>
</clustering>
</event>
<event>
 9    2  0.5608219E-005  0.2884831E+03  0.7546771E-02  0.1091459E+00
          2   -1    0    0  502    0  0.00000000000E+00  0.00000000000E+00  0.20501927018E+04  0.20501927018E+04  0.00000000000E+00 0. -1.
         -1   -1    0    0    0  501 -0.00000000000E+00 -0.00000000000E+00 -0.82234815017E+02  0.82234815017E+02  0.00000000000E+00 0.  1.
         23    2    1    2    0    0 -0.19422503608E+03  0.16516173468E+03  0.51383483849E+03  0.58046597715E+03  0.88953617891E+02 0.  0.
         24    2    1    2    0    0  0.79513064317E+02 -0.29358876389E+03  0.12282639529E+04  0.12679462773E+04  0.80862441053E+02 0.  0.
        -11    1    4    4    0    0  0.21490819262E+02 -0.20389204149E+03  0.72265929822E+03  0.75117926036E+03  0.00000000000E+00 0.  1.
         12    1    4    4    0    0  0.58022245055E+02 -0.89696722403E+02  0.50560465468E+03  0.51676701691E+03  0.00000000000E+00 0. -1.
        -11    1    3    3    0    0 -0.16346201685E+03  0.93174698999E+02  0.31697542111E+03  0.36861195460E+03  0.00000000000E+00 0.  1.
         11    1    3    3    0    0 -0.30763019235E+02  0.71987035680E+02  0.19685941738E+03  0.21185402255E+03  0.00000000000E+00 0. -1.
         21    1    1    2  502  501  0.11471197177E+03  0.12842702921E+03  0.22585909536E+03  0.28401526237E+03  0.00000000000E+00 0. -1.
<scales pt_clust_5="13000.00000" pt_clust_6="13000.00000" pt_clust_7="13000.00000" pt_clust_8="13000.00000" pt_clust_9="172.19854"></scales>
<clustering>
<clus scale="   80.862">  5  6 -1 -1</clus>
<clus scale="   88.954">  7  8 -1 -1</clus>
<clus scale="  172.199">  2  9  1 -1</clus>
<clus scale="  286.092">  1  5  2 -1</clus>
<clus scale="  286.092">  1  5  2 -1</clus>
</clustering>
</event>
<event>
 9    2  0.5608219E-005  0.2236707E+03  0.7546771E-02  0.1132294E+00
         -1   -1    0    0    0  501 -0.00000000000E+00  0.00000000000E+00  0.71370224724E+02  0.71370224724E+02  0.00000000000E+00 0.  1.
          2   -1    0    0  502    0  0.00000000000E+00 -0.00000000000E+00 -0.19022387546E+04  0.19022387546E+04  0.00000000000E+00 0. -1.
         23    2    1    2    0    0 -0.29381961886E+03  0.72157610668E+02 -0.59112625857E+03  0.67028452471E+03  0.91183338866E+02 0.  0.
         24    2    1    2    0    0  0.17339175507E+03 -0.57280201758E+02 -0.11028680789E+04  0.11204071175E+04  0.75155753139E+02 0.  0.
        -13    1    4    4    0    0  0.11169195941E+03  0.19353065496E+01 -0.65198892928E+03  0.66148953364E+03  0.00000000000E+00 0.  1.
         14    1    4    4    0    0  0.61699795657E+02 -0.59215508307E+02 -0.45087914967E+03  0.45891758390E+03  0.00000000000E+00 0. -1.
        -13    1    3    3    0    0 -0.17591365953E+03  0.72712002057E+02 -0.43340417192E+03  0.47336225778E+03  0.00000000000E+00 0. -1.
         13    1    3    3    0    0 -0.11790595932E+03 -0.55439138916E+00 -0.15772208665E+03  0.19692226693E+03  0.00000000000E+00 0.  1.
         21    1    1    2  502  501  0.12042786379E+03 -0.14877408910E+02 -0.13687419238E+03  0.18291733710E+03  0.00000000000E+00 0. -1.
<scales pt_clust_5="13000.00000" pt_clust_6="13000.00000" pt_clust_7="13000.00000" pt_clust_8="13000.00000" pt_clust_9="121.34335"></scales>
<clustering>
<clus scale="   75.156">  5  6 -1 -1</clus>
<clus scale="   91.183">  7  8 -1 -1</clus>
<clus scale="  121.343">  1  9  2 -1</clus>
<clus scale="  217.629">  2  5  1 -1</clus>
<clus scale="  217.629">  2  5  1 -1</clus>
</clustering>
</event>
<event>
 9    2  0.5608219E-005  0.2837493E+03  0.7546771E-02  0.1122542E+00
         -1   -1    0    0    0  501 -0.00000000000E+00  0.00000000000E+00  0.30377664343E+03  0.30377664343E+03  0.00000000000E+00 0.  1.
          2   -1    0    0  502    0  0.00000000000E+00 -0.00000000000E+00 -0.79478801337E+03  0.79478801337E+03  0.00000000000E+00 0. -1.
         23    2    1    2    0    0  0.17080648452E+03  0.19489070337E+03  0.13039233268E+03  0.30424353264E+03  0.91677288990E+02 0.  0.
         24    2    1    2    0    0 -0.16297237106E+02  0.10821261706E+03 -0.87973293459E+02  0.16163420963E+03  0.80067140156E+02 0.  0.
        -13    1    4    4    0    0  0.14554073176E+02  0.10309168008E+03 -0.71360531726E+02  0.12622218916E+03  0.00000000000E+00 0.  1.
         14    1    4    4    0    0 -0.30851310282E+02  0.51209369836E+01 -0.16612761733E+02  0.35412020475E+02  0.00000000000E+00 0. -1.
        -11    1    3    3    0    0  0.17619796456E+03  0.16006935265E+03  0.10196010772E+03  0.25896676223E+03  0.00000000000E+00 0.  1.
         11    1    3    3    0    0 -0.53914800329E+01  0.34821350720E+02  0.28432224963E+02  0.45276770416E+02  0.00000000000E+00 0. -1.
         21    1    1    2  502  501 -0.15450924742E+03 -0.30310332044E+03 -0.53343040916E+03  0.63268691453E+03  0.00000000000E+00 0. -1.
<scales pt_clust_5="13000.00000" pt_clust_6="13000.00000" pt_clust_7="13000.00000" pt_clust_8="13000.00000" pt_clust_9="268.53111"></scales>
<clustering>
<clus scale="   80.067">  5  6 -1 -1</clus>
<clus scale="   91.677">  7  8 -1 -1</clus>
<clus scale="  135.596">  2  5  1 -1</clus>
<clus scale="  268.531">  2  9  1 -1</clus>
<clus scale="  135.596">  2  5  1 -1</clus>
</clustering>
</event>
<event>
 9    2  0.5608219E-005  0.1001993E+03  0.7546771E-02  0.1284812E+00
         -1   -1    0    0    0  501 -0.00000000000E+00  0.00000000000E+00  0.24128043125E+03  0.24128043125E+03  0.00000000000E+00 0.  1.
          2   -1    0    0  502    0  0.00000000000E+00 -0.00000000000E+00 -0.57295761911E+02  0.57295761911E+02  0.00000000000E+00 0. -1.
         23    2    1    2    0    0  0.20040338991E+02  0.11478752768E+02  0.11733960605E+03  0.15109028431E+03  0.92338041531E+02 0.  0.
         24    2    1    2    0    0 -0.29498061492E+02 -0.36242889936E+02  0.24949408518E+02  0.98077016619E+02  0.82540568817E+02 0.  0.
        -13    1    4    4    0    0 -0.12034461590E+02 -0.58757646177E+02 -0.34119837088E+00  0.59978376657E+02  0.00000000000E+00 0.  1.
         14    1    4    4    0    0 -0.17463599903E+02  0.22514756241E+02  0.25290606889E+02  0.38098639962E+02  0.00000000000E+00 0. -1.
        -11    1    3    3    0    0  0.18998542109E+02  0.45556386123E+02  0.31059253707E+02  0.58318146058E+02  0.00000000000E+00 0. -1.
         11    1    3    3    0    0  0.10417968826E+01 -0.34077633356E+02  0.86280352342E+02  0.92772138254E+02  0.00000000000E+00 0.  1.
         21    1    1    2  502  501  0.94577225011E+01  0.24764137168E+02  0.41695654773E+02  0.49408892232E+02  0.00000000000E+00 0. -1.
<scales pt_clust_5="13000.00000" pt_clust_6="13000.00000" pt_clust_7="13000.00000" pt_clust_8="13000.00000" pt_clust_9="26.50870"></scales>
<clustering>
<clus scale="   26.509">  1  9  2 -1</clus>
<clus scale="   82.541">  5  6 -1 -1</clus>
<clus scale="   91.250">  2  5  1 -1</clus>
<clus scale="   92.338">  7  8 -1 -1</clus>
<clus scale="   91.250">  2  5  1 -1</clus>
</clustering>
</event>
<event>
 9    2  0.5608219E-005  0.1482853E+03  0.7546771E-02  0.1205971E+00
         -1   -1    0    0    0  501 -0.00000000000E+00  0.00000000000E+00  0.13207889266E+03  0.13207889266E+03  0.00000000000E+00 0.  1.
          2   -1    0    0  502    0  0.00000000000E+00 -0.00000000000E+00 -0.67339924893E+03  0.67339924893E+03  0.00000000000E+00 0. -1.
         24    2    1    2    0    0  0.53216184906E+02  0.58727125159E+02  0.57452683911E+02  0.12736729108E+03  0.81490971169E+02 0.  0.
         23    2    1    2    0    0 -0.79397361020E+02 -0.82287389810E+02 -0.61929020342E+03  0.63734942217E+03  0.98075350802E+02 0.  0.
        -11    1    3    3    0    0  0.28266139652E+02  0.56651147981E+02  0.73976591765E+02  0.97369725005E+02  0.00000000000E+00 0.  1.
         12    1    3    3    0    0  0.24950045254E+02  0.20759771779E+01 -0.16523907854E+02  0.29997566071E+02  0.00000000000E+00 0. -1.
        -11    1    4    4    0    0 -0.77996951939E+02 -0.18665296917E+02 -0.43629439304E+03  0.44360423265E+03  0.00000000000E+00 0. -1.
         11    1    4    4    0    0 -0.14004090817E+01 -0.63622092893E+02 -0.18299581038E+03  0.19374518953E+03  0.00000000000E+00 0.  1.
         21    1    1    2  502  501  0.26181176115E+02  0.23560264652E+02  0.20517163241E+02  0.40761428344E+02  0.00000000000E+00 0. -1.
<scales pt_clust_5="13000.00000" pt_clust_6="13000.00000" pt_clust_7="13000.00000" pt_clust_8="13000.00000" pt_clust_9="35.22130"></scales>
<clustering>
<clus scale="   35.221">  1  9  2 -1</clus>
<clus scale="   81.491">  5  6 -1 -1</clus>
<clus scale="   98.075">  7  8 -1 -1</clus>
<clus scale="  137.879">  1  5  2 -1</clus>
<clus scale="  148.285">  2  5  1 -1</clus>
</clustering>
</event>
<event>
 9    2  0.5608219E-005  0.1087059E+03  0.7546771E-02  0.1267268E+00
         -1   -1    0    0    0  501 -0.00000000000E+00  0.00000000000E+00  0.36659517132E+02  0.36659517132E+02  0.00000000000E+00 0.  1.
          2   -1    0    0  502    0  0.00000000000E+00 -0.00000000000E+00 -0.77629484340E+03  0.77629484340E+03  0.00000000000E+00 0. -1.
         23    2    1    2    0    0 -0.16522847163E+02  0.74122411965E+01 -0.78753837633E+02  0.12102373688E+03  0.90092353436E+02 0.  0.
         24    2    1    2    0    0  0.67232123938E+02  0.25041325685E+02 -0.58678137066E+03  0.59645553665E+03  0.79370043260E+02 0.  0.
        -13    1    4    4    0    0  0.71586662328E+01 -0.24404774232E+02 -0.86551549471E+02  0.90210920754E+02  0.00000000000E+00 0.  1.
         14    1    4    4    0    0  0.60073457705E+02  0.49446099917E+02 -0.50022982119E+03  0.50624461590E+03  0.00000000000E+00 0. -1.
        -13    1    3    3    0    0 -0.45579191321E+02  0.80308169775E+01 -0.79456110301E+02  0.91952325511E+02  0.00000000000E+00 0. -1.
         13    1    3    3    0    0  0.29056344158E+02 -0.61857578099E+00  0.70227266778E+00  0.29071411365E+02  0.00000000000E+00 0.  1.
         21    1    1    2  502  501 -0.50709276775E+02 -0.32453566882E+02 -0.74100117970E+02  0.95475087000E+02  0.00000000000E+00 0.  1.
<scales pt_clust_5="13000.00000" pt_clust_6="13000.00000" pt_clust_7="13000.00000" pt_clust_8="13000.00000" pt_clust_9="60.20519"></scales>
<clustering>
<clus scale="   60.205">  1  9  2 -1</clus>
<clus scale="   79.370">  5  6 -1 -1</clus>
<clus scale="   90.092">  7  8 -1 -1</clus>
<clus scale="  100.000">  2  5  1 -1</clus>
<clus scale="  100.000">  2  5  1 -1</clus>
</clustering>
</event>
<event>
 9    2  0.5608219E-005  0.9685467E+02  0.7546771E-02  0.1292712E+00
         -1   -1    0    0    0  501 -0.00000000000E+00  0.00000000000E+00  0.84335904976E+02  0.84335904976E+02  0.00000000000E+00 0.  1.
          2   -1    0    0  502    0  0.00000000000E+00 -0.00000000000E+00 -0.54832648939E+03  0.54832648939E+03  0.00000000000E+00 0. -1.
         23    2    1    2    0    0 -0.59297038767E+00  0.34526120368E+01  0.73052293374E+01  0.90642237498E+02  0.90279436747E+02 0.  0.
         24    2    1    2    0    0  0.32761344129E+02 -0.18663563594E+02 -0.49267495623E+03  0.50050817004E+03  0.79738206042E+02 0.  0.
        -13    1    4    4    0    0 -0.16656710544E+02  0.14294129836E+02 -0.62301266386E+02  0.66054643647E+02  0.00000000000E+00 0.  1.
         14    1    4    4    0    0  0.49418054673E+02 -0.32957693431E+02 -0.43037368985E+03  0.43445352640E+03  0.00000000000E+00 0. -1.
        -11    1    3    3    0    0  0.43796095156E+02  0.10888219884E+02  0.56500595831E+00  0.45132809738E+02  0.00000000000E+00 0. -1.
         11    1    3    3    0    0 -0.44389065543E+02 -0.74356078471E+01  0.67402233791E+01  0.45509427760E+02  0.00000000000E+00 0.  1.
         21    1    1    2  502  501 -0.32168373741E+02  0.15210951558E+02  0.21379142487E+02  0.41511986822E+02  0.00000000000E+00 0.  1.
<scales pt_clust_5="13000.00000" pt_clust_6="13000.00000" pt_clust_7="13000.00000" pt_clust_8="13000.00000" pt_clust_9="35.58339"></scales>
<clustering>
<clus scale="   35.583">  1  9  2 -1</clus>
<clus scale="   79.738">  5  6 -1 -1</clus>
<clus scale="   87.113">  2  5  1 -1</clus>
<clus scale="   90.279">  7  8 -1 -1</clus>
<clus scale="   87.113">  2  5  1 -1</clus>
</clustering>
</event>
<event>
 9    2  0.5608219E-005  0.1204827E+03  0.7546771E-02  0.1245607E+00
         -1   -1    0    0    0  501 -0.00000000000E+00  0.00000000000E+00  0.76924818938E+02  0.76924818938E+02  0.00000000000E+00 0.  1.
          2   -1    0    0  502    0  0.00000000000E+00 -0.00000000000E+00 -0.67105686870E+03  0.67105686870E+03  0.00000000000E+00 0. -1.
         24    2    1    2    0    0 -0.38653975613E+02 -0.96164255260E+02 -0.25325849395E+02  0.13383809453E+03  0.80805588177E+02 0.  0.
         23    2    1    2    0    0  0.37923974186E+02  0.65700393446E+02 -0.57135889475E+03  0.58356425323E+03  0.91331711486E+02 0.  0.
        -13    1    3    3    0    0 -0.32391068798E+02 -0.10082173409E+03  0.14919412416E+01  0.10590764510E+03  0.00000000000E+00 0.  1.
         14    1    3    3    0    0 -0.62629068146E+01  0.46574788288E+01 -0.26817790637E+02  0.27930449431E+02  0.00000000000E+00 0. -1.
        -13    1    4    4    0    0 -0.29188580702E+02  0.29194675487E+02 -0.16501730099E+03  0.17010294515E+03  0.00000000000E+00 0.  1.
         13    1    4    4    0    0  0.67112554888E+02  0.36505717959E+02 -0.40634159375E+03  0.41346130808E+03  0.00000000000E+00 0. -1.
         21    1    1    2  502  501  0.73000142724E+00  0.30463861813E+02  0.25526943799E+01  0.30579339876E+02  0.00000000000E+00 0. -1.
<scales pt_clust_5="13000.00000" pt_clust_6="13000.00000" pt_clust_7="13000.00000" pt_clust_8="13000.00000" pt_clust_9="30.47261"></scales>
<clustering>
<clus scale="   30.473">  1  9  2 -1</clus>
<clus scale="   80.806">  5  6 -1 -1</clus>
<clus scale="   91.332">  7  8 -1 -1</clus>
<clus scale="  112.713">  1  5  2 -1</clus>
<clus scale="  120.483">  2  5  1 -1</clus>
</clustering>
</event>
<event>
 9    2  0.5608219E-005  0.1569433E+03  0.7546771E-02  0.1193836E+00
         -1   -1    0    0    0  501 -0.00000000000E+00  0.00000000000E+00  0.26484583685E+03  0.26484583685E+03  0.00000000000E+00 0.  1.
          2   -1    0    0  502    0  0.00000000000E+00 -0.00000000000E+00 -0.15778983130E+03  0.15778983130E+03  0.00000000000E+00 0. -1.
         23    2    1    2    0    0 -0.11539883529E+03 -0.67812249220E+02  0.17693957436E+03  0.23975125127E+03  0.90871652241E+02 0.  0.
         24    2    1    2    0    0  0.88572648499E+02  0.59159738091E+02 -0.76307159357E+02  0.15397468216E+03  0.80872934302E+02 0.  0.
        -11    1    4    4    0    0  0.45691060520E+02  0.71594664609E+02 -0.31129825859E+02  0.90457366035E+02  0.00000000000E+00 0.  1.
         12    1    4    4    0    0  0.42881587980E+02 -0.12434926518E+02 -0.45177333498E+02  0.63517316121E+02  0.00000000000E+00 0. -1.
        -11    1    3    3    0    0 -0.11113980820E+03 -0.47088295643E+02  0.18163061411E+03  0.21808036256E+03  0.00000000000E+00 0.  1.
         11    1    3    3    0    0 -0.42590270924E+01 -0.20723953577E+02 -0.46910397483E+01  0.21670888712E+02  0.00000000000E+00 0. -1.
         21    1    1    2  502  501  0.26826186788E+02  0.86525111293E+01  0.64235905490E+01  0.28909734727E+02  0.00000000000E+00 0.  1.
<scales pt_clust_5="13000.00000" pt_clust_6="13000.00000" pt_clust_7="13000.00000" pt_clust_8="13000.00000" pt_clust_9="28.18706"></scales>
<clustering>
<clus scale="   28.187">  2  9  1 -1</clus>
<clus scale="   80.873">  5  6 -1 -1</clus>
<clus scale="   90.872">  7  8 -1 -1</clus>
<clus scale="  151.374">  2  5  1 -1</clus>
<clus scale="   28.187">  2  5  1 -1</clus>
</clustering>
</event>
<event>
 9    2  0.5608219E-005  0.1360586E+03  0.7546771E-02  0.1222384E+00
          2   -1    0    0  502    0  0.00000000000E+00  0.00000000000E+00  0.39200087955E+03  0.39200087955E+03  0.00000000000E+00 0. -1.
         -1   -1    0    0    0  501 -0.00000000000E+00 -0.00000000000E+00 -0.11503623183E+03  0.11503623183E+03  0.00000000000E+00 0.  1.
         24    2    1    2    0    0 -0.49333606127E+02 -0.95420417460E+02 -0.40527549564E+01  0.13362010482E+03  0.79366534687E+02 0.  0.
         23    2    1    2    0    0 -0.32699471272E+01  0.98200423904E+02  0.28956896825E+03  0.32005042971E+03  0.94488488055E+02 0.  0.
        -11    1    3    3    0    0 -0.56713350067E+02 -0.28383907606E+02 -0.15320270174E+02  0.65243857680E+02  0.00000000000E+00 0.  1.
         12    1    3    3    0    0  0.73797439402E+01 -0.67036509854E+02  0.11267515218E+02  0.68376247142E+02  0.00000000000E+00 0. -1.
        -11    1    4    4    0    0  0.28690968825E+02  0.43647092519E+00  0.10396478387E+03  0.10785192851E+03  0.00000000000E+00 0.  1.
         11    1    4    4    0    0 -0.31960915953E+02  0.97763952978E+02  0.18560418438E+03  0.21219850120E+03  0.00000000000E+00 0. -1.
         21    1    1    2  502  501  0.52603553254E+02 -0.27800064439E+01 -0.85515655703E+01  0.53366576848E+02  0.00000000000E+00 0. -1.
<scales pt_clust_5="13000.00000" pt_clust_6="13000.00000" pt_clust_7="13000.00000" pt_clust_8="13000.00000" pt_clust_9="52.67696"></scales>
<clustering>
<clus scale="   52.677">  2  9  1 -1</clus>
<clus scale="   79.367">  5  6 -1 -1</clus>
<clus scale="   94.488">  7  8 -1 -1</clus>
<clus scale="  126.027">  2  5  1 -1</clus>
<clus scale="  136.059">  1  5  2 -1</clus>
</clustering>
</event>
<event>
 9    2  0.5608219E-005  0.9642939E+02  0.7546771E-02  0.1296625E+00
         -3   -1    0    0    0  501 -0.00000000000E+00  0.00000000000E+00  0.18713085850E+03  0.18713085850E+03  0.00000000000E+00 0.  1.
          4   -1    0    0  502    0  0.00000000000E+00 -0.00000000000E+00 -0.10555418525E+03  0.10555418525E+03  0.00000000000E+00 0. -1.
         23    2    1    2    0    0  0.18649719355E+02 -0.40821651524E+02  0.90267228278E+02  0.13831460627E+03  0.94702368192E+02 0.  0.
         24    2    1    2    0    0 -0.97782879899E+01  0.93086635709E+01 -0.54715594855E+02  0.97889688583E+02  0.80039544458E+02 0.  0.
        -11    1    4    4    0    0 -0.34686405774E+02  0.31239377743E+02 -0.23219465509E+02  0.52136254620E+02  0.00000000000E+00 0.  1.
         12    1    4    4    0    0  0.24908117784E+02 -0.21930714172E+02 -0.31496129346E+02  0.45753433963E+02  0.00000000000E+00 0. -1.
        -11    1    3    3    0    0  0.44651461098E+02  0.87695539099E+01  0.23627199960E+02  0.51272825472E+02  0.00000000000E+00 0.  1.
         11    1    3    3    0    0 -0.26001741743E+02 -0.49591205434E+02  0.66640028318E+02  0.87041780797E+02  0.00000000000E+00 0. -1.
         21    1    1    2  502  501 -0.88714313652E+01  0.31512987954E+02  0.46025039827E+02  0.56480748891E+02  0.00000000000E+00 0.  1.
<scales pt_clust_5="13000.00000" pt_clust_6="13000.00000" pt_clust_7="13000.00000" pt_clust_8="13000.00000" pt_clust_9="32.73791"></scales>
<clustering>
<clus scale="   32.738">  1  9  2 -1</clus>
<clus scale="   80.040">  5  6 -1 -1</clus>
<clus scale="   82.076">  2  5  1 -1</clus>
<clus scale="   94.702">  7  8 -1 -1</clus>
<clus scale="   82.076">  2  5  1 -1</clus>
</clustering>
</event>
<event>
 9    2  0.5608219E-005  0.2150805E+03  0.7546771E-02  0.1138650E+00
          2   -1    0    0  502    0  0.00000000000E+00  0.00000000000E+00  0.87013951952E+03  0.87013951952E+03  0.00000000000E+00 0. -1.
         -1   -1    0    0    0  501 -0.00000000000E+00 -0.00000000000E+00 -0.63287744958E+02  0.63287744958E+02  0.00000000000E+00 0.  1.
         24    2    1    2    0    0 -0.20247912761E+03  0.37889666537E+02  0.43452072378E+03  0.48755070531E+03  0.80399047922E+02 0.  0.
         23    2    1    2    0    0  0.17907092726E+03 -0.29220060056E+02  0.36759894283E+03  0.42046989142E+03  0.93518650146E+02 0.  0.
        -13    1    3    3    0    0 -0.15365653591E+03  0.13758696377E+02  0.23801977925E+03  0.28364246521E+03  0.00000000000E+00 0.  1.
         14    1    3    3    0    0 -0.48822591698E+02  0.24130970160E+02  0.19650094453E+03  0.20390824010E+03  0.00000000000E+00 0. -1.
        -13    1    4    4    0    0  0.98344215477E+02 -0.62143337133E+02  0.19393370707E+03  0.22614964472E+03  0.00000000000E+00 0.  1.
         13    1    4    4    0    0  0.80726711785E+02  0.32923277077E+02  0.17366523575E+03  0.19432024670E+03  0.00000000000E+00 0. -1.
         21    1    1    2  502  501  0.23408200351E+02 -0.86696064810E+01  0.47321079546E+01  0.25406667744E+02  0.00000000000E+00 0.  1.
<scales pt_clust_5="13000.00000" pt_clust_6="13000.00000" pt_clust_7="13000.00000" pt_clust_8="13000.00000" pt_clust_9="24.96209"></scales>
<clustering>
<clus scale="   24.962">  2  9  1 -1</clus>
<clus scale="   80.399">  5  6 -1 -1</clus>
<clus scale="   93.519">  7  8 -1 -1</clus>
<clus scale="  209.709">  2  5  1 -1</clus>
<clus scale="  215.081">  1  5  2 -1</clus>
</clustering>
</event>
<event>
 9    2  0.5608219E-005  0.3235716E+03  0.7546771E-02  0.1074335E+00
         -1   -1    0    0    0  501 -0.00000000000E+00  0.00000000000E+00  0.92235412607E+02  0.92235412607E+02  0.00000000000E+00 0.  1.
          2   -1    0    0  502    0  0.00000000000E+00 -0.00000000000E+00 -0.18589655231E+04  0.18589655231E+04  0.00000000000E+00 0. -1.
         23    2    1    2    0    0 -0.18020447472E+03  0.27655761011E+03 -0.49175811212E+03  0.59929132000E+03  0.91467376540E+02 0.  0.
         24    2    1    2    0    0  0.18464932367E+03 -0.24104247015E+03 -0.12779202660E+04  0.13159961903E+04  0.81048882410E+02 0.  0.
        -13    1    4    4    0    0  0.23790876004E+02 -0.15913246685E+01 -0.64711721053E+02  0.68964809409E+02  0.00000000000E+00 0.  1.
         14    1    4    4    0    0  0.16085844767E+03 -0.23945114548E+03 -0.12132085450E+04  0.12470313809E+04  0.00000000000E+00 0. -1.
        -11    1    3    3    0    0 -0.15032046129E+03  0.18760860265E+03 -0.28932536561E+03  0.37616804230E+03  0.00000000000E+00 0.  1.
         11    1    3    3    0    0 -0.29884013430E+02  0.88949007465E+02 -0.20243274651E+03  0.22312327769E+03  0.00000000000E+00 0. -1.
         21    1    1    2  502  501 -0.44448489547E+01 -0.35515139961E+02  0.29482675988E+01  0.35913425491E+02  0.00000000000E+00 0. -1.
<scales pt_clust_5="13000.00000" pt_clust_6="13000.00000" pt_clust_7="13000.00000" pt_clust_8="13000.00000" pt_clust_9="35.79220"></scales>
<clustering>
<clus scale="   35.792">  1  9  2 -1</clus>
<clus scale="   81.049">  5  6 -1 -1</clus>
<clus scale="   91.467">  7  8 -1 -1</clus>
<clus scale="  320.782">  2  5  1 -1</clus>
<clus scale="  320.782">  2  5  1 -1</clus>
</clustering>
</event>
<event>
 9    2  0.5608219E-005  0.2000112E+03  0.7546771E-02  0.1150028E+00
         -1   -1    0    0    0  501 -0.00000000000E+00  0.00000000000E+00  0.42843424900E+02  0.42843424900E+02  0.00000000000E+00 0.  1.
          2   -1    0    0  502    0  0.00000000000E+00 -0.00000000000E+00 -0.19530881470E+04  0.19530881470E+04  0.00000000000E+00 0. -1.
         23    2    1    2    0    0 -0.19325364901E+03  0.19167192946E+02 -0.44173932269E+03  0.48814285678E+03  0.73725607985E+02 0.  0.
         24    2    1    2    0    0  0.18101331812E+03  0.25154675449E+02 -0.14401587267E+04  0.14537721660E+04  0.77445295096E+02 0.  0.
        -11    1    4    4    0    0  0.50038620682E+02 -0.57165698746E+01 -0.19637945537E+03  0.20273488408E+03  0.00000000000E+00 0.  1.
         12    1    4    4    0    0  0.13097469743E+03  0.30871245323E+02 -0.12437792713E+04  0.12510372820E+04  0.00000000000E+00 0. -1.
        -11    1    3    3    0    0 -0.14395948639E+03  0.31525634816E+02 -0.25409732794E+03  0.29374078953E+03  0.00000000000E+00 0.  1.
         11    1    3    3    0    0 -0.49294162622E+02 -0.12358441869E+02 -0.18764199476E+03  0.19440206725E+03  0.00000000000E+00 0. -1.
         21    1    1    2  502  501  0.12240330894E+02 -0.44321868395E+02 -0.28346672736E+02  0.54016549072E+02  0.00000000000E+00 0.  1.
<scales pt_clust_5="13000.00000" pt_clust_6="13000.00000" pt_clust_7="13000.00000" pt_clust_8="13000.00000" pt_clust_9="45.98101"></scales>
<clustering>
<clus scale="   45.981">  1  9  2 -1</clus>
<clus scale="   73.726">  7  8 -1 -1</clus>
<clus scale="   77.445">  5  6 -1 -1</clus>
<clus scale="  198.601">  1  7  2 -1</clus>
<clus scale="  200.011">  2  5  1 -1</clus>
</clustering>
</event>
<event>
 9    2  0.5608219E-005  0.3475881E+03  0.7546771E-02  0.1063831E+00
         -1   -1    0    0    0  501 -0.00000000000E+00  0.00000000000E+00  0.18159228319E+03  0.18159228319E+03  0.00000000000E+00 0.  1.
          2   -1    0    0  502    0  0.00000000000E+00 -0.00000000000E+00 -0.76215481980E+03  0.76215481980E+03  0.00000000000E+00 0. -1.
         23    2    1    2    0    0 -0.24516127511E+03 -0.20706778221E+03 -0.22413107021E+03  0.40192618418E+03  0.91262279435E+02 0.  0.
         24    2    1    2    0    0  0.28989601739E+03  0.19443801544E+03 -0.33420326687E+03  0.49029615750E+03  0.82780769027E+02 0.  0.
        -11    1    4    4    0    0  0.94845700742E+02  0.41496851517E+02 -0.56030088792E+02  0.11771604175E+03  0.00000000000E+00 0.  1.
         12    1    4    4    0    0  0.19505031665E+03  0.15294116392E+03 -0.27817317808E+03  0.37258011575E+03  0.00000000000E+00 0. -1.
        -11    1    3    3    0    0 -0.13925233522E+03 -0.11083804059E+03 -0.69027634652E+02  0.19089551710E+03  0.00000000000E+00 0.  1.
         11    1    3    3    0    0 -0.10590893990E+03 -0.96229741620E+02 -0.15510343556E+03  0.21103066707E+03  0.00000000000E+00 0. -1.
         21    1    1    2  502  501 -0.44734742274E+02  0.12629766771E+02 -0.22228199526E+02  0.51524761321E+02  0.00000000000E+00 0. -1.
<scales pt_clust_5="13000.00000" pt_clust_6="13000.00000" pt_clust_7="13000.00000" pt_clust_8="13000.00000" pt_clust_9="46.48342"></scales>
<clustering>
<clus scale="   46.483">  1  9  2 -1</clus>
<clus scale="   82.781">  5  6 -1 -1</clus>
<clus scale="   91.262">  7  8 -1 -1</clus>
<clus scale="  345.458">  2  5  1 -1</clus>
<clus scale="  345.458">  2  5  1 -1</clus>
</clustering>
</event>
<event>
 9    2  0.5608219E-005  0.1540793E+03  0.7546771E-02  0.1198934E+00
          4   -1    0    0  502    0  0.00000000000E+00  0.00000000000E+00  0.97062461725E+02  0.97062461725E+02  0.00000000000E+00 0. -1.
         -3   -1    0    0    0  501 -0.00000000000E+00 -0.00000000000E+00 -0.37808344961E+03  0.37808344961E+03  0.00000000000E+00 0.  1.
         23    2    1    2    0    0 -0.73433643983E+02 -0.10966881263E+03 -0.10763660929E+03  0.19696979888E+03  0.98953087263E+02 0.  0.
         24    2    1    2    0    0  0.33464437546E+02  0.10613585378E+03 -0.46629929692E+02  0.14522232508E+03  0.80811418256E+02 0.  0.
        -11    1    4    4    0    0 -0.22464927861E+02  0.69392466959E+01 -0.10505581066E+02  0.25752540885E+02  0.00000000000E+00 0.  1.
         12    1    4    4    0    0  0.55929365407E+02  0.99196607082E+02 -0.36124348626E+02  0.11946978419E+03  0.00000000000E+00 0. -1.
        -11    1    3    3    0    0 -0.96199121929E+02 -0.99619965874E+02 -0.10040943084E+03  0.17105689832E+03  0.00000000000E+00 0.  1.
         11    1    3    3    0    0  0.22765477946E+02 -0.10048846758E+02 -0.72271784539E+01  0.25912900565E+02  0.00000000000E+00 0. -1.
         21    1    1    2  502  501  0.39969206436E+02  0.35329588542E+01 -0.12675444890E+03  0.13295378737E+03  0.00000000000E+00 0.  1.
<scales pt_clust_5="13000.00000" pt_clust_6="13000.00000" pt_clust_7="13000.00000" pt_clust_8="13000.00000" pt_clust_9="40.12505"></scales>
<clustering>
<clus scale="   40.125">  2  9  1 -1</clus>
<clus scale="   80.811">  5  6 -1 -1</clus>
<clus scale="   98.953">  7  8 -1 -1</clus>
<clus scale="  143.106">  1  5  2 -1</clus>
<clus scale="  143.106">  1  5  2 -1</clus>
</clustering>
</event>
<event>
 9    2  0.5608219E-005  0.1107284E+03  0.7546771E-02  0.1262414E+00
         -1   -1    0    0    0  501 -0.00000000000E+00  0.00000000000E+00  0.13118489814E+03  0.13118489814E+03  0.00000000000E+00 0.  1.
          2   -1    0    0  502    0  0.00000000000E+00 -0.00000000000E+00 -0.61573196137E+03  0.61573196137E+03  0.00000000000E+00 0. -1.
         23    2    1    2    0    0  0.41076270307E+02  0.44472898962E+02  0.87208889218E+02  0.14009291531E+03  0.91408620149E+02 0.  0.
         24    2    1    2    0    0 -0.57746191221E+02 -0.24643028872E+02 -0.57149708596E+03  0.58091685978E+03  0.83147923852E+02 0.  0.
        -13    1    4    4    0    0  0.18094455524E+02  0.10049783569E+02 -0.10416012538E+03  0.10619670047E+03  0.00000000000E+00 0.  1.
         14    1    4    4    0    0 -0.75840646745E+02 -0.34692812441E+02 -0.46733696058E+03  0.47472015931E+03  0.00000000000E+00 0. -1.
        -13    1    3    3    0    0  0.53806054604E+02 -0.90667947763E+01  0.45352589090E+02  0.70951783746E+02  0.00000000000E+00 0. -1.
         13    1    3    3    0    0 -0.12729784297E+02  0.53539693738E+02  0.41856300128E+02  0.69141131567E+02  0.00000000000E+00 0.  1.
         21    1    1    2  502  501  0.16669920913E+02 -0.19829870090E+02 -0.25886648314E+00  0.25907084415E+02  0.00000000000E+00 0. -1.
<scales pt_clust_5="13000.00000" pt_clust_6="13000.00000" pt_clust_7="13000.00000" pt_clust_8="13000.00000" pt_clust_9="25.90579"></scales>
<clustering>
<clus scale="   25.906">  1  9  2 -1</clus>
<clus scale="   83.148">  5  6 -1 -1</clus>
<clus scale="   91.409">  7  8 -1 -1</clus>
<clus scale="  104.014">  2  5  1 -1</clus>
<clus scale="  104.014">  2  5  1 -1</clus>
</clustering>
</event>
<event>
 9    2  0.5608219E-005  0.1106075E+03  0.7546771E-02  0.1263755E+00
          2   -1    0    0  502    0  0.00000000000E+00  0.00000000000E+00  0.31276227493E+03  0.31276227493E+03  0.00000000000E+00 0. -1.
         -1   -1    0    0    0  501 -0.00000000000E+00 -0.00000000000E+00 -0.59845218337E+02  0.59845218337E+02  0.00000000000E+00 0.  1.
         24    2    1    2    0    0 -0.63953013063E+02  0.41777572381E+02  0.14581236544E+03  0.18364849667E+03  0.81425861858E+02 0.  0.
         23    2    1    2    0    0  0.39467631502E+02 -0.21718590279E+02  0.11707124522E+03  0.15577422790E+03  0.92360936124E+02 0.  0.
        -13    1    3    3    0    0 -0.98150230938E+01 -0.23022253123E+02  0.50167616564E+02  0.56063790176E+02  0.00000000000E+00 0.  1.
         14    1    3    3    0    0 -0.54137989969E+02  0.64799825504E+02  0.95644748880E+02  0.12758470650E+03  0.00000000000E+00 0. -1.
        -11    1    4    4    0    0 -0.24897482739E+02 -0.17394187725E+02  0.68792571804E+02  0.75198805501E+02  0.00000000000E+00 0. -1.
         11    1    4    4    0    0  0.64365114241E+02 -0.43244025546E+01  0.48278673415E+02  0.80575422403E+02  0.00000000000E+00 0.  1.
         21    1    1    2  502  501  0.24485381561E+02 -0.20058982101E+02 -0.99665540698E+01  0.33184768692E+02  0.00000000000E+00 0.  1.
<scales pt_clust_5="13000.00000" pt_clust_6="13000.00000" pt_clust_7="13000.00000" pt_clust_8="13000.00000" pt_clust_9="31.65275"></scales>
<clustering>
<clus scale="   31.653">  2  9  1 -1</clus>
<clus scale="   81.426">  5  6 -1 -1</clus>
<clus scale="   92.361">  7  8 -1 -1</clus>
<clus scale="  101.655">  2  5  1 -1</clus>
<clus scale="  110.608">  1  5  2 -1</clus>
</clustering>
</event>
<event>
 9    2  0.5608219E-005  0.1025556E+03  0.7546771E-02  0.1280809E+00
          2   -1    0    0  502    0  0.00000000000E+00  0.00000000000E+00  0.13916902494E+03  0.13916902494E+03  0.00000000000E+00 0. -1.
         -1   -1    0    0    0  501 -0.00000000000E+00 -0.00000000000E+00 -0.22398103630E+03  0.22398103630E+03  0.00000000000E+00 0.  1.
         24    2    1    2    0    0 -0.14492552912E+01  0.25514535823E+02 -0.23625417007E+02  0.86661226871E+02  0.79365710699E+02 0.  0.
         23    2    1    2    0    0 -0.52436517498E+02 -0.35451593576E+02  0.71923823973E+02  0.13254160413E+03  0.91585132619E+02 0.  0.
        -11    1    3    3    0    0 -0.26315313673E+02  0.41545107421E+02 -0.28252794096E+02  0.56716065260E+02  0.00000000000E+00 0.  1.
         12    1    3    3    0    0  0.24866058382E+02 -0.16030571597E+02  0.46273770896E+01  0.29945161611E+02  0.00000000000E+00 0. -1.
        -11    1    4    4    0    0 -0.76166311890E+02 -0.19358240571E+02  0.35627252828E+02  0.86286439775E+02  0.00000000000E+00 0.  1.
         11    1    4    4    0    0  0.23729794393E+02 -0.16093353004E+02  0.36296571146E+02  0.46255164358E+02  0.00000000000E+00 0. -1.
         21    1    1    2  502  501  0.53885772789E+02  0.99370577523E+01 -0.13311041833E+03  0.14394723024E+03  0.00000000000E+00 0.  1.
<scales pt_clust_5="13000.00000" pt_clust_6="13000.00000" pt_clust_7="13000.00000" pt_clust_8="13000.00000" pt_clust_9="54.79436"></scales>
<clustering>
<clus scale="   54.794">  2  9  1 -1</clus>
<clus scale="   79.366">  5  6 -1 -1</clus>
<clus scale="   91.585">  7  8 -1 -1</clus>
<clus scale="   91.808">  2  5  1 -1</clus>
<clus scale="  102.556">  1  5  2 -1</clus>
</clustering>
</event>
<event>
 9    2  0.5608219E-005  0.1152082E+03  0.7546771E-02  0.1254525E+00
         -1   -1    0    0    0  501 -0.00000000000E+00  0.00000000000E+00  0.35501286601E+03  0.35501286601E+03  0.00000000000E+00 0.  1.
          2   -1    0    0  502    0  0.00000000000E+00 -0.00000000000E+00 -0.56585657497E+02  0.56585657497E+02  0.00000000000E+00 0. -1.
         23    2    1    2    0    0 -0.11229615211E+01  0.73300778613E+02  0.22064895616E+03  0.24958219797E+03  0.90725115045E+02 0.  0.
         24    2    1    2    0    0 -0.30042374001E+02 -0.64552772128E+02  0.70062037116E+02  0.12873952080E+03  0.81213118072E+02 0.  0.
        -13    1    4    4    0    0 -0.24526284879E+02 -0.93806309890E+01  0.68400142688E+02  0.73267417093E+02  0.00000000000E+00 0.  1.
         14    1    4    4    0    0 -0.55160891224E+01 -0.55172141139E+02  0.16618944279E+01  0.55472103711E+02  0.00000000000E+00 0. -1.
        -13    1    3    3    0    0 -0.23525389926E+02  0.86450351374E+02  0.18408659200E+03  0.20473148409E+03  0.00000000000E+00 0.  1.
         13    1    3    3    0    0  0.22402428405E+02 -0.13149572761E+02  0.36562364156E+02  0.44850713873E+02  0.00000000000E+00 0. -1.
         21    1    1    2  502  501  0.31165335522E+02 -0.87480064854E+01  0.77162152350E+01  0.33276804733E+02  0.00000000000E+00 0. -1.
<scales pt_clust_5="13000.00000" pt_clust_6="13000.00000" pt_clust_7="13000.00000" pt_clust_8="13000.00000" pt_clust_9="32.36983"></scales>
<clustering>
<clus scale="   32.370">  2  9  1 -1</clus>
<clus scale="   81.213">  5  6 -1 -1</clus>
<clus scale="   90.725">  7  8 -1 -1</clus>
<clus scale="  107.877">  2  5  1 -1</clus>
<clus scale="   32.370">  2  5  1 -1</clus>
</clustering>
</event>
<event>
 9    2  0.5608219E-005  0.1358426E+03  0.7546771E-02  0.1220289E+00
          2   -1    0    0  502    0  0.00000000000E+00  0.00000000000E+00  0.63052220333E+03  0.63052220333E+03  0.00000000000E+00 0. -1.
         -1   -1    0    0    0  501 -0.00000000000E+00 -0.00000000000E+00 -0.90634211128E+02  0.90634211128E+02  0.00000000000E+00 0.  1.
         23    2    1    2    0    0 -0.11789899474E+03  0.28625387220E+02  0.35348872039E+03  0.38368608016E+03  0.86839777217E+02 0.  0.
         24    2    1    2    0    0  0.88149706144E+02 -0.12055720352E+02  0.24311327908E+03  0.27131859470E+03  0.81203462210E+02 0.  0.
        -11    1    4    4    0    0 -0.34186997741E+01 -0.27126544779E+02  0.47444182779E+02  0.54758446101E+02  0.00000000000E+00 0.  1.
         12    1    4    4    0    0  0.91568405918E+02  0.15070824427E+02  0.19566909630E+03  0.21656014859E+03  0.00000000000E+00 0. -1.
        -13    1    3    3    0    0 -0.10488762634E+02  0.17081644546E+02  0.77968837693E+01  0.21507861784E+02  0.00000000000E+00 0.  1.
         13    1    3    3    0    0 -0.10741023211E+03  0.11543742674E+02  0.34569183662E+03  0.36217821837E+03  0.00000000000E+00 0. -1.
         21    1    1    2  502  501  0.29749288597E+02 -0.16569666868E+02 -0.56714007271E+02  0.66151739606E+02  0.00000000000E+00 0.  1.
<scales pt_clust_5="13000.00000" pt_clust_6="13000.00000" pt_clust_7="13000.00000" pt_clust_8="13000.00000" pt_clust_9="34.05252"></scales>
<clustering>
<clus scale="   34.053">  2  9  1 -1</clus>
<clus scale="   81.203">  5  6 -1 -1</clus>
<clus scale="   86.840">  7  8 -1 -1</clus>
<clus scale="  132.310">  1  5  2 -1</clus>
<clus scale="  132.310">  1  5  2 -1</clus>
</clustering>
</event>
<event>
 9    2  0.5608219E-005  0.1635351E+03  0.7546771E-02  0.1186345E+00
          2   -1    0    0  502    0  0.00000000000E+00  0.00000000000E+00  0.47483160365E+03  0.47483160365E+03  0.00000000000E+00 0. -1.
         -1   -1    0    0    0  501 -0.00000000000E+00 -0.00000000000E+00 -0.11045408565E+03  0.11045408565E+03  0.00000000000E+00 0.  1.
         23    2    1    2    0    0 -0.87328071510E+02  0.86250217030E+02  0.15165092025E+03  0.21518034691E+03  0.90770524262E+02 0.  0.
         24    2    1    2    0    0  0.97369068315E+02 -0.10908566713E+03  0.26448259035E+03  0.31265134193E+03  0.80121175578E+02 0.  0.
        -13    1    4    4    0    0  0.11027604106E+03 -0.84690421401E+02  0.22439181228E+03  0.26397908653E+03  0.00000000000E+00 0.  1.
         14    1    4    4    0    0 -0.12906972741E+02 -0.24395245725E+02  0.40090778074E+02  0.48672255402E+02  0.00000000000E+00 0. -1.
        -13    1    3    3    0    0 -0.15772265546E+02  0.75495486880E+02  0.56330673868E+02  0.95506427627E+02  0.00000000000E+00 0.  1.
         13    1    3    3    0    0 -0.71555805964E+02  0.10754730151E+02  0.95320246377E+02  0.11967391929E+03  0.00000000000E+00 0. -1.
         21    1    1    2  502  501 -0.10040996805E+02  0.22835450096E+02 -0.51755992602E+02  0.57454000454E+02  0.00000000000E+00 0.  1.
<scales pt_clust_5="13000.00000" pt_clust_6="13000.00000" pt_clust_7="13000.00000" pt_clust_8="13000.00000" pt_clust_9="24.94553"></scales>
<clustering>
<clus scale="   24.946">  2  9  1 -1</clus>
<clus scale="   80.121">  5  6 -1 -1</clus>
<clus scale="   90.771">  7  8 -1 -1</clus>
<clus scale="  157.873">  1  5  2 -1</clus>
<clus scale="  157.873">  1  5  2 -1</clus>
</clustering>
</event>
<event>
 9    2  0.5608219E-005  0.9446518E+02  0.7546771E-02  0.1298391E+00
          2   -1    0    0  502    0  0.00000000000E+00  0.00000000000E+00  0.25100956148E+02  0.25100956148E+02  0.00000000000E+00 0. -1.
         -1   -1    0    0    0  501 -0.00000000000E+00 -0.00000000000E+00 -0.51545556247E+03  0.51545556247E+03  0.00000000000E+00 0.  1.
         23    2    1    2    0    0  0.93238012703E+00 -0.25823913637E+02 -0.31405828596E+03  0.32812205660E+03  0.91453448261E+02 0.  0.
         24    2    1    2    0    0 -0.18775610416E+02  0.16509245973E+02 -0.89554718525E+02  0.12338812919E+03  0.81114142208E+02 0.  0.
        -11    1    4    4    0    0  0.88827500340E+01 -0.24277678160E+02 -0.61427645548E+02  0.66645814141E+02  0.00000000000E+00 0.  1.
         12    1    4    4    0    0 -0.27658360450E+02  0.40786924133E+02 -0.28127072977E+02  0.56742315050E+02  0.00000000000E+00 0. -1.
        -11    1    3    3    0    0 -0.40358411723E+01  0.31860657077E+02 -0.66031272865E+02  0.73426960168E+02  0.00000000000E+00 0. -1.
         11    1    3    3    0    0  0.49682212994E+01 -0.57684570715E+02 -0.24802701310E+03  0.25469509643E+03  0.00000000000E+00 0.  1.
         21    1    1    2  502  501  0.17843230289E+02  0.93146676641E+01 -0.86741601837E+02  0.89046332827E+02  0.00000000000E+00 0.  1.
<scales pt_clust_5="13000.00000" pt_clust_6="13000.00000" pt_clust_7="13000.00000" pt_clust_8="13000.00000" pt_clust_9="20.12819"></scales>
<clustering>
<clus scale="   20.128">  2  9  1 -1</clus>
<clus scale="   81.114">  5  6 -1 -1</clus>
<clus scale="   84.495">  1  5  2 -1</clus>
<clus scale="   91.453">  7  8 -1 -1</clus>
<clus scale="   84.495">  1  5  2 -1</clus>
</clustering>
</event>
<event>
 9    2  0.5608219E-005  0.2333808E+03  0.7546771E-02  0.1124944E+00
         -1   -1    0    0    0  501 -0.00000000000E+00  0.00000000000E+00  0.32849742456E+03  0.32849742456E+03  0.00000000000E+00 0.  1.
          2   -1    0    0  502    0  0.00000000000E+00 -0.00000000000E+00 -0.47075519462E+03  0.47075519462E+03  0.00000000000E+00 0. -1.
         23    2    1    2    0    0  0.18821689226E+03  0.63092637496E+02  0.80176945564E+02  0.23244374558E+03  0.90528850771E+02 0.  0.
         24    2    1    2    0    0 -0.20259326775E+03 -0.82766453262E+02 -0.35902984020E+03  0.42805741502E+03  0.80227217799E+02 0.  0.
        -13    1    4    4    0    0 -0.82561283934E+02 -0.35861762691E+02 -0.78867518768E+02  0.11967671931E+03  0.00000000000E+00 0.  1.
         14    1    4    4    0    0 -0.12003198382E+03 -0.46904690572E+02 -0.28016232143E+03  0.30838069571E+03  0.00000000000E+00 0. -1.
        -13    1    3    3    0    0  0.11349827918E+03  0.40570974656E+02  0.94425638707E+02  0.15311454734E+03  0.00000000000E+00 0.  1.
         13    1    3    3    0    0  0.74718613079E+02  0.22521662840E+02 -0.14248693143E+02  0.79329198243E+02  0.00000000000E+00 0. -1.
         21    1    1    2  502  501  0.14376375499E+02  0.19673815766E+02  0.13659512457E+03  0.13875145858E+03  0.00000000000E+00 0. -1.
<scales pt_clust_5="13000.00000" pt_clust_6="13000.00000" pt_clust_7="13000.00000" pt_clust_8="13000.00000" pt_clust_9="24.36676"></scales>
<clustering>
<clus scale="   24.367">  1  9  2 -1</clus>
<clus scale="   80.227">  5  6 -1 -1</clus>
<clus scale="   90.529">  7  8 -1 -1</clus>
<clus scale="  229.581">  2  5  1 -1</clus>
<clus scale="  229.581">  2  5  1 -1</clus>
</clustering>
</event>
<event>
 9    2  0.5608219E-005  0.1421424E+03  0.7546771E-02  0.1212844E+00
         -1   -1    0    0    0  501 -0.00000000000E+00  0.00000000000E+00  0.42063070633E+02  0.42063070633E+02  0.00000000000E+00 0.  1.
          2   -1    0    0  502    0  0.00000000000E+00 -0.00000000000E+00 -0.66201028915E+03  0.66201028915E+03  0.00000000000E+00 0. -1.
         23    2    1    2    0    0 -0.94535492537E+02  0.48148128723E+02 -0.16597704642E+03  0.21730158650E+03  0.91740928216E+02 0.  0.
         24    2    1    2    0    0  0.10688877716E+03 -0.27372121522E+02 -0.43532422750E+03  0.45624445164E+03  0.80482127774E+02 0.  0.
        -11    1    4    4    0    0  0.36406810228E+02 -0.84572960786E+01 -0.42063312165E+02  0.56269920191E+02  0.00000000000E+00 0.  1.
         12    1    4    4    0    0  0.70481966932E+02 -0.18914825443E+02 -0.39326091533E+03  0.39997453145E+03  0.00000000000E+00 0. -1.
        -11    1    3    3    0    0 -0.10815708975E+03  0.25849018408E+02 -0.14981747326E+03  0.18657814210E+03  0.00000000000E+00 0.  1.
         11    1    3    3    0    0  0.13621597208E+02  0.22299110314E+02 -0.16159573154E+02  0.30723444400E+02  0.00000000000E+00 0. -1.
         21    1    1    2  502  501 -0.12353284623E+02 -0.20776007201E+02 -0.18645944602E+02  0.30527321636E+02  0.00000000000E+00 0.  1.
<scales pt_clust_5="13000.00000" pt_clust_6="13000.00000" pt_clust_7="13000.00000" pt_clust_8="13000.00000" pt_clust_9="24.17118"></scales>
<clustering>
<clus scale="   24.171">  1  9  2 -1</clus>
<clus scale="   80.482">  5  6 -1 -1</clus>
<clus scale="   91.741">  7  8 -1 -1</clus>
<clus scale="  135.150">  2  5  1 -1</clus>
<clus scale="  135.150">  2  5  1 -1</clus>
</clustering>
</event>
<event>
 9    2  0.5608219E-005  0.1733869E+03  0.7546771E-02  0.1190870E+00
          2   -1    0    0  502    0  0.00000000000E+00  0.00000000000E+00  0.15902668337E+04  0.15902668337E+04  0.00000000000E+00 0. -1.
         -1   -1    0    0    0  501 -0.00000000000E+00 -0.00000000000E+00 -0.83871556701E+02  0.83871556701E+02  0.00000000000E+00 0.  1.
         23    2    1    2    0    0  0.80536649038E+02  0.99387227128E+02  0.11342032733E+03  0.19431713582E+03  0.92363444423E+02 0.  0.
         24    2    1    2    0    0 -0.41466867154E+02  0.76960301145E+02  0.12321856159E+04  0.12379987816E+04  0.81958539133E+02 0.  0.
        -11    1    4    4    0    0  0.75866371330E+00  0.40855395884E+02  0.19052582456E+03  0.19485848395E+03  0.00000000000E+00 0.  1.
         12    1    4    4    0    0 -0.42225530867E+02  0.36104905261E+02  0.10416597914E+04  0.10431402977E+04  0.00000000000E+00 0. -1.
        -13    1    3    3    0    0  0.31221392757E+02  0.10054799924E+03  0.58302926211E+02  0.12034910353E+03  0.00000000000E+00 0. -1.
         13    1    3    3    0    0  0.49315256282E+02 -0.11607721073E+01  0.55117401119E+02  0.73968032285E+02  0.00000000000E+00 0.  1.
         21    1    1    2  502  501 -0.39069781884E+02 -0.17634752827E+03  0.16078933370E+03  0.24182247293E+03  0.00000000000E+00 0.  1.
<scales pt_clust_5="13000.00000" pt_clust_6="13000.00000" pt_clust_7="13000.00000" pt_clust_8="13000.00000" pt_clust_9="146.73791"></scales>
<clustering>
<clus scale="   81.959">  5  6 -1 -1</clus>
<clus scale="   92.363">  7  8 -1 -1</clus>
<clus scale="  119.832">  1  5  2 -1</clus>
<clus scale="  146.738">  1  9  2 -1</clus>
<clus scale="  119.832">  1  5  2 -1</clus>
</clustering>
</event>
<event>
 9    2  0.5608219E-005  0.1429465E+03  0.7546771E-02  0.1211972E+00
         -1   -1    0    0    0  501 -0.00000000000E+00  0.00000000000E+00  0.20649430511E+03  0.20649430511E+03  0.00000000000E+00 0.  1.
          2   -1    0    0  502    0  0.00000000000E+00 -0.00000000000E+00 -0.51736567265E+03  0.51736567265E+03  0.00000000000E+00 0. -1.
         23    2    1    2    0    0  0.56620926666E+02  0.43136876122E+02 -0.13632130078E+02  0.11760887397E+03  0.92624472181E+02 0.  0.
         24    2    1    2    0    0 -0.11406038945E+03 -0.31054142334E+02 -0.43425671983E+03  0.45719046238E+03  0.80436857083E+02 0.  0.
        -11    1    4    4    0    0 -0.56806969168E+02 -0.37787250953E+02 -0.33940343627E+03  0.34619301066E+03  0.00000000000E+00 0.  1.
         12    1    4    4    0    0 -0.57253420283E+02  0.67331086197E+01 -0.94853283565E+02  0.11099745172E+03  0.00000000000E+00 0. -1.
        -11    1    3    3    0    0  0.18556771696E+02 -0.84162584312E+01 -0.42646090102E+02  0.47263899361E+02  0.00000000000E+00 0. -1.
         11    1    3    3    0    0  0.38064154970E+02  0.51553134553E+02  0.29013960024E+02  0.70344974605E+02  0.00000000000E+00 0.  1.
         21    1    1    2  502  501  0.57439462786E+02 -0.12082733788E+02  0.13701748238E+03  0.14906064141E+03  0.00000000000E+00 0.  1.
<scales pt_clust_5="13000.00000" pt_clust_6="13000.00000" pt_clust_7="13000.00000" pt_clust_8="13000.00000" pt_clust_9="58.69654"></scales>
<clustering>
<clus scale="   58.697">  1  9  2 -1</clus>
<clus scale="   80.437">  5  6 -1 -1</clus>
<clus scale="   92.624">  7  8 -1 -1</clus>
<clus scale="  135.368">  2  5  1 -1</clus>
<clus scale="  135.368">  2  5  1 -1</clus>
</clustering>
</event>
<event>
 9    2  0.5608219E-005  0.1341724E+03  0.7546771E-02  0.1224559E+00
          2   -1    0    0  502    0  0.00000000000E+00  0.00000000000E+00  0.20790931221E+03  0.20790931221E+03  0.00000000000E+00 0. -1.
         -1   -1    0    0    0  501 -0.00000000000E+00 -0.00000000000E+00 -0.19473480187E+03  0.19473480187E+03  0.00000000000E+00 0.  1.
         24    2    1    2    0    0 -0.92899927731E+02  0.66192250071E+02 -0.91706070063E+02  0.16712717982E+03  0.80682590479E+02 0.  0.
         23    2    1    2    0    0  0.75576670178E+02 -0.53624549527E+02  0.14139930193E+03  0.19318893677E+03  0.93492124353E+02 0.  0.
        -13    1    3    3    0    0 -0.91878315283E+02  0.82399245066E+02 -0.79372264493E+02  0.14673519270E+03  0.00000000000E+00 0.  1.
         14    1    3    3    0    0 -0.10216124472E+01 -0.16206994995E+02 -0.12333805570E+02  0.20391987117E+02  0.00000000000E+00 0. -1.
        -13    1    4    4    0    0  0.34310755840E+02 -0.27614098851E+02  0.45801397405E+00  0.44045160897E+02  0.00000000000E+00 0.  1.
         13    1    4    4    0    0  0.41265914338E+02 -0.26010450677E+02  0.14094128795E+03  0.14914377587E+03  0.00000000000E+00 0. -1.
         21    1    1    2  502  501  0.17323257553E+02 -0.12567700544E+02 -0.36518721535E+02  0.42327997493E+02  0.00000000000E+00 0.  1.
<scales pt_clust_5="13000.00000" pt_clust_6="13000.00000" pt_clust_7="13000.00000" pt_clust_8="13000.00000" pt_clust_9="21.40192"></scales>
<clustering>
<clus scale="   21.402">  2  9  1 -1</clus>
<clus scale="   80.683">  5  6 -1 -1</clus>
<clus scale="   93.492">  7  8 -1 -1</clus>
<clus scale="  125.583">  2  5  1 -1</clus>
<clus scale="  134.172">  1  5  2 -1</clus>
</clustering>
</event>
<event>
 9    2  0.5608219E-005  0.1291169E+03  0.7546771E-02  0.1231537E+00
          2   -1    0    0  502    0  0.00000000000E+00  0.00000000000E+00  0.11958911101E+04  0.11958911101E+04  0.00000000000E+00 0. -1.
         -1   -1    0    0    0  501 -0.00000000000E+00 -0.00000000000E+00 -0.26171323102E+02  0.26171323102E+02  0.00000000000E+00 0.  1.
         23    2    1    2    0    0 -0.24410356962E+02 -0.72390577930E+02  0.45278642110E+03  0.46811100749E+03  0.90973132812E+02 0.  0.
         24    2    1    2    0    0  0.41976378017E+02  0.94808300209E+02  0.71325884659E+03  0.72523520279E+03  0.80481594312E+02 0.  0.
        -11    1    4    4    0    0  0.32825103133E+02 -0.30423250506E+01  0.18339756467E+03  0.18633681833E+03  0.00000000000E+00 0.  1.
         12    1    4    4    0    0  0.91512748840E+01  0.97850625260E+02  0.52986128192E+03  0.53889838446E+03  0.00000000000E+00 0. -1.
        -13    1    3    3    0    0 -0.54147515840E+02 -0.28853055585E+02  0.30731235836E+03  0.31337730915E+03  0.00000000000E+00 0.  1.
         13    1    3    3    0    0  0.29737158878E+02 -0.43537522346E+02  0.14547406274E+03  0.15473369834E+03  0.00000000000E+00 0. -1.
         21    1    1    2  502  501 -0.17566021056E+02 -0.22417722279E+02  0.36745193197E+01  0.28716222943E+02  0.00000000000E+00 0.  1.
<scales pt_clust_5="13000.00000" pt_clust_6="13000.00000" pt_clust_7="13000.00000" pt_clust_8="13000.00000" pt_clust_9="28.48016"></scales>
<clustering>
<clus scale="   28.480">  2  9  1 -1</clus>
<clus scale="   80.482">  5  6 -1 -1</clus>
<clus scale="   90.973">  7  8 -1 -1</clus>
<clus scale="  121.952">  1  5  2 -1</clus>
<clus scale="  121.952">  1  5  2 -1</clus>
</clustering>
</event>
<event>
 9    2  0.5608219E-005  0.9833951E+02  0.7546771E-02  0.1290772E+00
         -1   -1    0    0    0  501 -0.00000000000E+00  0.00000000000E+00  0.65839684505E+02  0.65839684505E+02  0.00000000000E+00 0.  1.
          2   -1    0    0  502    0  0.00000000000E+00 -0.00000000000E+00 -0.46931326700E+03  0.46931326700E+03  0.00000000000E+00 0. -1.
         23    2    1    2    0    0 -0.16555984716E+02  0.27427031492E+01 -0.11234304028E+03  0.14706902952E+03  0.93416902616E+02 0.  0.
         24    2    1    2    0    0  0.18263214234E+01 -0.39890079885E+02 -0.32404829650E+03  0.33631067478E+03  0.80641289594E+02 0.  0.
        -11    1    4    4    0    0  0.20423893440E+02 -0.59521604305E+02 -0.22368470431E+03  0.23236781994E+03  0.00000000000E+00 0.  1.
         12    1    4    4    0    0 -0.18597572016E+02  0.19631524419E+02 -0.10036359218E+03  0.10394285484E+03  0.00000000000E+00 0. -1.
        -13    1    3    3    0    0 -0.15463373028E+02 -0.43201272033E+02 -0.37579368764E+02  0.59309988766E+02  0.00000000000E+00 0.  1.
         13    1    3    3    0    0 -0.10926116881E+01  0.45943975182E+02 -0.74763671513E+02  0.87759040754E+02  0.00000000000E+00 0. -1.
         21    1    1    2  502  501  0.14729663293E+02  0.37147376736E+02  0.32917754279E+02  0.51773247202E+02  0.00000000000E+00 0.  1.
<scales pt_clust_5="13000.00000" pt_clust_6="13000.00000" pt_clust_7="13000.00000" pt_clust_8="13000.00000" pt_clust_9="39.96111"></scales>
<clustering>
<clus scale="   39.961">  1  9  2 -1</clus>
<clus scale="   80.641">  5  6 -1 -1</clus>
<clus scale="   86.296">  2  5  1 -1</clus>
<clus scale="   93.417">  7  8 -1 -1</clus>
<clus scale="   86.296">  2  5  1 -1</clus>
</clustering>
</event>
<event>
 9    2  0.5608219E-005  0.2315313E+03  0.7546771E-02  0.1126115E+00
         -1   -1    0    0    0  501 -0.00000000000E+00  0.00000000000E+00  0.21959635160E+03  0.21959635160E+03  0.00000000000E+00 0.  1.
          2   -1    0    0  502    0  0.00000000000E+00 -0.00000000000E+00 -0.54157078281E+03  0.54157078281E+03  0.00000000000E+00 0. -1.
         24    2    1    2    0    0  0.22433497801E+03  0.11714545701E+02  0.88966194398E+02  0.25551003425E+03  0.83108248172E+02 0.  0.
         23    2    1    2    0    0 -0.20628663677E+03 -0.44845166631E+02 -0.40729136700E+03  0.46775330415E+03  0.91332526648E+02 0.  0.
        -13    1    3    3    0    0  0.14037653218E+03  0.37545826724E+02  0.83280157752E+02  0.16748386360E+03  0.00000000000E+00 0.  1.
         14    1    3    3    0    0  0.83958445837E+02 -0.25831281022E+02  0.56860366462E+01  0.88026170650E+02  0.00000000000E+00 0. -1.
        -13    1    4    4    0    0 -0.13014865742E+03  0.43547740733E+01 -0.30159600269E+03  0.32850842596E+03  0.00000000000E+00 0. -1.
         13    1    4    4    0    0 -0.76137979347E+02 -0.49199940704E+02 -0.10569536431E+03  0.13924487819E+03  0.00000000000E+00 0.  1.
         21    1    1    2  502  501 -0.18048341243E+02  0.33130620930E+02 -0.36492586055E+01  0.37903796026E+02  0.00000000000E+00 0.  1.
<scales pt_clust_5="13000.00000" pt_clust_6="13000.00000" pt_clust_7="13000.00000" pt_clust_8="13000.00000" pt_clust_9="37.72772"></scales>
<clustering>
<clus scale="   37.728">  1  9  2 -1</clus>
<clus scale="   83.108">  5  6 -1 -1</clus>
<clus scale="   91.333">  7  8 -1 -1</clus>
<clus scale="  228.412">  1  5  2 -1</clus>
<clus scale="  231.531">  2  5  1 -1</clus>
</clustering>
</event>
<event>
 9    2  0.5608219E-005  0.1632258E+03  0.7546771E-02  0.1187455E+00
         -1   -1    0    0    0  501 -0.00000000000E+00  0.00000000000E+00  0.16779849308E+03  0.16779849308E+03  0.00000000000E+00 0.  1.
          2   -1    0    0  502    0  0.00000000000E+00 -0.00000000000E+00 -0.59406933531E+03  0.59406933531E+03  0.00000000000E+00 0. -1.
         24    2    1    2    0    0 -0.32063681484E+02  0.15201382671E+03  0.74691871064E+02  0.18836990777E+03  0.75947767383E+02 0.  0.
         23    2    1    2    0    0 -0.18322215051E+02 -0.13255290925E+03 -0.49286549040E+03  0.51888079055E+03  0.91732795974E+02 0.  0.
        -13    1    3    3    0    0 -0.10379303294E+02  0.93390970523E+02  0.82926235278E+02  0.12532503265E+03  0.00000000000E+00 0.  1.
         14    1    3    3    0    0 -0.21684378190E+02  0.58622856185E+02 -0.82343642146E+01  0.63044875119E+02  0.00000000000E+00 0. -1.
        -11    1    4    4    0    0  0.35776931088E+02 -0.53426972179E+02 -0.23979433271E+03  0.24826548724E+03  0.00000000000E+00 0. -1.
         11    1    4    4    0    0 -0.54099146139E+02 -0.79125937069E+02 -0.25307115769E+03  0.27061530331E+03  0.00000000000E+00 0.  1.
         21    1    1    2  502  501  0.50385896535E+02 -0.19460917460E+02 -0.80972228877E+01  0.54617130064E+02  0.00000000000E+00 0. -1.
<scales pt_clust_5="13000.00000" pt_clust_6="13000.00000" pt_clust_7="13000.00000" pt_clust_8="13000.00000" pt_clust_9="54.01357"></scales>
<clustering>
<clus scale="   54.014">  1  9  2 -1</clus>
<clus scale="   75.948">  5  6 -1 -1</clus>
<clus scale="   91.733">  7  8 -1 -1</clus>
<clus scale="  154.906">  1  5  2 -1</clus>
<clus scale="  163.226">  2  5  1 -1</clus>
</clustering>
</event>
<event>
 9    2  0.5608219E-005  0.1204709E+03  0.7546771E-02  0.1244901E+00
         -1   -1    0    0    0  501 -0.00000000000E+00  0.00000000000E+00  0.99957561984E+02  0.99957561984E+02  0.00000000000E+00 0.  1.
          2   -1    0    0  502    0  0.00000000000E+00 -0.00000000000E+00 -0.84344278177E+03  0.84344278177E+03  0.00000000000E+00 0. -1.
         24    2    1    2    0    0 -0.77565349135E+02 -0.15787619868E+02  0.41008092932E+02  0.12063604728E+03  0.81275825980E+02 0.  0.
         23    2    1    2    0    0  0.87302928567E+02  0.82347449944E+02 -0.69412527298E+03  0.71010812026E+03  0.89670195885E+02 0.  0.
        -11    1    3    3    0    0 -0.77980577454E+01 -0.20082201691E+02  0.45757820212E+02  0.50575514233E+02  0.00000000000E+00 0.  1.
         12    1    3    3    0    0 -0.69767291390E+02  0.42945818228E+01 -0.47497272806E+01  0.70060533042E+02  0.00000000000E+00 0. -1.
        -11    1    4    4    0    0  0.52510195221E+02 -0.76072391152E+01 -0.22507872779E+03  0.23124797166E+03  0.00000000000E+00 0.  1.
         11    1    4    4    0    0  0.34792733346E+02  0.89954689060E+02 -0.46904654518E+03  0.47886014861E+03  0.00000000000E+00 0. -1.
         21    1    1    2  502  501 -0.97375794315E+01 -0.66559830077E+02 -0.90368039745E+02  0.11265617622E+03  0.00000000000E+00 0.  1.
<scales pt_clust_5="13000.00000" pt_clust_6="13000.00000" pt_clust_7="13000.00000" pt_clust_8="13000.00000" pt_clust_9="67.26835"></scales>
<clustering>
<clus scale="   67.268">  2  9  1 -1</clus>
<clus scale="   81.276">  5  6 -1 -1</clus>
<clus scale="   89.670">  7  8 -1 -1</clus>
<clus scale="  114.360">  1  5  2 -1</clus>
<clus scale="   67.268">  2  5  1 -1</clus>
</clustering>
</event>
<event>
 9    2  0.5608219E-005  0.1258100E+03  0.7546771E-02  0.1247050E+00
         -1   -1    0    0    0  501 -0.00000000000E+00  0.00000000000E+00  0.65803080942E+02  0.65803080942E+02  0.00000000000E+00 0.  1.
          2   -1    0    0  502    0  0.00000000000E+00 -0.00000000000E+00 -0.60261558416E+03  0.60261558416E+03  0.00000000000E+00 0. -1.
         23    2    1    2    0    0 -0.35016561586E+02  0.82119106500E+01 -0.14334040515E+02  0.97223842914E+02  0.89181925589E+02 0.  0.
         24    2    1    2    0    0  0.30940722008E+02  0.91285881487E+02 -0.35075470103E+03  0.37268670288E+03  0.81093019244E+02 0.  0.
        -13    1    4    4    0    0  0.57153304484E+02  0.77632662767E+02 -0.26988557491E+03  0.28658603260E+03  0.00000000000E+00 0.  1.
         14    1    4    4    0    0 -0.26212582476E+02  0.13653218720E+02 -0.80869126126E+02  0.86100670275E+02  0.00000000000E+00 0. -1.
        -11    1    3    3    0    0 -0.64713734609E+02  0.71267008321E+01 -0.22498713368E+01  0.65143834956E+02  0.00000000000E+00 0. -1.
         11    1    3    3    0    0  0.29697173023E+02  0.10852098179E+01 -0.12084169178E+02  0.32080007958E+02  0.00000000000E+00 0.  1.
         21    1    1    2  502  501  0.40758395782E+01 -0.99497792137E+02 -0.17172376167E+03  0.19850811931E+03  0.00000000000E+00 0.  1.
<scales pt_clust_5="13000.00000" pt_clust_6="13000.00000" pt_clust_7="13000.00000" pt_clust_8="13000.00000" pt_clust_9="96.18766"></scales>
<clustering>
<clus scale="   81.093">  5  6 -1 -1</clus>
<clus scale="   89.182">  7  8 -1 -1</clus>
<clus scale="   96.161">  1  7  2 -1</clus>
<clus scale="   96.188">  1  9  2 -1</clus>
<clus scale="  125.810">  2  5  1 -1</clus>
</clustering>
</event>
<event>
 9    2  0.5608219E-005  0.9574972E+02  0.7546771E-02  0.1296886E+00
          2   -1    0    0  502    0  0.00000000000E+00  0.00000000000E+00  0.89319392462E+03  0.89319392462E+03  0.00000000000E+00 0. -1.
         -1   -1    0    0    0  501 -0.00000000000E+00 -0.00000000000E+00 -0.27651412484E+02  0.27651412484E+02  0.00000000000E+00 0.  1.
         23    2    1    2    0    0 -0.23345700454E+02  0.14325894722E+02  0.78500572777E+02  0.12482840266E+03  0.93110349555E+02 0.  0.
         24    2    1    2    0    0 -0.12452326166E+02 -0.60907271637E+01  0.58539466523E+03  0.59105123035E+03  0.80389585319E+02 0.  0.
        -13    1    4    4    0    0 -0.20502883145E+02  0.32815037997E+02  0.20776840297E+03  0.21134073012E+03  0.00000000000E+00 0.  1.
         14    1    4    4    0    0  0.80505569793E+01 -0.38905765160E+02  0.37762626226E+03  0.37971050022E+03  0.00000000000E+00 0. -1.
        -11    1    3    3    0    0  0.22142403435E+02 -0.57901655235E+01 -0.86637101839E+01  0.24471859775E+02  0.00000000000E+00 0.  1.
         11    1    3    3    0    0 -0.45488103889E+02  0.20116060245E+02  0.87164282961E+02  0.10035654288E+03  0.00000000000E+00 0. -1.
         21    1    1    2  502  501  0.35798026620E+02 -0.82351675581E+01  0.20164727412E+03  0.20496570410E+03  0.00000000000E+00 0. -1.
<scales pt_clust_5="13000.00000" pt_clust_6="13000.00000" pt_clust_7="13000.00000" pt_clust_8="13000.00000" pt_clust_9="36.73305"></scales>
<clustering>
<clus scale="   36.733">  1  9  2 -1</clus>
<clus scale="   80.390">  5  6 -1 -1</clus>
<clus scale="   83.432">  1  5  2 -1</clus>
<clus scale="   93.110">  7  8 -1 -1</clus>
<clus scale="   36.733">  1  5  2 -1</clus>
</clustering>
</event>
<event>
 9    2  0.5608219E-005  0.9854881E+02  0.7546771E-02  0.1294264E+00
          2   -1    0    0  502    0  0.00000000000E+00  0.00000000000E+00  0.34039456900E+03  0.34039456900E+03  0.00000000000E+00 0. -1.
         -1   -1    0    0    0  501 -0.00000000000E+00 -0.00000000000E+00 -0.13848152390E+03  0.13848152390E+03  0.00000000000E+00 0.  1.
         23    2    1    2    0    0  0.29282048197E+02  0.39522917999E+02 -0.10368185780E+03  0.12726990319E+03  0.55029094368E+02 0.  0.
         24    2    1    2    0    0 -0.12524860626E+02 -0.58100842915E+02  0.31066017119E+03  0.32607974122E+03  0.79282252653E+02 0.  0.
        -13    1    4    4    0    0 -0.93711208489E+01  0.18124251210E+02  0.99248337142E+02  0.10132393011E+03  0.00000000000E+00 0.  1.
         14    1    4    4    0    0 -0.31537397770E+01 -0.76225094125E+02  0.21141183405E+03  0.22475581111E+03  0.00000000000E+00 0. -1.
        -11    1    3    3    0    0  0.35248675232E+02  0.23968025573E+01 -0.60033906379E+02  0.69658335346E+02  0.00000000000E+00 0. -1.
         11    1    3    3    0    0 -0.59666270350E+01  0.37126115441E+02 -0.43647951422E+02  0.57611567842E+02  0.00000000000E+00 0.  1.
         21    1    1    2  502  501 -0.16757187571E+02  0.18577924916E+02 -0.50652682901E+01  0.25526448486E+02  0.00000000000E+00 0. -1.
<scales pt_clust_5="13000.00000" pt_clust_6="13000.00000" pt_clust_7="13000.00000" pt_clust_8="13000.00000" pt_clust_9="25.01885"></scales>
<clustering>
<clus scale="   25.019">  2  9  1 -1</clus>
<clus scale="   55.029">  7  8 -1 -1</clus>
<clus scale="   79.282">  5  6 -1 -1</clus>
<clus scale="   80.339">  2  7  1 -1</clus>
<clus scale="   98.549">  1  5  2 -1</clus>
</clustering>
</event>
<event>
 9    2  0.5608219E-005  0.9667745E+02  0.7546771E-02  0.1293508E+00
          2   -1    0    0  502    0  0.00000000000E+00  0.00000000000E+00  0.25216505337E+03  0.25216505337E+03  0.00000000000E+00 0. -1.
         -1   -1    0    0    0  501 -0.00000000000E+00 -0.00000000000E+00 -0.11479210602E+03  0.11479210602E+03  0.00000000000E+00 0.  1.
         23    2    1    2    0    0 -0.33831795701E+02  0.13861980287E+02 -0.59217156400E+02  0.11403289466E+03  0.90333186342E+02 0.  0.
         24    2    1    2    0    0 -0.57867563319E+01 -0.55423561011E+02  0.15212142352E+03  0.18029879963E+03  0.79129463494E+02 0.  0.
        -13    1    4    4    0    0 -0.11294024860E+02  0.19004827140E+02  0.32554356297E+02  0.39351296879E+02  0.00000000000E+00 0.  1.
         14    1    4    4    0    0  0.55072685280E+01 -0.74428388151E+02  0.11956706722E+03  0.14094750276E+03  0.00000000000E+00 0. -1.
        -11    1    3    3    0    0 -0.42053620235E+02  0.38865458631E+02 -0.98729096223E+01  0.58107703395E+02  0.00000000000E+00 0.  1.
         11    1    3    3    0    0  0.82218245339E+01 -0.25003478344E+02 -0.49344246778E+02  0.55925191265E+02  0.00000000000E+00 0. -1.
         21    1    1    2  502  501  0.39618552033E+02  0.41561580724E+02  0.44468680236E+02  0.72625465089E+02  0.00000000000E+00 0.  1.
<scales pt_clust_5="13000.00000" pt_clust_6="13000.00000" pt_clust_7="13000.00000" pt_clust_8="13000.00000" pt_clust_9="57.41946"></scales>
<clustering>
<clus scale="   57.419">  1  9  2 -1</clus>
<clus scale="   79.129">  5  6 -1 -1</clus>
<clus scale="   86.301">  1  5  2 -1</clus>
<clus scale="   90.333">  7  8 -1 -1</clus>
<clus scale="   57.419">  1  5  2 -1</clus>
</clustering>
</event>
<event>
 9    2  0.5608219E-005  0.9174031E+02  0.7546771E-02  0.1305871E+00
          2   -1    0    0  502    0  0.00000000000E+00  0.00000000000E+00  0.13972423903E+03  0.13972423903E+03  0.00000000000E+00 0. -1.
         -1   -1    0    0    0  501 -0.00000000000E+00 -0.00000000000E+00 -0.21944190519E+03  0.21944190519E+03  0.00000000000E+00 0.  1.
         24    2    1    2    0    0  0.32779306218E+02 -0.34889000812E+01 -0.10616718594E+03  0.13582034335E+03  0.78032294317E+02 0.  0.
         23    2    1    2    0    0 -0.50607708496E+01  0.19399758940E+02  0.10441362205E+03  0.13908505156E+03  0.89668751793E+02 0.  0.
        -11    1    3    3    0    0  0.51867463805E+02 -0.69871833004E+01 -0.10382959801E+03  0.11627398658E+03  0.00000000000E+00 0.  1.
         12    1    3    3    0    0 -0.19088157588E+02  0.34982832192E+01 -0.23375879318E+01  0.19546356768E+02  0.00000000000E+00 0. -1.
        -11    1    4    4    0    0  0.38538831671E+02  0.12604757203E+02  0.77314932490E+02  0.87302464092E+02  0.00000000000E+00 0. -1.
         11    1    4    4    0    0 -0.43599602520E+02  0.67950017370E+01  0.27098689562E+02  0.51782587464E+02  0.00000000000E+00 0.  1.
         21    1    1    2  502  501 -0.27718535368E+02 -0.15910858858E+02 -0.77964102263E+02  0.84260749310E+02  0.00000000000E+00 0.  1.
<scales pt_clust_5="13000.00000" pt_clust_6="13000.00000" pt_clust_7="13000.00000" pt_clust_8="13000.00000" pt_clust_9="31.96049"></scales>
<clustering>
<clus scale="   31.960">  2  9  1 -1</clus>
<clus scale="   78.032">  5  6 -1 -1</clus>
<clus scale="   80.404">  2  5  1 -1</clus>
<clus scale="   89.669">  7  8 -1 -1</clus>
<clus scale="   91.740">  1  5  2 -1</clus>
</clustering>
</event>
<event>
 9    2  0.5608219E-005  0.1447844E+03  0.7546771E-02  0.1208072E+00
         -1   -1    0    0    0  501 -0.00000000000E+00  0.00000000000E+00  0.21206073280E+03  0.21206073280E+03  0.00000000000E+00 0.  1.
          2   -1    0    0  502    0  0.00000000000E+00 -0.00000000000E+00 -0.74184260463E+03  0.74184260463E+03  0.00000000000E+00 0. -1.
         23    2    1    2    0    0  0.68528940652E+02  0.87118369617E+02  0.16814476894E+03  0.22153082781E+03  0.92289860309E+02 0.  0.
         24    2    1    2    0    0 -0.10684582474E+03 -0.80356046850E+02 -0.65614286772E+03  0.67527788373E+03  0.87198812254E+02 0.  0.
        -11    1    4    4    0    0 -0.16100166336E+02 -0.58110853288E+02 -0.35131685293E+03  0.35645422957E+03  0.00000000000E+00 0.  1.
         12    1    4    4    0    0 -0.90745658404E+02 -0.22245193562E+02 -0.30482601479E+03  0.31882365416E+03  0.00000000000E+00 0. -1.
        -11    1    3    3    0    0  0.20314862812E+02  0.81557259852E+02  0.60833066876E+02  0.10375423997E+03  0.00000000000E+00 0. -1.
         11    1    3    3    0    0  0.48214077840E+02  0.55611097655E+01  0.10731170206E+03  0.11777658784E+03  0.00000000000E+00 0.  1.
         21    1    1    2  502  501  0.38316884088E+02 -0.67623227671E+01 -0.41783773047E+02  0.57094625890E+02  0.00000000000E+00 0.  1.
<scales pt_clust_5="13000.00000" pt_clust_6="13000.00000" pt_clust_7="13000.00000" pt_clust_8="13000.00000" pt_clust_9="38.90903"></scales>
<clustering>
<clus scale="   38.909">  2  9  1 -1</clus>
<clus scale="   87.199">  5  6 -1 -1</clus>
<clus scale="   92.290">  7  8 -1 -1</clus>
<clus scale="  141.594">  2  5  1 -1</clus>
<clus scale="   38.909">  2  5  1 -1</clus>
</clustering>
</event>
<event>
 9    2  0.5608219E-005  0.2348943E+03  0.7546771E-02  0.1124164E+00
          2   -1    0    0  502    0  0.00000000000E+00  0.00000000000E+00  0.77213253965E+03  0.77213253965E+03  0.00000000000E+00 0. -1.
         -1   -1    0    0    0  501 -0.00000000000E+00 -0.00000000000E+00 -0.13738971642E+03  0.13738971642E+03  0.00000000000E+00 0.  1.
         24    2    1    2    0    0 -0.13904542185E+02 -0.23282541057E+03  0.84735070448E+02  0.26065155375E+03  0.79738273167E+02 0.  0.
         23    2    1    2    0    0  0.50535244707E+01  0.21067229218E+03  0.57177542932E+03  0.61657623049E+03  0.93972089633E+02 0.  0.
        -11    1    3    3    0    0 -0.29926369268E+02 -0.17500410654E+03  0.92424664563E+02  0.20016079412E+03  0.00000000000E+00 0.  1.
         12    1    3    3    0    0  0.16021827083E+02 -0.57821304024E+02 -0.76895941153E+01  0.60490759623E+02  0.00000000000E+00 0. -1.
        -13    1    4    4    0    0  0.44748317498E+02  0.16105378712E+03  0.41927649482E+03  0.45136848956E+03  0.00000000000E+00 0.  1.
         13    1    4    4    0    0 -0.39694793027E+02  0.49618505063E+02  0.15249893450E+03  0.16520774093E+03  0.00000000000E+00 0. -1.
         21    1    1    2  502  501  0.88510177147E+01  0.22153118387E+02 -0.21767676542E+02  0.32294471832E+02  0.00000000000E+00 0.  1.
<scales pt_clust_5="13000.00000" pt_clust_6="13000.00000" pt_clust_7="13000.00000" pt_clust_8="13000.00000" pt_clust_9="23.85584"></scales>
<clustering>
<clus scale="   23.856">  2  9  1 -1</clus>
<clus scale="   79.738">  5  6 -1 -1</clus>
<clus scale="   93.972">  7  8 -1 -1</clus>
<clus scale="  229.571">  2  5  1 -1</clus>
<clus scale="  234.894">  1  5  2 -1</clus>
</clustering>
</event>
<event>
 9    2  0.5608219E-005  0.1061779E+03  0.7546771E-02  0.1272192E+00
         -1   -1    0    0    0  501 -0.00000000000E+00  0.00000000000E+00  0.87697941700E+02  0.87697941700E+02  0.00000000000E+00 0.  1.
          2   -1    0    0  502    0  0.00000000000E+00 -0.00000000000E+00 -0.28304900309E+03  0.28304900309E+03  0.00000000000E+00 0. -1.
         24    2    1    2    0    0  0.27512770817E+01  0.25720357786E+02  0.30830782055E+02  0.89559455016E+02  0.80007827933E+02 0.  0.
         23    2    1    2    0    0  0.72212398693E+01 -0.62103050317E+02 -0.21566140854E+03  0.24202333575E+03  0.90313436134E+02 0.  0.
        -11    1    3    3    0    0  0.22581499438E+02 -0.16089206541E+01  0.46965307894E+02  0.52136866880E+02  0.00000000000E+00 0.  1.
         12    1    3    3    0    0 -0.19830222357E+02  0.27329278440E+02 -0.16134525839E+02  0.37422588136E+02  0.00000000000E+00 0. -1.
        -13    1    4    4    0    0  0.33194220255E+02  0.69517470795E+01 -0.91668471460E+02  0.97740941808E+02  0.00000000000E+00 0.  1.
         13    1    4    4    0    0 -0.25972980386E+02 -0.69054797396E+02 -0.12399293708E+03  0.14428239394E+03  0.00000000000E+00 0. -1.
         21    1    1    2  502  501 -0.99725169510E+01  0.36382692531E+02 -0.10520434899E+02  0.39164154027E+02  0.00000000000E+00 0. -1.
<scales pt_clust_5="13000.00000" pt_clust_6="13000.00000" pt_clust_7="13000.00000" pt_clust_8="13000.00000" pt_clust_9="37.72468"></scales>
<clustering>
<clus scale="   37.725">  1  9  2 -1</clus>
<clus scale="   80.008">  5  6 -1 -1</clus>
<clus scale="   90.313">  7  8 -1 -1</clus>
<clus scale="   97.563">  1  5  2 -1</clus>
<clus scale="  106.178">  2  5  1 -1</clus>
</clustering>
</event>
<event>
 9    2  0.5608219E-005  0.9750797E+02  0.7546771E-02  0.1289993E+00
          2   -1    0    0  502    0  0.00000000000E+00  0.00000000000E+00  0.45275811964E+03  0.45275811964E+03  0.00000000000E+00 0. -1.
         -1   -1    0    0    0  501 -0.00000000000E+00 -0.00000000000E+00 -0.32418570422E+02  0.32418570422E+02  0.00000000000E+00 0.  1.
         24    2    1    2    0    0 -0.13770508960E+02 -0.55083001871E+02  0.12407113063E+03  0.15810847974E+03  0.79880422484E+02 0.  0.
         23    2    1    2    0    0 -0.77071922998E+01  0.34440796034E+02  0.27342354648E+03  0.28952782547E+03  0.88432780744E+02 0.  0.
        -13    1    3    3    0    0 -0.43723190624E+02 -0.35841632184E+02  0.48175222522E+02  0.74277803286E+02  0.00000000000E+00 0.  1.
         14    1    3    3    0    0  0.29952681664E+02 -0.19241369686E+02  0.75895908112E+02  0.83830676452E+02  0.00000000000E+00 0. -1.
        -13    1    4    4    0    0 -0.20189384998E+02  0.55715771551E+02  0.24419138839E+03  0.25127931198E+03  0.00000000000E+00 0. -1.
         13    1    4    4    0    0  0.12482192698E+02 -0.21274975517E+02  0.29232158086E+02  0.38248513490E+02  0.00000000000E+00 0.  1.
         21    1    1    2  502  501  0.21477701260E+02  0.20642205837E+02  0.22844872109E+02  0.37540384853E+02  0.00000000000E+00 0. -1.
<scales pt_clust_5="13000.00000" pt_clust_6="13000.00000" pt_clust_7="13000.00000" pt_clust_8="13000.00000" pt_clust_9="29.78913"></scales>
<clustering>
<clus scale="   29.789">  2  9  1 -1</clus>
<clus scale="   79.880">  5  6 -1 -1</clus>
<clus scale="   88.433">  7  8 -1 -1</clus>
<clus scale="   89.824">  2  5  1 -1</clus>
<clus scale="   97.508">  1  5  2 -1</clus>
</clustering>
</event>
<event>
 9    2  0.5608219E-005  0.1234326E+03  0.7546771E-02  0.1269939E+00
          2   -1    0    0  502    0  0.00000000000E+00  0.00000000000E+00  0.12231478341E+04  0.12231478341E+04  0.00000000000E+00 0. -1.
         -1   -1    0    0    0  501 -0.00000000000E+00 -0.00000000000E+00 -0.17390352875E+02  0.17390352875E+02  0.00000000000E+00 0.  1.
         23    2    1    2    0    0 -0.55953181360E+02 -0.48268902218E+02  0.36239622289E+03  0.38034876135E+03  0.88732815090E+02 0.  0.
         24    2    1    2    0    0 -0.75263977187E+01 -0.34493863717E+02  0.30593765144E+03  0.31273763264E+03  0.54410541314E+02 0.  0.
        -13    1    4    4    0    0 -0.12489286642E+02 -0.43145892939E+02  0.15253187877E+03  0.15900793817E+03  0.00000000000E+00 0.  1.
         14    1    4    4    0    0  0.49628889229E+01  0.86520292217E+01  0.15340577267E+03  0.15372969447E+03  0.00000000000E+00 0. -1.
        -13    1    3    3    0    0 -0.80391366307E+02 -0.35306601697E+02  0.27744389233E+03  0.29100591281E+03  0.00000000000E+00 0. -1.
         13    1    3    3    0    0  0.24438184947E+02 -0.12962300521E+02  0.84952330554E+02  0.89342848538E+02  0.00000000000E+00 0.  1.
         21    1    1    2  502  501  0.63479579078E+02  0.82762765936E+02  0.53742360692E+03  0.54745179300E+03  0.00000000000E+00 0. -1.
<scales pt_clust_5="13000.00000" pt_clust_6="13000.00000" pt_clust_7="13000.00000" pt_clust_8="13000.00000" pt_clust_9="85.80269"></scales>
<clustering>
<clus scale="   54.411">  5  6 -1 -1</clus>
<clus scale="   64.861">  1  5  2 -1</clus>
<clus scale="   85.803">  1  9  2 -1</clus>
<clus scale="   88.733">  7  8 -1 -1</clus>
<clus scale="   64.861">  1  5  2 -1</clus>
</clustering>
</event>
<event>
 9    2  0.5608219E-005  0.1047957E+03  0.7546771E-02  0.1275493E+00
         -1   -1    0    0    0  501 -0.00000000000E+00  0.00000000000E+00  0.12559882923E+03  0.12559882923E+03  0.00000000000E+00 0.  1.
          2   -1    0    0  502    0  0.00000000000E+00 -0.00000000000E+00 -0.53161447001E+03  0.53161447001E+03  0.00000000000E+00 0. -1.
         24    2    1    2    0    0  0.30516629747E+02  0.79416704680E+01  0.32795268243E+02  0.91500852654E+02  0.79388548270E+02 0.  0.
         23    2    1    2    0    0 -0.54276917365E+02  0.68093363228E+01 -0.49326456131E+03  0.50449689533E+03  0.90635749769E+02 0.  0.
        -11    1    3    3    0    0  0.72567006392E+01  0.37739294828E+02  0.37148141721E+02  0.53449962690E+02  0.00000000000E+00 0.  1.
         12    1    3    3    0    0  0.23259929107E+02 -0.29797624359E+02 -0.43528734783E+01  0.38050889964E+02  0.00000000000E+00 0. -1.
        -11    1    4    4    0    0  0.60106583993E+01 -0.32330632553E+02 -0.19046395302E+03  0.19328195781E+03  0.00000000000E+00 0.  1.
         11    1    4    4    0    0 -0.60287575764E+02  0.39139968876E+02 -0.30280060829E+03  0.31121493752E+03  0.00000000000E+00 0. -1.
         21    1    1    2  502  501  0.23760287619E+02 -0.14751006791E+02  0.54453652277E+02  0.61215551254E+02  0.00000000000E+00 0.  1.
<scales pt_clust_5="13000.00000" pt_clust_6="13000.00000" pt_clust_7="13000.00000" pt_clust_8="13000.00000" pt_clust_9="27.96683"></scales>
<clustering>
<clus scale="   27.967">  1  9  2 -1</clus>
<clus scale="   79.389">  5  6 -1 -1</clus>
<clus scale="   90.636">  7  8 -1 -1</clus>
<clus scale="   95.236">  1  5  2 -1</clus>
<clus scale="  104.796">  2  5  1 -1</clus>
</clustering>
</event>
<event>
 9    2  0.5608219E-005  0.1164830E+03  0.7546771E-02  0.1253111E+00
          2   -1    0    0  502    0  0.00000000000E+00  0.00000000000E+00  0.31639050867E+03  0.31639050867E+03  0.00000000000E+00 0. -1.
         -1   -1    0    0    0  501 -0.00000000000E+00 -0.00000000000E+00 -0.27721052224E+03  0.27721052224E+03  0.00000000000E+00 0.  1.
         24    2    1    2    0    0 -0.16701182238E+02  0.30236267897E+02 -0.21074677312E+03  0.22754970251E+03  0.78558916417E+02 0.  0.
         23    2    1    2    0    0  0.59551796406E+02 -0.46185784877E+02  0.28500533099E+03  0.30842261679E+03  0.90647276143E+02 0.  0.
        -13    1    3    3    0    0 -0.47772595984E+02  0.18606850905E+02 -0.10741822670E+03  0.11902567477E+03  0.00000000000E+00 0.  1.
         14    1    3    3    0    0  0.31071413746E+02  0.11629416993E+02 -0.10332854642E+03  0.10852402774E+03  0.00000000000E+00 0. -1.
        -11    1    4    4    0    0 -0.24261083920E+02 -0.12667045786E+02  0.58179701085E+02  0.64295659731E+02  0.00000000000E+00 0.  1.
         11    1    4    4    0    0  0.83812880326E+02 -0.33518739091E+02  0.22682562991E+03  0.24412695706E+03  0.00000000000E+00 0. -1.
         21    1    1    2  502  501 -0.42850614168E+02  0.15949516979E+02 -0.35078571455E+02  0.57628711609E+02  0.00000000000E+00 0.  1.
<scales pt_clust_5="13000.00000" pt_clust_6="13000.00000" pt_clust_7="13000.00000" pt_clust_8="13000.00000" pt_clust_9="45.72267"></scales>
<clustering>
<clus scale="   45.723">  2  9  1 -1</clus>
<clus scale="   78.559">  5  6 -1 -1</clus>
<clus scale="   90.647">  7  8 -1 -1</clus>
<clus scale="  107.345">  2  5  1 -1</clus>
<clus scale="  116.483">  1  5  2 -1</clus>
</clustering>
</event>
<event>
 9    2  0.5608219E-005  0.1746986E+03  0.7546771E-02  0.1173357E+00
         -1   -1    0    0    0  501 -0.00000000000E+00  0.00000000000E+00  0.94849311124E+02  0.94849311124E+02  0.00000000000E+00 0.  1.
          2   -1    0    0  502    0  0.00000000000E+00 -0.00000000000E+00 -0.51957467286E+03  0.51957467286E+03  0.00000000000E+00 0. -1.
         23    2    1    2    0    0 -0.15950910278E+03  0.31192749712E+02 -0.76139583915E+02  0.20165526280E+03  0.91931862119E+02 0.  0.
         24    2    1    2    0    0  0.13476603838E+03 -0.52608231322E+02 -0.33797195791E+03  0.37836675522E+03  0.89480981345E+02 0.  0.
        -11    1    4    4    0    0  0.74711807018E+02 -0.74214184634E+02 -0.19032374787E+03  0.21751489216E+03  0.00000000000E+00 0.  1.
         12    1    4    4    0    0  0.60054231357E+02  0.21605953313E+02 -0.14764821003E+03  0.16085186305E+03  0.00000000000E+00 0. -1.
        -13    1    3    3    0    0 -0.90646604040E+02  0.27179615649E+02  0.54788622738E+01  0.94792174058E+02  0.00000000000E+00 0.  1.
         13    1    3    3    0    0 -0.68862498742E+02  0.40131340637E+01 -0.81618446189E+02  0.10686308875E+03  0.00000000000E+00 0. -1.
         21    1    1    2  502  501  0.24743064406E+02  0.21415481609E+02 -0.10613819913E+02  0.34401965960E+02  0.00000000000E+00 0.  1.
<scales pt_clust_5="13000.00000" pt_clust_6="13000.00000" pt_clust_7="13000.00000" pt_clust_8="13000.00000" pt_clust_9="32.72372"></scales>
<clustering>
<clus scale="   32.724">  1  9  2 -1</clus>
<clus scale="   89.481">  5  6 -1 -1</clus>
<clus scale="   91.932">  7  8 -1 -1</clus>
<clus scale="  173.421">  2  5  1 -1</clus>
<clus scale="  173.421">  2  5  1 -1</clus>
</clustering>
</event>
<event>
 9    2  0.5608219E-005  0.1443973E+03  0.7546771E-02  0.1208966E+00
         -1   -1    0    0    0  501 -0.00000000000E+00  0.00000000000E+00  0.32142771923E+02  0.32142771923E+02  0.00000000000E+00 0.  1.
          2   -1    0    0  502    0  0.00000000000E+00 -0.00000000000E+00 -0.10409671871E+04  0.10409671871E+04  0.00000000000E+00 0. -1.
         23    2    1    2    0    0 -0.99208071403E+02  0.93106561408E+01 -0.20141662858E+03  0.24229263556E+03  0.90598748490E+02 0.  0.
         24    2    1    2    0    0  0.11289857650E+03 -0.30270078405E+02 -0.78225090903E+03  0.79532653874E+03  0.83459285362E+02 0.  0.
        -13    1    4    4    0    0  0.84416534960E+02 -0.52129477589E+02 -0.43232043553E+03  0.44355900711E+03  0.00000000000E+00 0.  1.
         14    1    4    4    0    0  0.28482041537E+02  0.21859399184E+02 -0.34993047350E+03  0.35176753163E+03  0.00000000000E+00 0. -1.
        -13    1    3    3    0    0 -0.54590546147E+02  0.10945975408E+02 -0.18740093285E+03  0.19549693537E+03  0.00000000000E+00 0. -1.
         13    1    3    3    0    0 -0.44617525257E+02 -0.16353192676E+01 -0.14015695727E+02  0.46795700186E+02  0.00000000000E+00 0.  1.
         21    1    1    2  502  501 -0.13690505094E+02  0.20959422264E+02 -0.25156877540E+02  0.35490784705E+02  0.00000000000E+00 0.  1.
<scales pt_clust_5="13000.00000" pt_clust_6="13000.00000" pt_clust_7="13000.00000" pt_clust_8="13000.00000" pt_clust_9="25.03452"></scales>
<clustering>
<clus scale="   25.035">  1  9  2 -1</clus>
<clus scale="   83.459">  5  6 -1 -1</clus>
<clus scale="   90.599">  7  8 -1 -1</clus>
<clus scale="  140.028">  2  5  1 -1</clus>
<clus scale="  140.028">  2  5  1 -1</clus>
</clustering>
</event>
<event>
 9    2  0.5608219E-005  0.1391788E+03  0.7546771E-02  0.1217177E+00
         -1   -1    0    0    0  501 -0.00000000000E+00  0.00000000000E+00  0.18275389400E+03  0.18275389400E+03  0.00000000000E+00 0.  1.
          2   -1    0    0  502    0  0.00000000000E+00 -0.00000000000E+00 -0.41806909612E+03  0.41806909612E+03  0.00000000000E+00 0. -1.
         23    2    1    2    0    0  0.58559945279E+02  0.49982997836E+02  0.11477345034E+03  0.16621900974E+03  0.92348508557E+02 0.  0.
         24    2    1    2    0    0 -0.97327927414E+02 -0.43566733572E+02 -0.36800378864E+03  0.39141744323E+03  0.80062729668E+02 0.  0.
        -13    1    4    4    0    0  0.11139836590E+02 -0.19080179410E+02 -0.65215451665E+02  0.68856403779E+02  0.00000000000E+00 0.  1.
         14    1    4    4    0    0 -0.10846776400E+03 -0.24486554163E+02 -0.30278833698E+03  0.32256103945E+03  0.00000000000E+00 0. -1.
        -13    1    3    3    0    0  0.16792732538E+02  0.29295843570E+02 -0.81658134544E+01  0.34740794837E+02  0.00000000000E+00 0. -1.
         13    1    3    3    0    0  0.41767212741E+02  0.20687154266E+02  0.12293926380E+03  0.13147821491E+03  0.00000000000E+00 0.  1.
         21    1    1    2  502  501  0.38767982135E+02 -0.64162642636E+01  0.17915136179E+02  0.43186537141E+02  0.00000000000E+00 0.  1.
<scales pt_clust_5="13000.00000" pt_clust_6="13000.00000" pt_clust_7="13000.00000" pt_clust_8="13000.00000" pt_clust_9="39.29535"></scales>
<clustering>
<clus scale="   39.295">  1  9  2 -1</clus>
<clus scale="   80.063">  5  6 -1 -1</clus>
<clus scale="   92.349">  7  8 -1 -1</clus>
<clus scale="  131.349">  2  5  1 -1</clus>
<clus scale="  131.349">  2  5  1 -1</clus>
</clustering>
</event>
<event>
 9    2  0.5608219E-005  0.2830039E+03  0.7546771E-02  0.1094416E+00
          2   -1    0    0  502    0  0.00000000000E+00  0.00000000000E+00  0.18404311329E+03  0.18404311329E+03  0.00000000000E+00 0. -1.
         -1   -1    0    0    0  501 -0.00000000000E+00 -0.00000000000E+00 -0.62316314418E+03  0.62316314418E+03  0.00000000000E+00 0.  1.
         23    2    1    2    0    0 -0.47826008431E+02  0.29100461718E+03 -0.30016939083E+03  0.43053287716E+03  0.91026813713E+02 0.  0.
         24    2    1    2    0    0 -0.32268287879E+02 -0.23536574552E+03 -0.86485534762E+02  0.26593328994E+03  0.82477211436E+02 0.  0.
        -11    1    4    4    0    0  0.75296866900E+01 -0.15152867607E+03 -0.83289625266E+02  0.17307454327E+03  0.00000000000E+00 0.  1.
         12    1    4    4    0    0 -0.39797974569E+02 -0.83837069456E+02 -0.31959094959E+01  0.92858746666E+02  0.00000000000E+00 0. -1.
        -13    1    3    3    0    0 -0.64533125173E+02  0.27851888322E+03 -0.26601806574E+03  0.39051620178E+03  0.00000000000E+00 0.  1.
         13    1    3    3    0    0  0.16707116743E+02  0.12485733967E+02 -0.34151325090E+02  0.40016675374E+02  0.00000000000E+00 0. -1.
         21    1    1    2  502  501  0.80094296310E+02 -0.55638871660E+02 -0.52465105299E+02  0.11074009037E+03  0.00000000000E+00 0.  1.
<scales pt_clust_5="13000.00000" pt_clust_6="13000.00000" pt_clust_7="13000.00000" pt_clust_8="13000.00000" pt_clust_9="97.52323"></scales>
<clustering>
<clus scale="   82.477">  5  6 -1 -1</clus>
<clus scale="   91.027">  7  8 -1 -1</clus>
<clus scale="   97.523">  1  9  2 -1</clus>
<clus scale="  280.371">  1  5  2 -1</clus>
<clus scale="   97.523">  1  5  2 -1</clus>
</clustering>
</event>
<event>
 9    2  0.5608219E-005  0.1419847E+03  0.7546771E-02  0.1214743E+00
         -3   -1    0    0    0  501 -0.00000000000E+00  0.00000000000E+00  0.52233461949E+03  0.52233461949E+03  0.00000000000E+00 0.  1.
          4   -1    0    0  502    0  0.00000000000E+00 -0.00000000000E+00 -0.69995633666E+02  0.69995633666E+02  0.00000000000E+00 0. -1.
         24    2    1    2    0    0  0.98277448823E+01 -0.12762824819E+03  0.31179648582E+03  0.34580187734E+03  0.77306762284E+02 0.  0.
         23    2    1    2    0    0 -0.98377930970E-01  0.98334715919E+02  0.42429568337E+02  0.14367450387E+03  0.95772484356E+02 0.  0.
        -13    1    3    3    0    0  0.14105224007E+02 -0.10353595411E+03  0.30178632535E+03  0.31936442711E+03  0.00000000000E+00 0.  1.
         14    1    3    3    0    0 -0.42774791246E+01 -0.24092294083E+02  0.10010160474E+02  0.26437450228E+02  0.00000000000E+00 0. -1.
        -13    1    4    4    0    0  0.46812363186E+02  0.41721986756E+02  0.10769750704E+02  0.63624751914E+02  0.00000000000E+00 0.  1.
         13    1    4    4    0    0 -0.46910741117E+02  0.56612729163E+02  0.31659817633E+02  0.80049751954E+02  0.00000000000E+00 0. -1.
         21    1    1    2  502  501 -0.97293669513E+01  0.29293532275E+02  0.98112931663E+02  0.10285387194E+03  0.00000000000E+00 0. -1.
<scales pt_clust_5="13000.00000" pt_clust_6="13000.00000" pt_clust_7="13000.00000" pt_clust_8="13000.00000" pt_clust_9="30.86700"></scales>
<clustering>
<clus scale="   30.867">  1  9  2 -1</clus>
<clus scale="   77.307">  5  6 -1 -1</clus>
<clus scale="   95.772">  7  8 -1 -1</clus>
<clus scale="  130.245">  1  5  2 -1</clus>
<clus scale="  141.985">  2  5  1 -1</clus>
</clustering>
</event>
<event>
 9    2  0.5608219E-005  0.1472469E+03  0.7546771E-02  0.1205827E+00
         -1   -1    0    0    0  501 -0.00000000000E+00  0.00000000000E+00  0.27614349967E+02  0.27614349967E+02  0.00000000000E+00 0.  1.
          2   -1    0    0  502    0  0.00000000000E+00 -0.00000000000E+00 -0.13077410207E+04  0.13077410207E+04  0.00000000000E+00 0. -1.
         23    2    1    2    0    0 -0.10188752143E+03  0.64012556931E+02 -0.30443218214E+03  0.33962818607E+03  0.90496832996E+02 0.  0.
         24    2    1    2    0    0  0.83323831308E+02 -0.79967397693E+02 -0.94952729541E+03  0.95989578031E+03  0.80375237238E+02 0.  0.
        -13    1    4    4    0    0  0.47611563240E+02 -0.47070019929E+02 -0.25399486910E+03  0.26267059458E+03  0.00000000000E+00 0.  1.
         14    1    4    4    0    0  0.35712268069E+02 -0.32897377764E+02 -0.69553242631E+03  0.69722518572E+03  0.00000000000E+00 0. -1.
        -11    1    3    3    0    0 -0.10778753377E+02  0.26021879264E+02 -0.11346215834E+02  0.30365380593E+02  0.00000000000E+00 0.  1.
         11    1    3    3    0    0 -0.91108768056E+02  0.37990677667E+02 -0.29308596631E+03  0.30926280548E+03  0.00000000000E+00 0. -1.
         21    1    1    2  502  501  0.18563690124E+02  0.15954840762E+02 -0.26167193197E+02  0.35831404306E+02  0.00000000000E+00 0.  1.
<scales pt_clust_5="13000.00000" pt_clust_6="13000.00000" pt_clust_7="13000.00000" pt_clust_8="13000.00000" pt_clust_9="24.47790"></scales>
<clustering>
<clus scale="   24.478">  1  9  2 -1</clus>
<clus scale="   80.375">  5  6 -1 -1</clus>
<clus scale="   90.497">  7  8 -1 -1</clus>
<clus scale="  141.252">  2  5  1 -1</clus>
<clus scale="  141.252">  2  5  1 -1</clus>
</clustering>
</event>
<event>
 9    2  0.5608219E-005  0.1523927E+03  0.7546771E-02  0.1199274E+00
          2   -1    0    0  502    0  0.00000000000E+00  0.00000000000E+00  0.29633248953E+03  0.29633248953E+03  0.00000000000E+00 0. -1.
         -1   -1    0    0    0  501 -0.00000000000E+00 -0.00000000000E+00 -0.29226181398E+03  0.29226181398E+03  0.00000000000E+00 0.  1.
         24    2    1    2    0    0 -0.62052703940E+02  0.80184124804E+02 -0.21124031113E+03  0.24789572298E+03  0.80930763552E+02 0.  0.
         23    2    1    2    0    0  0.86430500383E+02 -0.89670303523E+02  0.25217247682E+03  0.29549864689E+03  0.90650413760E+02 0.  0.
        -11    1    3    3    0    0 -0.56682918306E+02  0.76792318657E+02 -0.21838764356E+03  0.23833416937E+03  0.00000000000E+00 0.  1.
         12    1    3    3    0    0 -0.53697856337E+01  0.33918061470E+01  0.71473324230E+01  0.95615536110E+01  0.00000000000E+00 0. -1.
        -11    1    4    4    0    0  0.10053785250E+03 -0.55384727270E+02  0.21018939473E+03  0.23948885038E+03  0.00000000000E+00 0. -1.
         11    1    4    4    0    0 -0.14107352115E+02 -0.34285576253E+02  0.41983082091E+02  0.56009796505E+02  0.00000000000E+00 0.  1.
         21    1    1    2  502  501 -0.24377796444E+02  0.94861787194E+01 -0.36861490131E+02  0.45199933637E+02  0.00000000000E+00 0.  1.
<scales pt_clust_5="13000.00000" pt_clust_6="13000.00000" pt_clust_7="13000.00000" pt_clust_8="13000.00000" pt_clust_9="26.15845"></scales>
<clustering>
<clus scale="   26.158">  2  9  1 -1</clus>
<clus scale="   80.931">  5  6 -1 -1</clus>
<clus scale="   90.650">  7  8 -1 -1</clus>
<clus scale="  146.819">  2  5  1 -1</clus>
<clus scale="  152.393">  1  5  2 -1</clus>
</clustering>
</event>
<event>
 9    2  0.5608219E-005  0.9229441E+02  0.7546771E-02  0.1303862E+00
          4   -1    0    0  502    0  0.00000000000E+00  0.00000000000E+00  0.80023978752E+02  0.80023978752E+02  0.00000000000E+00 0. -1.
         -3   -1    0    0    0  501 -0.00000000000E+00 -0.00000000000E+00 -0.35620279748E+03  0.35620279748E+03  0.00000000000E+00 0.  1.
         24    2    1    2    0    0  0.11863950934E+02  0.15290936074E+02 -0.20650928621E+03  0.22261134771E+03  0.80840341283E+02 0.  0.
         23    2    1    2    0    0  0.93605782570E+01 -0.10874887438E+02  0.40785569099E+02  0.10105294988E+03  0.91336479192E+02 0.  0.
        -11    1    3    3    0    0 -0.26734861385E+01 -0.32676683339E+02 -0.89632408660E+02  0.95440462302E+02  0.00000000000E+00 0.  1.
         12    1    3    3    0    0  0.14537437073E+02  0.47967619413E+02 -0.11687687755E+03  0.12717088541E+03  0.00000000000E+00 0. -1.
        -13    1    4    4    0    0 -0.29598000156E+02 -0.22336330172E+02 -0.76340525236E+01  0.37858050883E+02  0.00000000000E+00 0.  1.
         13    1    4    4    0    0  0.38958578413E+02  0.11461442734E+02  0.48419621622E+02  0.63194898999E+02  0.00000000000E+00 0. -1.
         21    1    1    2  502  501 -0.21224529191E+02 -0.44160486362E+01 -0.11045510162E+03  0.11256247864E+03  0.00000000000E+00 0.  1.
<scales pt_clust_5="13000.00000" pt_clust_6="13000.00000" pt_clust_7="13000.00000" pt_clust_8="13000.00000" pt_clust_9="21.67907"></scales>
<clustering>
<clus scale="   21.679">  2  9  1 -1</clus>
<clus scale="   80.840">  5  6 -1 -1</clus>
<clus scale="   81.921">  2  5  1 -1</clus>
<clus scale="   91.336">  7  8 -1 -1</clus>
<clus scale="   92.294">  1  5  2 -1</clus>
</clustering>
</event>
<event>
 9    2  0.5608219E-005  0.1310809E+03  0.7546771E-02  0.1226070E+00
          2   -1    0    0  502    0  0.00000000000E+00  0.00000000000E+00  0.21822874566E+03  0.21822874566E+03  0.00000000000E+00 0. -1.
         -1   -1    0    0    0  501 -0.00000000000E+00 -0.00000000000E+00 -0.24262124851E+03  0.24262124851E+03  0.00000000000E+00 0.  1.
         24    2    1    2    0    0 -0.45364675268E+02 -0.32048881275E+01 -0.11482452070E+03  0.15288430240E+03  0.90115005944E+02 0.  0.
         23    2    1    2    0    0  0.10255222469E+03  0.14810175780E+02  0.16388221961E+03  0.21415721322E+03  0.90937505876E+02 0.  0.
        -11    1    3    3    0    0 -0.16350988693E+01  0.21822806754E+02 -0.97001986458E+02  0.99439900542E+02  0.00000000000E+00 0.  1.
         12    1    3    3    0    0 -0.43729576399E+02 -0.25027694881E+02 -0.17822534239E+02  0.53444401856E+02  0.00000000000E+00 0. -1.
        -13    1    4    4    0    0 -0.20488503502E-01  0.22635630155E+02  0.24957590860E+01  0.22772812424E+02  0.00000000000E+00 0.  1.
         13    1    4    4    0    0  0.10257271319E+03 -0.78254543751E+01  0.16138646052E+03  0.19138440080E+03  0.00000000000E+00 0. -1.
         21    1    1    2  502  501 -0.57187549421E+02 -0.11605287652E+02 -0.73450201760E+02  0.93808478555E+02  0.00000000000E+00 0.  1.
<scales pt_clust_5="13000.00000" pt_clust_6="13000.00000" pt_clust_7="13000.00000" pt_clust_8="13000.00000" pt_clust_9="58.35322"></scales>
<clustering>
<clus scale="   58.353">  2  9  1 -1</clus>
<clus scale="   90.115">  5  6 -1 -1</clus>
<clus scale="   90.938">  7  8 -1 -1</clus>
<clus scale="  130.512">  2  5  1 -1</clus>
<clus scale="  131.081">  1  5  2 -1</clus>
</clustering>
</event>
<event>
 9    2  0.5608219E-005  0.9122064E+02  0.7546771E-02  0.1309488E+00
          2   -1    0    0  502    0  0.00000000000E+00  0.00000000000E+00  0.39850188397E+02  0.39850188397E+02  0.00000000000E+00 0. -1.
         -1   -1    0    0    0  501 -0.00000000000E+00 -0.00000000000E+00 -0.44005188225E+03  0.44005188225E+03  0.00000000000E+00 0.  1.
         24    2    1    2    0    0 -0.37274220389E+02  0.22956413429E+02 -0.25220166852E+03  0.26699082625E+03  0.75908202933E+02 0.  0.
         23    2    1    2    0    0  0.21915537788E+01  0.56154257052E+01 -0.47132379801E+02  0.10236068853E+03  0.90663738157E+02 0.  0.
        -13    1    3    3    0    0  0.20374326763E+02  0.21241342825E+02 -0.71961612454E+02  0.77748192924E+02  0.00000000000E+00 0.  1.
         14    1    3    3    0    0 -0.57648547152E+02  0.17150706037E+01 -0.18024005607E+03  0.18924263332E+03  0.00000000000E+00 0. -1.
        -13    1    4    4    0    0  0.62894321329E+01  0.36066161778E+02  0.95949409370E+01  0.37846900449E+02  0.00000000000E+00 0. -1.
         13    1    4    4    0    0 -0.40978783541E+01 -0.30450736073E+02 -0.56727320738E+02  0.64513788081E+02  0.00000000000E+00 0.  1.
         21    1    1    2  502  501  0.35082666610E+02 -0.28571839134E+02 -0.10086764553E+03  0.11055055587E+03  0.00000000000E+00 0.  1.
<scales pt_clust_5="13000.00000" pt_clust_6="13000.00000" pt_clust_7="13000.00000" pt_clust_8="13000.00000" pt_clust_9="45.24537"></scales>
<clustering>
<clus scale="   45.245">  2  9  1 -1</clus>
<clus scale="   75.908">  5  6 -1 -1</clus>
<clus scale="   76.572">  2  5  1 -1</clus>
<clus scale="   90.664">  7  8 -1 -1</clus>
<clus scale="   91.221">  1  5  2 -1</clus>
</clustering>
</event>
<event>
 9    2  0.5608219E-005  0.1196576E+03  0.7546771E-02  0.1248686E+00
         -1   -1    0    0    0  501 -0.00000000000E+00  0.00000000000E+00  0.16288466165E+03  0.16288466165E+03  0.00000000000E+00 0.  1.
          2   -1    0    0  502    0  0.00000000000E+00 -0.00000000000E+00 -0.31162683512E+03  0.31162683512E+03  0.00000000000E+00 0. -1.
         23    2    1    2    0    0  0.91925928726E+02 -0.45676348985E+02  0.17049429434E+02  0.14259645957E+03  0.97500574401E+02 0.  0.
         24    2    1    2    0    0 -0.58392166041E+02 -0.41071513004E+02 -0.20388204075E+03  0.23141336431E+03  0.82992435836E+02 0.  0.
        -11    1    4    4    0    0  0.44469827048E+01  0.19541546463E+02 -0.22624617740E+02  0.30224510272E+02  0.00000000000E+00 0.  1.
         12    1    4    4    0    0 -0.62839148746E+02 -0.60613059467E+02 -0.18125742301E+03  0.20118885404E+03  0.00000000000E+00 0. -1.
        -13    1    3    3    0    0  0.10819581984E+03 -0.32129417284E+02 -0.37358079840E+01  0.11292737111E+03  0.00000000000E+00 0. -1.
         13    1    3    3    0    0 -0.16269891111E+02 -0.13546931701E+02  0.20785237418E+02  0.29669088456E+02  0.00000000000E+00 0.  1.
         21    1    1    2  502  501 -0.33533762685E+02  0.86747861989E+02  0.38090437849E+02  0.10050167290E+03  0.00000000000E+00 0.  1.
<scales pt_clust_5="13000.00000" pt_clust_6="13000.00000" pt_clust_7="13000.00000" pt_clust_8="13000.00000" pt_clust_9="93.00379"></scales>
<clustering>
<clus scale="   82.992">  5  6 -1 -1</clus>
<clus scale="   93.004">  1  9  2 -1</clus>
<clus scale="   97.501">  7  8 -1 -1</clus>
<clus scale="  108.163">  2  5  1 -1</clus>
<clus scale="  108.163">  2  5  1 -1</clus>
</clustering>
</event>
<event>
 9    2  0.5608219E-005  0.1109315E+03  0.7546771E-02  0.1269301E+00
         -1   -1    0    0    0  501 -0.00000000000E+00  0.00000000000E+00  0.80076970179E+02  0.80076970179E+02  0.00000000000E+00 0.  1.
          2   -1    0    0  502    0  0.00000000000E+00 -0.00000000000E+00 -0.71589083253E+03  0.71589083253E+03  0.00000000000E+00 0. -1.
         23    2    1    2    0    0 -0.32515077187E+02  0.60083582480E+02  0.29671531036E+02  0.11588818406E+03  0.88782905576E+02 0.  0.
         24    2    1    2    0    0  0.34339086912E+02 -0.27343369851E+02 -0.61672738963E+03  0.62132086215E+03  0.61319718375E+02 0.  0.
        -13    1    4    4    0    0  0.60574795616E+01 -0.23149601989E+02 -0.72579735388E+02  0.76422608696E+02  0.00000000000E+00 0.  1.
         14    1    4    4    0    0  0.28281607351E+02 -0.41937678622E+01 -0.54414765424E+03  0.54489825346E+03  0.00000000000E+00 0. -1.
        -11    1    3    3    0    0 -0.36145603215E+02  0.31562264099E+01  0.44042081933E+02  0.57062872149E+02  0.00000000000E+00 0.  1.
         11    1    3    3    0    0  0.36305260274E+01  0.56927356070E+02 -0.14370550897E+02  0.58825311911E+02  0.00000000000E+00 0. -1.
         21    1    1    2  502  501 -0.18240097251E+01 -0.32740212629E+02 -0.48758003752E+02  0.58758756490E+02  0.00000000000E+00 0. -1.
<scales pt_clust_5="13000.00000" pt_clust_6="13000.00000" pt_clust_7="13000.00000" pt_clust_8="13000.00000" pt_clust_9="32.79098"></scales>
<clustering>
<clus scale="   32.791">  2  9  1 -1</clus>
<clus scale="   61.320">  5  6 -1 -1</clus>
<clus scale="   88.783">  7  8 -1 -1</clus>
<clus scale="   90.463">  2  5  1 -1</clus>
<clus scale="   32.791">  2  5  1 -1</clus>
</clustering>
</event>
<event>
 9    2  0.5608219E-005  0.1191213E+03  0.7546771E-02  0.1247197E+00
          2   -1    0    0  502    0  0.00000000000E+00  0.00000000000E+00  0.13183324468E+03  0.13183324468E+03  0.00000000000E+00 0. -1.
         -1   -1    0    0    0  501 -0.00000000000E+00 -0.00000000000E+00 -0.14620556948E+03  0.14620556948E+03  0.00000000000E+00 0.  1.
         23    2    1    2    0    0 -0.67404529514E+02 -0.36792043268E+02 -0.24900099346E+02  0.11934328840E+03  0.87896419101E+02 0.  0.
         24    2    1    2    0    0  0.60013323564E+02  0.58042225752E+02  0.39727252732E+02  0.12183348963E+03  0.79338802683E+02 0.  0.
        -11    1    4    4    0    0  0.66549508433E+01  0.31513531268E+02 -0.19635164293E+02  0.37721753678E+02  0.00000000000E+00 0.  1.
         12    1    4    4    0    0  0.53358372721E+02  0.26528694484E+02  0.59362417025E+02  0.84111735956E+02  0.00000000000E+00 0. -1.
        -11    1    3    3    0    0 -0.48918629655E+02 -0.46863293791E+02 -0.51733133056E+02  0.85238006125E+02  0.00000000000E+00 0.  1.
         11    1    3    3    0    0 -0.18485899858E+02  0.10071250523E+02  0.26833033710E+02  0.34105282271E+02  0.00000000000E+00 0. -1.
         21    1    1    2  502  501  0.73912059497E+01 -0.21250182485E+02 -0.29199478188E+02  0.36862036127E+02  0.00000000000E+00 0. -1.
<scales pt_clust_5="13000.00000" pt_clust_6="13000.00000" pt_clust_7="13000.00000" pt_clust_8="13000.00000" pt_clust_9="22.49889"></scales>
<clustering>
<clus scale="   22.499">  2  9  1 -1</clus>
<clus scale="   79.339">  5  6 -1 -1</clus>
<clus scale="   87.896">  7  8 -1 -1</clus>
<clus scale="  112.955">  1  5  2 -1</clus>
<clus scale="  112.955">  1  5  2 -1</clus>
</clustering>
</event>
<event>
 9    2  0.5608219E-005  0.1162547E+03  0.7546771E-02  0.1254921E+00
          2   -1    0    0  502    0  0.00000000000E+00  0.00000000000E+00  0.41790467312E+03  0.41790467312E+03  0.00000000000E+00 0. -1.
         -1   -1    0    0    0  501 -0.00000000000E+00 -0.00000000000E+00 -0.94691901053E+02  0.94691901053E+02  0.00000000000E+00 0.  1.
         24    2    1    2    0    0  0.70497256000E+02 -0.32744811604E+02 -0.37853997131E+02  0.11681435238E+03  0.78553052341E+02 0.  0.
         23    2    1    2    0    0 -0.97880868288E+01  0.56903022377E+01  0.23291499250E+03  0.25142008144E+03  0.93991900896E+02 0.  0.
        -13    1    3    3    0    0  0.67881542260E+02 -0.51265700760E+02 -0.13536751822E+02  0.86135471810E+02  0.00000000000E+00 0.  1.
         14    1    3    3    0    0  0.26157137403E+01  0.18520889156E+02 -0.24317245309E+02  0.30678880568E+02  0.00000000000E+00 0. -1.
        -13    1    4    4    0    0  0.30670497900E+02  0.22696238659E+02  0.47732146625E+02  0.61107745108E+02  0.00000000000E+00 0.  1.
         13    1    4    4    0    0 -0.40458584729E+02 -0.17005936421E+02  0.18518284588E+03  0.19031233633E+03  0.00000000000E+00 0. -1.
         21    1    1    2  502  501 -0.60709169172E+02  0.27054509367E+02  0.12815177669E+03  0.14436214035E+03  0.00000000000E+00 0. -1.
<scales pt_clust_5="13000.00000" pt_clust_6="13000.00000" pt_clust_7="13000.00000" pt_clust_8="13000.00000" pt_clust_9="66.46465"></scales>
<clustering>
<clus scale="   66.465">  1  9  2 -1</clus>
<clus scale="   78.553">  5  6 -1 -1</clus>
<clus scale="   93.992">  7  8 -1 -1</clus>
<clus scale="  104.169">  2  5  1 -1</clus>
<clus scale="   66.465">  1  5  2 -1</clus>
</clustering>
</event>
<event>
 9    2  0.5608219E-005  0.1068418E+03  0.7546771E-02  0.1271050E+00
          2   -1    0    0  502    0  0.00000000000E+00  0.00000000000E+00  0.82624399164E+02  0.82624399164E+02  0.00000000000E+00 0. -1.
         -1   -1    0    0    0  501 -0.00000000000E+00 -0.00000000000E+00 -0.21518316320E+03  0.21518316320E+03  0.00000000000E+00 0.  1.
         23    2    1    2    0    0  0.65807537497E+01 -0.29665761673E+02 -0.99017718978E+02  0.13798836189E+03  0.91175191861E+02 0.  0.
         24    2    1    2    0    0 -0.24195349202E+02  0.61528961961E+02  0.81286874201E+01  0.10448472559E+03  0.80496920682E+02 0.  0.
        -13    1    4    4    0    0 -0.85445807809E+01  0.56547158458E+02 -0.28826947644E+02  0.64043609367E+02  0.00000000000E+00 0.  1.
         14    1    4    4    0    0 -0.15650768421E+02  0.49818035030E+01  0.36955635064E+02  0.40441116222E+02  0.00000000000E+00 0. -1.
        -11    1    3    3    0    0  0.29253546694E+02 -0.53141405820E+02 -0.79359203613E+02  0.99888248582E+02  0.00000000000E+00 0.  1.
         11    1    3    3    0    0 -0.22672792944E+02  0.23475644147E+02 -0.19658515365E+02  0.38100113312E+02  0.00000000000E+00 0. -1.
         21    1    1    2  502  501  0.17614595452E+02 -0.31863200288E+02 -0.41669732475E+02  0.55334474879E+02  0.00000000000E+00 0. -1.
<scales pt_clust_5="13000.00000" pt_clust_6="13000.00000" pt_clust_7="13000.00000" pt_clust_8="13000.00000" pt_clust_9="36.40793"></scales>
<clustering>
<clus scale="   36.408">  2  9  1 -1</clus>
<clus scale="   80.497">  5  6 -1 -1</clus>
<clus scale="   91.175">  7  8 -1 -1</clus>
<clus scale="   97.888">  1  5  2 -1</clus>
<clus scale="   97.888">  1  5  2 -1</clus>
</clustering>
</event>
<event>
 9    2  0.5608219E-005  0.1108582E+03  0.7546771E-02  0.1264011E+00
          2   -1    0    0  502    0  0.00000000000E+00  0.00000000000E+00  0.12764725674E+04  0.12764725674E+04  0.00000000000E+00 0. -1.
         -1   -1    0    0    0  501 -0.00000000000E+00 -0.00000000000E+00 -0.25899936269E+03  0.25899936269E+03  0.00000000000E+00 0.  1.
         23    2    1    2    0    0  0.34868668713E+01 -0.50789095981E+02  0.37482413437E+03  0.39032886890E+03  0.96290205527E+02 0.  0.
         24    2    1    2    0    0  0.73793680579E+02  0.11621246397E+02  0.88274960979E+03  0.88988892796E+03  0.84112245648E+02 0.  0.
        -11    1    4    4    0    0  0.26189622599E+02  0.38350395878E+02  0.21748345877E+03  0.22238638455E+03  0.00000000000E+00 0.  1.
         12    1    4    4    0    0  0.47604057980E+02 -0.26729149481E+02  0.66526615102E+03  0.66750254341E+03  0.00000000000E+00 0. -1.
        -11    1    3    3    0    0  0.26829817568E+01  0.19863959221E+02  0.19210487789E+02  0.27763611223E+02  0.00000000000E+00 0. -1.
         11    1    3    3    0    0  0.80388511448E+00 -0.70653055202E+02  0.35561364658E+03  0.36256525768E+03  0.00000000000E+00 0.  1.
         21    1    1    2  502  501 -0.77280547450E+02  0.39167849584E+02 -0.24010053948E+03  0.25525413320E+03  0.00000000000E+00 0.  1.
<scales pt_clust_5="13000.00000" pt_clust_6="13000.00000" pt_clust_7="13000.00000" pt_clust_8="13000.00000" pt_clust_9="86.63950"></scales>
<clustering>
<clus scale="   84.112">  5  6 -1 -1</clus>
<clus scale="   86.640">  2  9  1 -1</clus>
<clus scale="   96.290">  7  8 -1 -1</clus>
<clus scale="  100.462">  1  5  2 -1</clus>
<clus scale="  100.462">  1  5  2 -1</clus>
</clustering>
</event>
<event>
 9    2  0.5608219E-005  0.1514260E+03  0.7546771E-02  0.1200595E+00
         -1   -1    0    0    0  501 -0.00000000000E+00  0.00000000000E+00  0.25631079020E+02  0.25631079020E+02  0.00000000000E+00 0.  1.
          2   -1    0    0  502    0  0.00000000000E+00 -0.00000000000E+00 -0.14307414140E+04  0.14307414140E+04  0.00000000000E+00 0. -1.
         23    2    1    2    0    0 -0.62060273559E+02 -0.99328137999E+02 -0.28403631134E+03  0.32045464573E+03  0.91087854615E+02 0.  0.
         24    2    1    2    0    0  0.88220994501E+02  0.10138727929E+03 -0.95317255528E+03  0.96597807425E+03  0.80705610219E+02 0.  0.
        -13    1    4    4    0    0  0.99201595711E+02  0.10475680142E+03 -0.84863696212E+03  0.86081335811E+03  0.00000000000E+00 0.  1.
         14    1    4    4    0    0 -0.10980601210E+02 -0.33695221263E+01 -0.10453559317E+03  0.10516471614E+03  0.00000000000E+00 0. -1.
        -13    1    3    3    0    0  0.17759695969E+02 -0.50428724218E+02 -0.12431236208E+03  0.13532193611E+03  0.00000000000E+00 0.  1.
         13    1    3    3    0    0 -0.79819969528E+02 -0.48899413781E+02 -0.15972394926E+03  0.18513270962E+03  0.00000000000E+00 0. -1.
         21    1    1    2  502  501 -0.26160720942E+02 -0.20591412928E+01 -0.16790146839E+03  0.16993977307E+03  0.00000000000E+00 0. -1.
<scales pt_clust_5="13000.00000" pt_clust_6="13000.00000" pt_clust_7="13000.00000" pt_clust_8="13000.00000" pt_clust_9="26.24163"></scales>
<clustering>
<clus scale="   26.242">  2  9  1 -1</clus>
<clus scale="   80.706">  5  6 -1 -1</clus>
<clus scale="   91.088">  7  8 -1 -1</clus>
<clus scale="  145.417">  2  5  1 -1</clus>
<clus scale="   26.242">  2  5  1 -1</clus>
</clustering>
</event>
<event>
 9    2  0.5608219E-005  0.2062802E+03  0.7546771E-02  0.1145629E+00
          4   -1    0    0  502    0  0.00000000000E+00  0.00000000000E+00  0.91748143488E+03  0.91748143488E+03  0.00000000000E+00 0. -1.
         -3   -1    0    0    0  501 -0.00000000000E+00 -0.00000000000E+00 -0.12851499972E+03  0.12851499972E+03  0.00000000000E+00 0.  1.
         23    2    1    2    0    0  0.97323822475E+02 -0.17296997418E+03  0.82861333604E+02  0.23501929611E+03  0.94749831386E+02 0.  0.
         24    2    1    2    0    0 -0.19302011226E+03  0.27573191888E+02  0.48770359686E+03  0.53169731209E+03  0.82644955343E+02 0.  0.
        -11    1    4    4    0    0 -0.17598426394E+03  0.36901171822E+02  0.35875859557E+03  0.40129775421E+03  0.00000000000E+00 0.  1.
         12    1    4    4    0    0 -0.17035848320E+02 -0.93279799342E+01  0.12894500130E+03  0.13039955789E+03  0.00000000000E+00 0. -1.
        -13    1    3    3    0    0  0.18036577425E+02 -0.14384171793E+02  0.49491869055E+02  0.54604648391E+02  0.00000000000E+00 0.  1.
         13    1    3    3    0    0  0.79287245050E+02 -0.15858580239E+03  0.33369464549E+02  0.18041464772E+03  0.00000000000E+00 0. -1.
         21    1    1    2  502  501  0.95696289788E+02  0.14539678230E+03  0.21840150469E+03  0.27927982639E+03  0.00000000000E+00 0. -1.
<scales pt_clust_5="13000.00000" pt_clust_6="13000.00000" pt_clust_7="13000.00000" pt_clust_8="13000.00000" pt_clust_9="174.06322"></scales>
<clustering>
<clus scale="   82.645">  5  6 -1 -1</clus>
<clus scale="   94.750">  7  8 -1 -1</clus>
<clus scale="  174.063">  1  9  2 -1</clus>
<clus scale="  201.008">  1  5  2 -1</clus>
<clus scale="  174.063">  1  5  2 -1</clus>
</clustering>
</event>
<event>
 9    2  0.5608219E-005  0.1712367E+03  0.7546771E-02  0.1178601E+00
          2   -1    0    0  502    0  0.00000000000E+00  0.00000000000E+00  0.24836812039E+03  0.24836812039E+03  0.00000000000E+00 0. -1.
         -1   -1    0    0    0  501 -0.00000000000E+00 -0.00000000000E+00 -0.35536679559E+03  0.35536679559E+03  0.00000000000E+00 0.  1.
         24    2    1    2    0    0 -0.76906560038E+02 -0.12702458862E+03 -0.16368958923E+03  0.23500144649E+03  0.79884498728E+02 0.  0.
         23    2    1    2    0    0  0.50527498122E+02  0.13276748747E+03  0.17672415525E+03  0.24570170615E+03  0.94644955289E+02 0.  0.
        -13    1    3    3    0    0 -0.83096376814E+02 -0.99343468329E+02 -0.16082610557E+03  0.20649253926E+03  0.00000000000E+00 0.  1.
         14    1    3    3    0    0  0.61898167759E+01 -0.27681120296E+02 -0.28634836646E+01  0.28508907226E+02  0.00000000000E+00 0. -1.
        -11    1    4    4    0    0  0.77139112535E+02  0.10772916557E+03  0.12341701116E+03  0.18107394744E+03  0.00000000000E+00 0. -1.
         11    1    4    4    0    0 -0.26611614414E+02  0.25038321897E+02  0.53307144088E+02  0.64627758710E+02  0.00000000000E+00 0.  1.
         21    1    1    2  502  501  0.26379061917E+02 -0.57428988465E+01 -0.12003324121E+03  0.12303176334E+03  0.00000000000E+00 0. -1.
<scales pt_clust_5="13000.00000" pt_clust_6="13000.00000" pt_clust_7="13000.00000" pt_clust_8="13000.00000" pt_clust_9="26.99696"></scales>
<clustering>
<clus scale="   26.997">  2  9  1 -1</clus>
<clus scale="   79.884">  5  6 -1 -1</clus>
<clus scale="   94.645">  7  8 -1 -1</clus>
<clus scale="  163.542">  2  5  1 -1</clus>
<clus scale="  171.237">  1  5  2 -1</clus>
</clustering>
</event>
<event>
 9    2  0.5608219E-005  0.1394222E+03  0.7546771E-02  0.1255062E+00
          4   -1    0    0  502    0  0.00000000000E+00  0.00000000000E+00  0.69369058484E+03  0.69369058484E+03  0.00000000000E+00 0. -1.
         -3   -1    0    0    0  501 -0.00000000000E+00 -0.00000000000E+00 -0.33446495286E+02  0.33446495286E+02  0.00000000000E+00 0.  1.
         24    2    1    2    0    0  0.45044079139E+01 -0.30207073663E+02  0.10980998419E+03  0.12523979648E+03  0.51903920916E+02 0.  0.
         23    2    1    2    0    0 -0.12195498862E+02 -0.84169751284E+02  0.29692237496E+03  0.32367182036E+03  0.96784675017E+02 0.  0.
        -13    1    3    3    0    0  0.21205809662E+01 -0.34021420571E+02  0.30314412605E+02  0.45617075014E+02  0.00000000000E+00 0.  1.
         14    1    3    3    0    0  0.23838269477E+01  0.38143469072E+01  0.79495571581E+02  0.79622721470E+02  0.00000000000E+00 0. -1.
        -13    1    4    4    0    0  0.17651466350E+02 -0.91697208900E+02  0.18019034643E+03  0.20294953395E+03  0.00000000000E+00 0.  1.
         13    1    4    4    0    0 -0.29846965212E+02  0.75274576164E+01  0.11673202853E+03  0.12072228641E+03  0.00000000000E+00 0. -1.
         21    1    1    2  502  501  0.76910909482E+01  0.11437682495E+03  0.25351173041E+03  0.27822546329E+03  0.00000000000E+00 0. -1.
<scales pt_clust_5="13000.00000" pt_clust_6="13000.00000" pt_clust_7="13000.00000" pt_clust_8="13000.00000" pt_clust_9="100.35571"></scales>
<clustering>
<clus scale="   51.904">  5  6 -1 -1</clus>
<clus scale="   60.223">  2  5  1 -1</clus>
<clus scale="   96.785">  7  8 -1 -1</clus>
<clus scale="  100.356">  2  9  1 -1</clus>
<clus scale="  139.422">  1  5  2 -1</clus>
</clustering>
</event>
<event>
 9    2  0.5608219E-005  0.1760416E+03  0.7546771E-02  0.1172446E+00
          2   -1    0    0  502    0  0.00000000000E+00  0.00000000000E+00  0.12228194569E+03  0.12228194569E+03  0.00000000000E+00 0. -1.
         -1   -1    0    0    0  501 -0.00000000000E+00 -0.00000000000E+00 -0.40647099071E+03  0.40647099071E+03  0.00000000000E+00 0.  1.
         23    2    1    2    0    0  0.66522980921E+02  0.11030940225E+03 -0.16154329953E+03  0.22572238768E+03  0.90889424362E+02 0.  0.
         24    2    1    2    0    0 -0.15116340829E+02 -0.17008039280E+03 -0.53230928337E+02  0.19798945773E+03  0.84914367835E+02 0.  0.
        -13    1    4    4    0    0 -0.49158862091E+02 -0.12399175987E+03 -0.35908251825E+02  0.13813020229E+03  0.00000000000E+00 0.  1.
         14    1    4    4    0    0  0.34042521261E+02 -0.46088632933E+02 -0.17322676512E+02  0.59859255433E+02  0.00000000000E+00 0. -1.
        -11    1    3    3    0    0  0.20906815747E+02  0.44023678936E+02 -0.13079961829E+03  0.13958409435E+03  0.00000000000E+00 0.  1.
         11    1    3    3    0    0  0.45616165174E+02  0.66285723314E+02 -0.30743681236E+02  0.86138293322E+02  0.00000000000E+00 0. -1.
         21    1    1    2  502  501 -0.51406640092E+02  0.59770990547E+02 -0.69414817158E+02  0.10504109100E+03  0.00000000000E+00 0.  1.
<scales pt_clust_5="13000.00000" pt_clust_6="13000.00000" pt_clust_7="13000.00000" pt_clust_8="13000.00000" pt_clust_9="78.83663"></scales>
<clustering>
<clus scale="   78.837">  2  9  1 -1</clus>
<clus scale="   84.914">  5  6 -1 -1</clus>
<clus scale="   90.889">  7  8 -1 -1</clus>
<clus scale="  173.032">  1  5  2 -1</clus>
<clus scale="  173.032">  1  5  2 -1</clus>
</clustering>
</event>
<event>
 9    2  0.5608219E-005  0.2504163E+03  0.7546771E-02  0.1114265E+00
         -3   -1    0    0    0  501 -0.00000000000E+00  0.00000000000E+00  0.17044812633E+03  0.17044812633E+03  0.00000000000E+00 0.  1.
          4   -1    0    0  502    0  0.00000000000E+00 -0.00000000000E+00 -0.68895349680E+03  0.68895349680E+03  0.00000000000E+00 0. -1.
         24    2    1    2    0    0  0.34978504552E+02 -0.18674394805E+03 -0.16827117854E+03  0.26575009296E+03  0.78810687516E+02 0.  0.
         23    2    1    2    0    0 -0.76620642344E+02  0.25561284604E+03 -0.40580881768E+03  0.49584799354E+03  0.99878858098E+02 0.  0.
        -13    1    3    3    0    0  0.86068994813E+01 -0.17728672690E+03 -0.14143747995E+03  0.22695643412E+03  0.00000000000E+00 0.  1.
         14    1    3    3    0    0  0.26371605071E+02 -0.94572211428E+01 -0.26833698592E+02  0.38793658836E+02  0.00000000000E+00 0. -1.
        -13    1    4    4    0    0  0.15638355531E+02  0.11926372530E+03 -0.16882343703E+03  0.20729145479E+03  0.00000000000E+00 0.  1.
         13    1    4    4    0    0 -0.92258997875E+02  0.13634912074E+03 -0.23698538065E+03  0.28855653876E+03  0.00000000000E+00 0. -1.
         21    1    1    2  502  501  0.41642137792E+02 -0.68868897998E+02  0.55574625748E+02  0.97803536635E+02  0.00000000000E+00 0.  1.
<scales pt_clust_5="13000.00000" pt_clust_6="13000.00000" pt_clust_7="13000.00000" pt_clust_8="13000.00000" pt_clust_9="80.47977"></scales>
<clustering>
<clus scale="   78.811">  5  6 -1 -1</clus>
<clus scale="   80.480">  1  9  2 -1</clus>
<clus scale="   99.879">  7  8 -1 -1</clus>
<clus scale="  242.783">  1  5  2 -1</clus>
<clus scale="  250.416">  2  5  1 -1</clus>
</clustering>
</event>
<event>
 9    2  0.5608219E-005  0.1017586E+03  0.7546771E-02  0.1279184E+00
         -1   -1    0    0    0  501 -0.00000000000E+00  0.00000000000E+00  0.11461742020E+03  0.11461742020E+03  0.00000000000E+00 0.  1.
          2   -1    0    0  502    0  0.00000000000E+00 -0.00000000000E+00 -0.14908567697E+03  0.14908567697E+03  0.00000000000E+00 0. -1.
         24    2    1    2    0    0  0.41597180293E+01 -0.21897241752E+02  0.40493241867E+02  0.98383852540E+02  0.86849797659E+02 0.  0.
         23    2    1    2    0    0 -0.30257405827E+02  0.41845174567E+02 -0.79386998720E+02  0.13217419397E+03  0.92201912914E+02 0.  0.
        -11    1    3    3    0    0  0.85776778275E+01  0.33248186896E+02  0.16028590763E+02  0.37893722575E+02  0.00000000000E+00 0.  1.
         12    1    3    3    0    0 -0.44179597983E+01 -0.55145428648E+02  0.24464651105E+02  0.60490129965E+02  0.00000000000E+00 0. -1.
        -13    1    4    4    0    0  0.27614161516E+02  0.38812050445E+02 -0.33058378246E+02  0.57980803273E+02  0.00000000000E+00 0.  1.
         13    1    4    4    0    0 -0.57871567343E+02  0.30331241221E+01 -0.46328620474E+02  0.74193390701E+02  0.00000000000E+00 0. -1.
         21    1    1    2  502  501  0.26097687798E+02 -0.19947932815E+02  0.44255000795E+01  0.33145050655E+02  0.00000000000E+00 0.  1.
<scales pt_clust_5="13000.00000" pt_clust_6="13000.00000" pt_clust_7="13000.00000" pt_clust_8="13000.00000" pt_clust_9="32.84828"></scales>
<clustering>
<clus scale="   32.848">  1  9  2 -1</clus>
<clus scale="   86.850">  5  6 -1 -1</clus>
<clus scale="   92.202">  7  8 -1 -1</clus>
<clus scale="   96.936">  1  5  2 -1</clus>
<clus scale="  101.759">  2  5  1 -1</clus>
</clustering>
</event>
<event>
 9    2  0.5608219E-005  0.9513391E+02  0.7546771E-02  0.1297036E+00
         -1   -1    0    0    0  501 -0.00000000000E+00  0.00000000000E+00  0.51716080313E+02  0.51716080313E+02  0.00000000000E+00 0.  1.
          2   -1    0    0  502    0  0.00000000000E+00 -0.00000000000E+00 -0.27008474491E+03  0.27008474491E+03  0.00000000000E+00 0. -1.
         24    2    1    2    0    0  0.36958332363E+02 -0.24834509044E+02 -0.34193517098E+02  0.98226103491E+02  0.80600866155E+02 0.  0.
         23    2    1    2    0    0 -0.81223530591E+01  0.19219161878E+02 -0.16040056525E+03  0.18578217502E+03  0.91385591962E+02 0.  0.
        -13    1    3    3    0    0  0.40791097075E+01  0.28142719477E+02 -0.32584447652E+01  0.28622879971E+02  0.00000000000E+00 0.  1.
         14    1    3    3    0    0  0.32879222656E+02 -0.52977228521E+02 -0.30935072333E+02  0.69603223520E+02  0.00000000000E+00 0. -1.
        -11    1    4    4    0    0 -0.65511283452E+01  0.52305533543E+02 -0.59049875114E+02  0.79156009707E+02  0.00000000000E+00 0.  1.
         11    1    4    4    0    0 -0.15712247138E+01 -0.33086371665E+02 -0.10135069014E+03  0.10662616531E+03  0.00000000000E+00 0. -1.
         21    1    1    2  502  501 -0.28835979304E+02  0.56153471660E+01 -0.23774582246E+02  0.37792546715E+02  0.00000000000E+00 0. -1.
<scales pt_clust_5="13000.00000" pt_clust_6="13000.00000" pt_clust_7="13000.00000" pt_clust_8="13000.00000" pt_clust_9="29.37764"></scales>
<clustering>
<clus scale="   29.378">  1  9  2 -1</clus>
<clus scale="   80.601">  5  6 -1 -1</clus>
<clus scale="   84.827">  1  5  2 -1</clus>
<clus scale="   91.386">  7  8 -1 -1</clus>
<clus scale="   95.134">  2  5  1 -1</clus>
</clustering>
</event>
<event>
 9    2  0.5608219E-005  0.1043932E+03  0.7546771E-02  0.1278669E+00
          2   -1    0    0  502    0  0.00000000000E+00  0.00000000000E+00  0.25617764716E+03  0.25617764716E+03  0.00000000000E+00 0. -1.
         -1   -1    0    0    0  501 -0.00000000000E+00 -0.00000000000E+00 -0.77657486277E+02  0.77657486277E+02  0.00000000000E+00 0.  1.
         23    2    1    2    0    0  0.25749033197E+02 -0.19380084271E+02  0.39293052744E+02  0.10833138976E+03  0.95672073439E+02 0.  0.
         24    2    1    2    0    0 -0.46986815447E+02  0.68229479787E+00  0.16352113696E+03  0.18820963473E+03  0.80470354925E+02 0.  0.
        -13    1    4    4    0    0  0.85914713005E+01  0.29347151901E+02  0.50256964492E+02  0.58828829529E+02  0.00000000000E+00 0.  1.
         14    1    4    4    0    0 -0.55578286748E+02 -0.28664857103E+02  0.11326417247E+03  0.12938080520E+03  0.00000000000E+00 0. -1.
        -11    1    3    3    0    0  0.47467411462E+02  0.69245697964E+01 -0.93964709995E+01  0.48881473843E+02  0.00000000000E+00 0.  1.
         11    1    3    3    0    0 -0.21718378265E+02 -0.26304654067E+02  0.48689523743E+02  0.59449915916E+02  0.00000000000E+00 0. -1.
         21    1    1    2  502  501  0.21237782251E+02  0.18697789473E+02 -0.24294028816E+02  0.37294108948E+02  0.00000000000E+00 0.  1.
<scales pt_clust_5="13000.00000" pt_clust_6="13000.00000" pt_clust_7="13000.00000" pt_clust_8="13000.00000" pt_clust_9="28.29577"></scales>
<clustering>
<clus scale="   28.296">  2  9  1 -1</clus>
<clus scale="   80.470">  5  6 -1 -1</clus>
<clus scale="   90.666">  1  5  2 -1</clus>
<clus scale="   95.672">  7  8 -1 -1</clus>
<clus scale="   90.666">  1  5  2 -1</clus>
</clustering>
</event>
<event>
 9    2  0.5608219E-005  0.3914016E+03  0.7546771E-02  0.1047110E+00
         -1   -1    0    0    0  501 -0.00000000000E+00  0.00000000000E+00  0.12770655831E+03  0.12770655831E+03  0.00000000000E+00 0.  1.
          2   -1    0    0  502    0  0.00000000000E+00 -0.00000000000E+00 -0.25035620347E+04  0.25035620347E+04  0.00000000000E+00 0. -1.
         23    2    1    2    0    0  0.29444359210E+03  0.16782840211E+03 -0.42217199638E+03  0.54964952043E+03  0.94984205510E+02 0.  0.
         24    2    1    2    0    0 -0.38012363738E+03 -0.10909364061E+03 -0.19343467537E+04  0.19759556856E+04  0.79423583483E+02 0.  0.
        -13    1    4    4    0    0 -0.22383983409E+02 -0.28150659609E+02 -0.14390267335E+03  0.14832896462E+03  0.00000000000E+00 0.  1.
         14    1    4    4    0    0 -0.35773965397E+03 -0.80942981004E+02 -0.17904440804E+04  0.18276267210E+04  0.00000000000E+00 0. -1.
        -11    1    3    3    0    0  0.26380666014E+03  0.15576075535E+03 -0.32311248158E+03  0.44526064569E+03  0.00000000000E+00 0.  1.
         11    1    3    3    0    0  0.30636931957E+02  0.12067646758E+02 -0.99059514795E+02  0.10438887474E+03  0.00000000000E+00 0. -1.
         21    1    1    2  502  501  0.85680045283E+02 -0.58734761493E+02 -0.19336726272E+02  0.10566338699E+03  0.00000000000E+00 0.  1.
<scales pt_clust_5="13000.00000" pt_clust_6="13000.00000" pt_clust_7="13000.00000" pt_clust_8="13000.00000" pt_clust_9="103.87898"></scales>
<clustering>
<clus scale="   79.424">  5  6 -1 -1</clus>
<clus scale="   94.984">  7  8 -1 -1</clus>
<clus scale="  103.879">  1  9  2 -1</clus>
<clus scale="  387.919">  2  5  1 -1</clus>
<clus scale="  387.919">  2  5  1 -1</clus>
</clustering>
</event>
<event>
 9    2  0.5608219E-005  0.1556353E+03  0.7546771E-02  0.1195256E+00
         -1   -1    0    0    0  501 -0.00000000000E+00  0.00000000000E+00  0.39019444420E+02  0.39019444420E+02  0.00000000000E+00 0.  1.
          2   -1    0    0  502    0  0.00000000000E+00 -0.00000000000E+00 -0.79891666439E+03  0.79891666439E+03  0.00000000000E+00 0. -1.
         24    2    1    2    0    0  0.13402160871E+03  0.36659624166E+02 -0.22712818646E+03  0.27813638412E+03  0.80417134018E+02 0.  0.
         23    2    1    2    0    0 -0.10283729747E+03 -0.29526791058E+02 -0.42177799223E+03  0.44429063491E+03  0.89722641507E+02 0.  0.
        -11    1    3    3    0    0  0.10937185000E+03  0.61166563437E+02 -0.16869683410E+03  0.21014797617E+03  0.00000000000E+00 0.  1.
         12    1    3    3    0    0  0.24649758715E+02 -0.24506939271E+02 -0.58431352361E+02  0.67988407952E+02  0.00000000000E+00 0. -1.
        -13    1    4    4    0    0 -0.55299399749E+02  0.29098415347E+02 -0.15741497664E+03  0.16936415281E+03  0.00000000000E+00 0. -1.
         13    1    4    4    0    0 -0.47537897722E+02 -0.58625206404E+02 -0.26436301559E+03  0.27492648210E+03  0.00000000000E+00 0.  1.
         21    1    1    2  502  501 -0.31184311242E+02 -0.71328331090E+01 -0.11099104128E+03  0.11550908977E+03  0.00000000000E+00 0. -1.
<scales pt_clust_5="13000.00000" pt_clust_6="13000.00000" pt_clust_7="13000.00000" pt_clust_8="13000.00000" pt_clust_9="31.98966"></scales>
<clustering>
<clus scale="   31.990">  2  9  1 -1</clus>
<clus scale="   80.417">  5  6 -1 -1</clus>
<clus scale="   89.723">  7  8 -1 -1</clus>
<clus scale="  150.463">  1  5  2 -1</clus>
<clus scale="   31.990">  2  5  1 -1</clus>
</clustering>
</event>
<event>
 9    2  0.5608219E-005  0.2021739E+03  0.7546771E-02  0.1148962E+00
         -1   -1    0    0    0  501 -0.00000000000E+00  0.00000000000E+00  0.13960587071E+03  0.13960587071E+03  0.00000000000E+00 0.  1.
          2   -1    0    0  502    0  0.00000000000E+00 -0.00000000000E+00 -0.92513094911E+03  0.92513094911E+03  0.00000000000E+00 0. -1.
         23    2    1    2    0    0 -0.94831818273E+02  0.13107947717E+03  0.10892846169E+02  0.18568886961E+03  0.90480932284E+02 0.  0.
         24    2    1    2    0    0  0.15272850004E+03 -0.10323935892E+03 -0.78935814770E+03  0.81441871229E+03  0.78785745063E+02 0.  0.
        -11    1    4    4    0    0  0.10208054931E+03 -0.78530249525E+02 -0.38074948178E+03  0.40194229252E+03  0.00000000000E+00 0.  1.
         12    1    4    4    0    0  0.50647950733E+02 -0.24709109393E+02 -0.40860866592E+03  0.41247641977E+03  0.00000000000E+00 0. -1.
        -11    1    3    3    0    0 -0.42584305995E+02  0.20506564953E+02 -0.30877556508E+02  0.56456760615E+02  0.00000000000E+00 0. -1.
         11    1    3    3    0    0 -0.52247512279E+02  0.11057291222E+03  0.41770402676E+02  0.12923210900E+03  0.00000000000E+00 0.  1.
         21    1    1    2  502  501 -0.57896681768E+02 -0.27840118254E+02 -0.70597768653E+01  0.64629237915E+02  0.00000000000E+00 0. -1.
<scales pt_clust_5="13000.00000" pt_clust_6="13000.00000" pt_clust_7="13000.00000" pt_clust_8="13000.00000" pt_clust_9="64.24249"></scales>
<clustering>
<clus scale="   64.242">  1  9  2 -1</clus>
<clus scale="   78.786">  5  6 -1 -1</clus>
<clus scale="   90.481">  7  8 -1 -1</clus>
<clus scale="  197.217">  2  5  1 -1</clus>
<clus scale="  197.217">  2  5  1 -1</clus>
</clustering>
</event>
<event>
 9    2  0.5608219E-005  0.1171804E+03  0.7546771E-02  0.1251053E+00
          2   -1    0    0  502    0  0.00000000000E+00  0.00000000000E+00  0.26795479736E+03  0.26795479736E+03  0.00000000000E+00 0. -1.
         -1   -1    0    0    0  501 -0.00000000000E+00 -0.00000000000E+00 -0.72793924031E+02  0.72793924031E+02  0.00000000000E+00 0.  1.
         23    2    1    2    0    0  0.42244633630E+02 -0.38367203981E+02  0.16071510234E+02  0.10816709882E+03  0.90471964795E+02 0.  0.
         24    2    1    2    0    0 -0.72438937062E+02  0.38587664161E+02  0.15901057231E+03  0.19632003957E+03  0.80751398761E+02 0.  0.
        -13    1    4    4    0    0 -0.41626795053E+02 -0.15287107363E+02  0.31149113450E+02  0.54191816602E+02  0.00000000000E+00 0.  1.
         14    1    4    4    0    0 -0.30812142009E+02  0.53874771524E+02  0.12786145886E+03  0.14212822297E+03  0.00000000000E+00 0. -1.
        -13    1    3    3    0    0  0.55997699194E+02 -0.95530111737E+01  0.38959375598E+02  0.68882764786E+02  0.00000000000E+00 0. -1.
         13    1    3    3    0    0 -0.13753065564E+02 -0.28814192807E+02 -0.22887865364E+02  0.39284334033E+02  0.00000000000E+00 0.  1.
         21    1    1    2  502  501  0.30194303432E+02 -0.22046018024E+00  0.20078790781E+02  0.36261583000E+02  0.00000000000E+00 0.  1.
<scales pt_clust_5="13000.00000" pt_clust_6="13000.00000" pt_clust_7="13000.00000" pt_clust_8="13000.00000" pt_clust_9="30.19511"></scales>
<clustering>
<clus scale="   30.195">  2  9  1 -1</clus>
<clus scale="   80.751">  5  6 -1 -1</clus>
<clus scale="   90.472">  7  8 -1 -1</clus>
<clus scale="  109.849">  1  5  2 -1</clus>
<clus scale="  109.849">  1  5  2 -1</clus>
</clustering>
</event>
<event>
 9    2  0.5608219E-005  0.1051323E+03  0.7546771E-02  0.1275711E+00
          2   -1    0    0  502    0  0.00000000000E+00  0.00000000000E+00  0.46250378462E+03  0.46250378462E+03  0.00000000000E+00 0. -1.
         -1   -1    0    0    0  501 -0.00000000000E+00 -0.00000000000E+00 -0.96249996022E+02  0.96249996022E+02  0.00000000000E+00 0.  1.
         23    2    1    2    0    0 -0.31637208906E+02  0.73406533670E+02 -0.16533649218E+02  0.12082024907E+03  0.89077151146E+02 0.  0.
         24    2    1    2    0    0 -0.17450605881E+02 -0.52524556107E+02  0.37187599649E+03  0.38348419641E+03  0.75531579454E+02 0.  0.
        -13    1    4    4    0    0 -0.28654831552E+02  0.78944910142E+01  0.83454269195E+02  0.88589149485E+02  0.00000000000E+00 0.  1.
         14    1    4    4    0    0  0.11204225671E+02 -0.60419047122E+02  0.28842172729E+03  0.29489504693E+03  0.00000000000E+00 0. -1.
        -11    1    3    3    0    0 -0.15822919415E+02  0.92676132045E+02 -0.18480438909E+02  0.95816266113E+02  0.00000000000E+00 0.  1.
         11    1    3    3    0    0 -0.15814289491E+02 -0.19269598375E+02  0.19467896909E+01  0.25003982958E+02  0.00000000000E+00 0. -1.
         21    1    1    2  502  501  0.49087814787E+02 -0.20881977563E+02  0.10911441329E+02  0.54449335160E+02  0.00000000000E+00 0. -1.
<scales pt_clust_5="13000.00000" pt_clust_6="13000.00000" pt_clust_7="13000.00000" pt_clust_8="13000.00000" pt_clust_9="53.34483"></scales>
<clustering>
<clus scale="   53.345">  2  9  1 -1</clus>
<clus scale="   75.532">  5  6 -1 -1</clus>
<clus scale="   89.077">  7  8 -1 -1</clus>
<clus scale="   93.931">  1  5  2 -1</clus>
<clus scale="   93.931">  1  5  2 -1</clus>
</clustering>
</event>
<event>
 9    2  0.5608219E-005  0.1144855E+03  0.7546771E-02  0.1260226E+00
         -1   -1    0    0    0  501 -0.00000000000E+00  0.00000000000E+00  0.54358146158E+02  0.54358146158E+02  0.00000000000E+00 0.  1.
          2   -1    0    0  502    0  0.00000000000E+00 -0.00000000000E+00 -0.35619577484E+03  0.35619577484E+03  0.00000000000E+00 0. -1.
         23    2    1    2    0    0 -0.64110352394E+02  0.57449996717E+02 -0.11604557173E+03  0.17261688077E+03  0.94442434330E+02 0.  0.
         24    2    1    2    0    0  0.47499682245E+02 -0.30761741523E+02 -0.18429268728E+03  0.20646601487E+03  0.73904777623E+02 0.  0.
        -13    1    4    4    0    0  0.49009887867E+02  0.11854056351E+02 -0.97867705874E+02  0.11009348579E+03  0.00000000000E+00 0.  1.
         14    1    4    4    0    0 -0.15102056222E+01 -0.42615797873E+02 -0.86424981405E+02  0.96372529075E+02  0.00000000000E+00 0. -1.
        -13    1    3    3    0    0 -0.23655521708E+02  0.31285703978E+02  0.75686094087E+01  0.39945748573E+02  0.00000000000E+00 0.  1.
         13    1    3    3    0    0 -0.40454830686E+02  0.26164292739E+02 -0.12361418114E+03  0.13267113220E+03  0.00000000000E+00 0. -1.
         21    1    1    2  502  501  0.16610670149E+02 -0.26688255195E+02 -0.14993696801E+01  0.31471025366E+02  0.00000000000E+00 0. -1.
<scales pt_clust_5="13000.00000" pt_clust_6="13000.00000" pt_clust_7="13000.00000" pt_clust_8="13000.00000" pt_clust_9="31.43529"></scales>
<clustering>
<clus scale="   31.435">  1  9  2 -1</clus>
<clus scale="   73.905">  5  6 -1 -1</clus>
<clus scale="   94.442">  7  8 -1 -1</clus>
<clus scale="   98.232">  2  5  1 -1</clus>
<clus scale="   98.232">  2  5  1 -1</clus>
</clustering>
</event>
<event>
 9    2  0.5608219E-005  0.9492945E+02  0.7546771E-02  0.1295547E+00
          4   -1    0    0  502    0  0.00000000000E+00  0.00000000000E+00  0.29620081516E+02  0.29620081516E+02  0.00000000000E+00 0. -1.
         -3   -1    0    0    0  501 -0.00000000000E+00 -0.00000000000E+00 -0.48334739880E+03  0.48334739880E+03  0.00000000000E+00 0.  1.
         24    2    1    2    0    0  0.26124398187E+02 -0.13555156248E+02 -0.30269261751E+03  0.31464547505E+03  0.80701473546E+02 0.  0.
         23    2    1    2    0    0 -0.37448944075E+02  0.36568014821E+02 -0.11742033407E+03  0.15604006372E+03  0.88438246887E+02 0.  0.
        -11    1    3    3    0    0  0.44080167973E+02  0.11672242834E+02 -0.10404159686E+03  0.11359558239E+03  0.00000000000E+00 0.  1.
         12    1    3    3    0    0 -0.17955769786E+02 -0.25227399082E+02 -0.19865102065E+03  0.20104989266E+03  0.00000000000E+00 0. -1.
        -13    1    4    4    0    0 -0.99345623846E+01  0.59195510164E+02 -0.99402218365E+02  0.11611892597E+03  0.00000000000E+00 0.  1.
         13    1    4    4    0    0 -0.27514381691E+02 -0.22627495343E+02 -0.18018115701E+02  0.39921137744E+02  0.00000000000E+00 0. -1.
         21    1    1    2  502  501  0.11324545889E+02 -0.23012858573E+02 -0.33614365713E+02  0.42281941554E+02  0.00000000000E+00 0. -1.
<scales pt_clust_5="13000.00000" pt_clust_6="13000.00000" pt_clust_7="13000.00000" pt_clust_8="13000.00000" pt_clust_9="25.64833"></scales>
<clustering>
<clus scale="   25.648">  1  9  2 -1</clus>
<clus scale="   80.701">  5  6 -1 -1</clus>
<clus scale="   87.767">  2  5  1 -1</clus>
<clus scale="   88.438">  7  8 -1 -1</clus>
<clus scale="   25.648">  1  5  2 -1</clus>
</clustering>
</event>
<event>
 9    2  0.5608219E-005  0.1661914E+03  0.7546771E-02  0.1182266E+00
         -1   -1    0    0    0  501 -0.00000000000E+00  0.00000000000E+00  0.39399424361E+02  0.39399424361E+02  0.00000000000E+00 0.  1.
          2   -1    0    0  502    0  0.00000000000E+00 -0.00000000000E+00 -0.14848059609E+04  0.14848059609E+04  0.00000000000E+00 0. -1.
         23    2    1    2    0    0  0.44672520514E+02 -0.11128677260E+03 -0.17591131834E+03  0.23185539605E+03  0.91824576838E+02 0.  0.
         24    2    1    2    0    0 -0.55411708552E+02  0.13100882500E+03 -0.12537045491E+04  0.12648975806E+04  0.89202147944E+02 0.  0.
        -11    1    4    4    0    0 -0.25159316559E+02 -0.34835385888E+01 -0.10888593995E+03  0.11180909699E+03  0.00000000000E+00 0.  1.
         12    1    4    4    0    0 -0.30252391993E+02  0.13449236359E+03 -0.11448186092E+04  0.11530884836E+04  0.00000000000E+00 0. -1.
        -11    1    3    3    0    0  0.27940644116E+02 -0.76213032906E+02 -0.39992335839E+02  0.90490291768E+02  0.00000000000E+00 0.  1.
         11    1    3    3    0    0  0.16731876398E+02 -0.35073739698E+02 -0.13591898250E+03  0.14136510428E+03  0.00000000000E+00 0. -1.
         21    1    1    2  502  501  0.10739188038E+02 -0.19722052392E+02 -0.15790669097E+02  0.27452408652E+02  0.00000000000E+00 0.  1.
<scales pt_clust_5="13000.00000" pt_clust_6="13000.00000" pt_clust_7="13000.00000" pt_clust_8="13000.00000" pt_clust_9="22.45639"></scales>
<clustering>
<clus scale="   22.456">  1  9  2 -1</clus>
<clus scale="   89.202">  5  6 -1 -1</clus>
<clus scale="   91.825">  7  8 -1 -1</clus>
<clus scale="  164.757">  2  5  1 -1</clus>
<clus scale="  164.757">  2  5  1 -1</clus>
</clustering>
</event>
<event>
 9    2  0.5608219E-005  0.1933805E+03  0.7546771E-02  0.1156537E+00
         -1   -1    0    0    0  501 -0.00000000000E+00  0.00000000000E+00  0.22630883212E+03  0.22630883212E+03  0.00000000000E+00 0.  1.
          2   -1    0    0  502    0  0.00000000000E+00 -0.00000000000E+00 -0.90492302468E+03  0.90492302468E+03  0.00000000000E+00 0. -1.
         23    2    1    2    0    0 -0.14497523614E+03  0.80859791984E+02  0.12761390880E+03  0.22848344068E+03  0.91450794916E+02 0.  0.
         24    2    1    2    0    0  0.24736234285E+03 -0.32208684281E+02 -0.69966769971E+03  0.74716831104E+03  0.80622993026E+02 0.  0.
        -13    1    4    4    0    0  0.61554121023E+02  0.21246006843E+02 -0.12662750266E+03  0.14238970136E+03  0.00000000000E+00 0.  1.
         14    1    4    4    0    0  0.18580822182E+03 -0.53454691124E+02 -0.57304019704E+03  0.60477860968E+03  0.00000000000E+00 0. -1.
        -13    1    3    3    0    0 -0.74083209181E+02  0.87078549744E+02  0.55208370273E+02  0.12696046572E+03  0.00000000000E+00 0. -1.
         13    1    3    3    0    0 -0.70892026964E+02 -0.62187577592E+01  0.72405538525E+02  0.10152297496E+03  0.00000000000E+00 0.  1.
         21    1    1    2  502  501 -0.10238710670E+03 -0.48651107703E+02 -0.10656040165E+03  0.15558010509E+03  0.00000000000E+00 0. -1.
<scales pt_clust_5="13000.00000" pt_clust_6="13000.00000" pt_clust_7="13000.00000" pt_clust_8="13000.00000" pt_clust_9="113.35806"></scales>
<clustering>
<clus scale="   80.623">  5  6 -1 -1</clus>
<clus scale="   91.451">  7  8 -1 -1</clus>
<clus scale="  113.358">  2  9  1 -1</clus>
<clus scale="  188.502">  2  5  1 -1</clus>
<clus scale="  113.358">  2  5  1 -1</clus>
</clustering>
</event>
<event>
 9    2  0.5608219E-005  0.1427389E+03  0.7546771E-02  0.1211565E+00
         -1   -1    0    0    0  501 -0.00000000000E+00  0.00000000000E+00  0.27257615510E+03  0.27257615510E+03  0.00000000000E+00 0.  1.
          2   -1    0    0  502    0  0.00000000000E+00 -0.00000000000E+00 -0.41913022219E+03  0.41913022219E+03  0.00000000000E+00 0. -1.
         23    2    1    2    0    0  0.14116401034E+03 -0.35031390110E+02  0.11787472701E+03  0.20825389061E+03  0.91218175697E+02 0.  0.
         24    2    1    2    0    0 -0.10739331279E+03 -0.27140724177E+01 -0.35488195522E+03  0.37978496856E+03  0.82187166781E+02 0.  0.
        -13    1    4    4    0    0 -0.43051338482E+02  0.32071687741E+02 -0.88191120443E+02  0.10324574870E+03  0.00000000000E+00 0.  1.
         14    1    4    4    0    0 -0.64341974309E+02 -0.34785760158E+02 -0.26669083478E+03  0.27653921986E+03  0.00000000000E+00 0. -1.
        -11    1    3    3    0    0  0.45418659853E+02 -0.22377784371E+02  0.97038974463E+02  0.10945401985E+03  0.00000000000E+00 0.  1.
         11    1    3    3    0    0  0.95745350489E+02 -0.12653605738E+02  0.20835752550E+02  0.98799870763E+02  0.00000000000E+00 0. -1.
         21    1    1    2  502  501 -0.33770697551E+02  0.37745462527E+02  0.90453161127E+02  0.10366751812E+03  0.00000000000E+00 0.  1.
<scales pt_clust_5="13000.00000" pt_clust_6="13000.00000" pt_clust_7="13000.00000" pt_clust_8="13000.00000" pt_clust_9="50.64761"></scales>
<clustering>
<clus scale="   50.648">  1  9  2 -1</clus>
<clus scale="   82.187">  5  6 -1 -1</clus>
<clus scale="   91.218">  7  8 -1 -1</clus>
<clus scale="  137.144">  2  5  1 -1</clus>
<clus scale="  137.144">  2  5  1 -1</clus>
</clustering>
</event>
<event>
 9    2  0.5608219E-005  0.1159949E+03  0.7546771E-02  0.1258003E+00
          2   -1    0    0  502    0  0.00000000000E+00  0.00000000000E+00  0.52345778326E+03  0.52345778326E+03  0.00000000000E+00 0. -1.
         -1   -1    0    0    0  501 -0.00000000000E+00 -0.00000000000E+00 -0.72719939133E+02  0.72719939133E+02  0.00000000000E+00 0.  1.
         23    2    1    2    0    0 -0.21241908959E+02  0.70328687385E+02 -0.88509528238E+01  0.11810223179E+03  0.92045938657E+02 0.  0.
         24    2    1    2    0    0  0.27891696973E+02 -0.41696131362E+02  0.42110080072E+03  0.42964648277E+03  0.68947093211E+02 0.  0.
        -13    1    4    4    0    0  0.15871316658E+02  0.18095734372E+02  0.13311285179E+03  0.13527152548E+03  0.00000000000E+00 0.  1.
         14    1    4    4    0    0  0.12020380315E+02 -0.59791865734E+02  0.28798794893E+03  0.29437495729E+03  0.00000000000E+00 0. -1.
        -11    1    3    3    0    0 -0.80084295986E+01  0.90639069706E+02 -0.16922789567E+02  0.92552453822E+02  0.00000000000E+00 0.  1.
         11    1    3    3    0    0 -0.13233479360E+02 -0.20310382321E+02  0.80718367433E+01  0.25549777972E+02  0.00000000000E+00 0. -1.
         21    1    1    2  502  501 -0.66497880136E+01 -0.28632556024E+02  0.38487996228E+02  0.48429007823E+02  0.00000000000E+00 0.  1.
<scales pt_clust_5="13000.00000" pt_clust_6="13000.00000" pt_clust_7="13000.00000" pt_clust_8="13000.00000" pt_clust_9="29.39461"></scales>
<clustering>
<clus scale="   29.395">  1  9  2 -1</clus>
<clus scale="   68.947">  5  6 -1 -1</clus>
<clus scale="   92.046">  7  8 -1 -1</clus>
<clus scale="   98.671">  1  5  2 -1</clus>
<clus scale="   29.395">  1  5  2 -1</clus>
</clustering>
</event>
<event>
 9    2  0.5608219E-005  0.1804755E+03  0.7546771E-02  0.1168886E+00
         -1   -1    0    0    0  501 -0.00000000000E+00  0.00000000000E+00  0.10267274972E+03  0.10267274972E+03  0.00000000000E+00 0.  1.
          2   -1    0    0  502    0  0.00000000000E+00 -0.00000000000E+00 -0.75791733643E+03  0.75791733643E+03  0.00000000000E+00 0. -1.
         23    2    1    2    0    0 -0.16264128187E+03  0.94338937503E+02 -0.57843077833E+02  0.21766305197E+03  0.93163087340E+02 0.  0.
         24    2    1    2    0    0  0.13637240137E+03 -0.61203600295E+02 -0.56419281269E+03  0.58916066778E+03  0.80333368023E+02 0.  0.
        -11    1    4    4    0    0  0.40716510525E+02  0.25750142260E+01 -0.63791229611E+02  0.75721766375E+02  0.00000000000E+00 0.  1.
         12    1    4    4    0    0  0.95655890847E+02 -0.63778614521E+02 -0.50040158308E+03  0.51343890141E+03  0.00000000000E+00 0. -1.
        -13    1    3    3    0    0 -0.48459461478E+02  0.45755043291E+01  0.20295833856E+02  0.52736851617E+02  0.00000000000E+00 0.  1.
         13    1    3    3    0    0 -0.11418182039E+03  0.89763433174E+02 -0.78138911689E+02  0.16492620035E+03  0.00000000000E+00 0. -1.
         21    1    1    2  502  501  0.26268880496E+02 -0.33135337209E+02 -0.33208696181E+02  0.53766366406E+02  0.00000000000E+00 0. -1.
<scales pt_clust_5="13000.00000" pt_clust_6="13000.00000" pt_clust_7="13000.00000" pt_clust_8="13000.00000" pt_clust_9="42.28480"></scales>
<clustering>
<clus scale="   42.285">  1  9  2 -1</clus>
<clus scale="   80.333">  5  6 -1 -1</clus>
<clus scale="   93.163">  7  8 -1 -1</clus>
<clus scale="  174.200">  2  5  1 -1</clus>
<clus scale="  174.200">  2  5  1 -1</clus>
</clustering>
</event>
<event>
 9    2  0.5608219E-005  0.2085337E+03  0.7546771E-02  0.1144404E+00
          2   -1    0    0  502    0  0.00000000000E+00  0.00000000000E+00  0.12929440543E+04  0.12929440543E+04  0.00000000000E+00 0. -1.
         -1   -1    0    0    0  501 -0.00000000000E+00 -0.00000000000E+00 -0.10554403423E+03  0.10554403423E+03  0.00000000000E+00 0.  1.
         24    2    1    2    0    0 -0.60695479981E+02 -0.19471207795E+03  0.68657306038E+02  0.22974496059E+03  0.80449901499E+02 0.  0.
         23    2    1    2    0    0  0.77149865076E+02  0.16403439504E+03  0.11147172439E+04  0.11336992779E+04  0.99096591128E+02 0.  0.
        -11    1    3    3    0    0 -0.49589646699E+02 -0.19921063097E+03  0.71579909764E+02  0.21741134292E+03  0.00000000000E+00 0.  1.
         12    1    3    3    0    0 -0.11105833283E+02  0.44985530129E+01 -0.29226037267E+01  0.12333617663E+02  0.00000000000E+00 0. -1.
        -13    1    4    4    0    0  0.43204885009E+02  0.65462728032E+01  0.18212735451E+03  0.18729626008E+03  0.00000000000E+00 0.  1.
         13    1    4    4    0    0  0.33944980067E+02  0.15748812224E+03  0.93258988941E+03  0.94640301782E+03  0.00000000000E+00 0. -1.
         21    1    1    2  502  501 -0.16454385094E+02  0.30677682915E+02  0.40254701268E+01  0.35043850068E+02  0.00000000000E+00 0.  1.
<scales pt_clust_5="13000.00000" pt_clust_6="13000.00000" pt_clust_7="13000.00000" pt_clust_8="13000.00000" pt_clust_9="34.81188"></scales>
<clustering>
<clus scale="   34.812">  2  9  1 -1</clus>
<clus scale="   80.450">  5  6 -1 -1</clus>
<clus scale="   99.097">  7  8 -1 -1</clus>
<clus scale="  200.346">  2  5  1 -1</clus>
<clus scale="  208.534">  1  5  2 -1</clus>
</clustering>
</event>
<event>
 9    2  0.5608219E-005  0.1000740E+03  0.7546771E-02  0.1284663E+00
         -1   -1    0    0    0  501 -0.00000000000E+00  0.00000000000E+00  0.60263152931E+02  0.60263152931E+02  0.00000000000E+00 0.  1.
          2   -1    0    0  502    0  0.00000000000E+00 -0.00000000000E+00 -0.34716192391E+03  0.34716192391E+03  0.00000000000E+00 0. -1.
         24    2    1    2    0    0  0.43470513535E+02  0.27996291818E+02 -0.40499226854E+02  0.10322509782E+03  0.79635140117E+02 0.  0.
         23    2    1    2    0    0 -0.46413984395E+02  0.12366868437E+02 -0.24345351060E+03  0.26362254884E+03  0.88994601242E+02 0.  0.
        -11    1    3    3    0    0 -0.10485884878E+02  0.32620434671E+02 -0.34691976343E+02  0.48760432344E+02  0.00000000000E+00 0.  1.
         12    1    3    3    0    0  0.53956398413E+02 -0.46241428530E+01 -0.58072505108E+01  0.54464665475E+02  0.00000000000E+00 0. -1.
        -11    1    4    4    0    0 -0.54050890180E+02 -0.27133248649E+02 -0.15774303653E+03  0.16893956755E+03  0.00000000000E+00 0.  1.
         11    1    4    4    0    0  0.76369057847E+01  0.39500117085E+02 -0.85710474075E+02  0.94682981290E+02  0.00000000000E+00 0. -1.
         21    1    1    2  502  501  0.29434708600E+01 -0.40363160255E+02 -0.29460335211E+01  0.40577430180E+02  0.00000000000E+00 0.  1.
<scales pt_clust_5="13000.00000" pt_clust_6="13000.00000" pt_clust_7="13000.00000" pt_clust_8="13000.00000" pt_clust_9="40.47034"></scales>
<clustering>
<clus scale="   40.470">  1  9  2 -1</clus>
<clus scale="   79.635">  5  6 -1 -1</clus>
<clus scale="   88.995">  7  8 -1 -1</clus>
<clus scale="   91.851">  1  5  2 -1</clus>
<clus scale="  100.074">  2  5  1 -1</clus>
</clustering>
</event>
<event>
 9    2  0.5608219E-005  0.1081610E+03  0.7546771E-02  0.1267724E+00
         -1   -1    0    0    0  501 -0.00000000000E+00  0.00000000000E+00  0.32340489297E+03  0.32340489297E+03  0.00000000000E+00 0.  1.
          2   -1    0    0  502    0  0.00000000000E+00 -0.00000000000E+00 -0.31575362178E+03  0.31575362178E+03  0.00000000000E+00 0. -1.
         23    2    1    2    0    0 -0.11306768097E+02 -0.15272506718E+02  0.10704963543E+03  0.14319010363E+03  0.93180946890E+02 0.  0.
         24    2    1    2    0    0  0.43423590635E+02  0.37657623684E+02 -0.28685686605E+03  0.30446573843E+03  0.84313815200E+02 0.  0.
        -13    1    4    4    0    0 -0.42853039450E+01  0.34017087059E+02 -0.38550379881E+02  0.51591257310E+02  0.00000000000E+00 0.  1.
         14    1    4    4    0    0  0.47708894580E+02  0.36405366251E+01 -0.24830648617E+03  0.25287448112E+03  0.00000000000E+00 0. -1.
        -11    1    3    3    0    0  0.30245866999E+02 -0.22352817747E+02  0.90324608945E+02  0.97841688011E+02  0.00000000000E+00 0.  1.
         11    1    3    3    0    0 -0.41552635096E+02  0.70803110290E+01  0.16725026490E+02  0.45348415614E+02  0.00000000000E+00 0. -1.
         21    1    1    2  502  501 -0.32116822538E+02 -0.22385116966E+02  0.18745850181E+03  0.19150267270E+03  0.00000000000E+00 0.  1.
<scales pt_clust_5="13000.00000" pt_clust_6="13000.00000" pt_clust_7="13000.00000" pt_clust_8="13000.00000" pt_clust_9="39.14823"></scales>
<clustering>
<clus scale="   39.148">  1  9  2 -1</clus>
<clus scale="   84.314">  5  6 -1 -1</clus>
<clus scale="   93.181">  7  8 -1 -1</clus>
<clus scale="  100.623">  2  5  1 -1</clus>
<clus scale="  100.623">  2  5  1 -1</clus>
</clustering>
</event>
<event>
 9    2  0.5608219E-005  0.9644767E+02  0.7546771E-02  0.1293609E+00
         -1   -1    0    0    0  501 -0.00000000000E+00  0.00000000000E+00  0.26382243113E+03  0.26382243113E+03  0.00000000000E+00 0.  1.
          2   -1    0    0  502    0  0.00000000000E+00 -0.00000000000E+00 -0.72368605735E+03  0.72368605735E+03  0.00000000000E+00 0. -1.
         23    2    1    2    0    0 -0.29901064770E+02 -0.29341503938E+02  0.18256408190E+03  0.20799434205E+03  0.90426792464E+02 0.  0.
         24    2    1    2    0    0 -0.24733288803E+02  0.23364891261E+02 -0.69679996332E+03  0.70220325053E+03  0.80009764768E+02 0.  0.
        -13    1    4    4    0    0  0.28250687841E+02  0.51312155899E+01 -0.16722659719E+03  0.16967370316E+03  0.00000000000E+00 0.  1.
         14    1    4    4    0    0 -0.52983976644E+02  0.18233675671E+02 -0.52957336613E+03  0.53252954737E+03  0.00000000000E+00 0. -1.
        -13    1    3    3    0    0  0.20686999218E+02  0.13423636587E+02  0.95282559917E+02  0.98422112252E+02  0.00000000000E+00 0.  1.
         13    1    3    3    0    0 -0.50588063988E+02 -0.42765140525E+02  0.87281521983E+02  0.10957222979E+03  0.00000000000E+00 0. -1.
         21    1    1    2  502  501  0.54634353572E+02  0.59766126767E+01  0.54372255196E+02  0.77310895897E+02  0.00000000000E+00 0.  1.
<scales pt_clust_5="13000.00000" pt_clust_6="13000.00000" pt_clust_7="13000.00000" pt_clust_8="13000.00000" pt_clust_9="54.96028"></scales>
<clustering>
<clus scale="   54.960">  1  9  2 -1</clus>
<clus scale="   80.010">  5  6 -1 -1</clus>
<clus scale="   86.757">  2  5  1 -1</clus>
<clus scale="   90.427">  7  8 -1 -1</clus>
<clus scale="   86.757">  2  5  1 -1</clus>
</clustering>
</event>
<event>
 9    2  0.5608219E-005  0.1219566E+03  0.7546771E-02  0.1242833E+00
         -1   -1    0    0    0  501 -0.00000000000E+00  0.00000000000E+00  0.48344260603E+02  0.48344260603E+02  0.00000000000E+00 0.  1.
          2   -1    0    0  502    0  0.00000000000E+00 -0.00000000000E+00 -0.69743998685E+03  0.69743998685E+03  0.00000000000E+00 0. -1.
         23    2    1    2    0    0 -0.62083970192E+02 -0.49175636669E+02 -0.60372473647E+02  0.13333182682E+03  0.88655952260E+02 0.  0.
         24    2    1    2    0    0  0.34595091213E+02  0.64302673697E+02 -0.54603583790E+03  0.55947430166E+03  0.97594588807E+02 0.  0.
        -13    1    4    4    0    0  0.17007537114E+02 -0.25345941649E+02 -0.13439089625E+03  0.13781359175E+03  0.00000000000E+00 0.  1.
         14    1    4    4    0    0  0.17587554099E+02  0.89648615346E+02 -0.41164494165E+03  0.42166070990E+03  0.00000000000E+00 0. -1.
        -13    1    3    3    0    0 -0.19624943656E+02 -0.54819948878E+02 -0.68322010028E+02  0.89767824206E+02  0.00000000000E+00 0.  1.
         13    1    3    3    0    0 -0.42459026536E+02  0.56443122083E+01  0.79495363813E+01  0.43564002609E+02  0.00000000000E+00 0. -1.
         21    1    1    2  502  501  0.27488878980E+02 -0.15127037027E+02 -0.42687414699E+02  0.52978118978E+02  0.00000000000E+00 0.  1.
<scales pt_clust_5="13000.00000" pt_clust_6="13000.00000" pt_clust_7="13000.00000" pt_clust_8="13000.00000" pt_clust_9="31.37620"></scales>
<clustering>
<clus scale="   31.376">  1  9  2 -1</clus>
<clus scale="   88.656">  7  8 -1 -1</clus>
<clus scale="   97.595">  5  6 -1 -1</clus>
<clus scale="  114.929">  1  7  2 -1</clus>
<clus scale="  121.957">  2  5  1 -1</clus>
</clustering>
</event>
<event>
 9    2  0.5608219E-005  0.1448686E+03  0.7546771E-02  0.1212143E+00
         -1   -1    0    0    0  501 -0.00000000000E+00  0.00000000000E+00  0.73934279167E+02  0.73934279167E+02  0.00000000000E+00 0.  1.
          2   -1    0    0  502    0  0.00000000000E+00 -0.00000000000E+00 -0.40015944485E+03  0.40015944485E+03  0.00000000000E+00 0. -1.
         24    2    1    2    0    0 -0.97289238446E+02  0.53006168542E+02 -0.55864007244E+02  0.14750571862E+03  0.79764026343E+02 0.  0.
         23    2    1    2    0    0  0.97553504123E+02 -0.21123000606E+02 -0.25179431919E+03  0.28969174876E+03  0.10275243455E+03 0.  0.
        -11    1    3    3    0    0 -0.30700871364E+02 -0.19884952027E+02 -0.65969407843E+01  0.37168191338E+02  0.00000000000E+00 0.  1.
         12    1    3    3    0    0 -0.66588367082E+02  0.72891120569E+02 -0.49267066459E+02  0.11033752728E+03  0.00000000000E+00 0. -1.
        -13    1    4    4    0    0  0.11163931908E+03  0.30650353101E+01 -0.22372597108E+03  0.25005207886E+03  0.00000000000E+00 0. -1.
         13    1    4    4    0    0 -0.14085814959E+02 -0.24188035916E+02 -0.28068348105E+02  0.39639669901E+02  0.00000000000E+00 0.  1.
         21    1    1    2  502  501 -0.26426567748E+00 -0.31883167936E+02 -0.18566839250E+02  0.36896256636E+02  0.00000000000E+00 0.  1.
<scales pt_clust_5="13000.00000" pt_clust_6="13000.00000" pt_clust_7="13000.00000" pt_clust_8="13000.00000" pt_clust_9="31.88426"></scales>
<clustering>
<clus scale="   31.884">  1  9  2 -1</clus>
<clus scale="   79.764">  5  6 -1 -1</clus>
<clus scale="  102.752">  7  8 -1 -1</clus>
<clus scale="  129.581">  1  5  2 -1</clus>
<clus scale="  144.869">  2  5  1 -1</clus>
</clustering>
</event>
<event>
 9    2  0.5608219E-005  0.1252512E+03  0.7546771E-02  0.1239366E+00
         -1   -1    0    0    0  501 -0.00000000000E+00  0.00000000000E+00  0.54639412730E+03  0.54639412730E+03  0.00000000000E+00 0.  1.
          2   -1    0    0  502    0  0.00000000000E+00 -0.00000000000E+00 -0.39960773845E+03  0.39960773845E+03  0.00000000000E+00 0. -1.
         23    2    1    2    0    0  0.27729745776E+02 -0.10604622653E+03  0.25888628247E+03  0.29585139481E+03  0.92147705326E+02 0.  0.
         24    2    1    2    0    0  0.32768911327E+02  0.78147173109E+02 -0.36828128465E+03  0.38544809128E+03  0.75883754705E+02 0.  0.
        -13    1    4    4    0    0 -0.20566218250E+02  0.33655077803E+02 -0.83909220052E+02  0.92716723436E+02  0.00000000000E+00 0.  1.
         14    1    4    4    0    0  0.53335129577E+02  0.44492095305E+02 -0.28437206460E+03  0.29273136784E+03  0.00000000000E+00 0. -1.
        -13    1    3    3    0    0  0.37452578889E+02 -0.91109178422E+01  0.12122211180E+03  0.12720261349E+03  0.00000000000E+00 0.  1.
         13    1    3    3    0    0 -0.97228331122E+01 -0.96935308685E+02  0.13766417067E+03  0.16864878132E+03  0.00000000000E+00 0. -1.
         21    1    1    2  502  501 -0.60498657103E+02  0.27899053419E+02  0.25618139103E+03  0.26470237967E+03  0.00000000000E+00 0. -1.
<scales pt_clust_5="13000.00000" pt_clust_6="13000.00000" pt_clust_7="13000.00000" pt_clust_8="13000.00000" pt_clust_9="66.62165"></scales>
<clustering>
<clus scale="   66.622">  1  9  2 -1</clus>
<clus scale="   75.884">  5  6 -1 -1</clus>
<clus scale="   92.148">  7  8 -1 -1</clus>
<clus scale="  113.820">  2  5  1 -1</clus>
<clus scale="  113.820">  2  5  1 -1</clus>
</clustering>
</event>
<event>
 9    2  0.5608219E-005  0.2631006E+03  0.7546771E-02  0.1105809E+00
         -1   -1    0    0    0  501 -0.00000000000E+00  0.00000000000E+00  0.32475582795E+03  0.32475582795E+03  0.00000000000E+00 0.  1.
          2   -1    0    0  502    0  0.00000000000E+00 -0.00000000000E+00 -0.47901587735E+03  0.47901587735E+03  0.00000000000E+00 0. -1.
         24    2    1    2    0    0  0.15234325606E+03  0.18505933869E+03  0.18191699957E+03  0.31140923511E+03  0.80165394500E+02 0.  0.
         23    2    1    2    0    0 -0.19142924247E+03 -0.21705085646E+03 -0.31592604471E+03  0.43794487454E+03  0.90720550307E+02 0.  0.
        -13    1    3    3    0    0  0.13410667179E+03  0.13977617156E+03  0.17691304002E+03  0.26233604648E+03  0.00000000000E+00 0.  1.
         14    1    3    3    0    0  0.18236584277E+02  0.45283167128E+02  0.50039595527E+01  0.49073188631E+02  0.00000000000E+00 0. -1.
        -13    1    4    4    0    0 -0.81567533796E+02 -0.11290683924E+03 -0.89456021757E+02  0.16554031758E+03  0.00000000000E+00 0.  1.
         13    1    4    4    0    0 -0.10986170868E+03 -0.10414401722E+03 -0.22647002296E+03  0.27240455696E+03  0.00000000000E+00 0. -1.
         21    1    1    2  502  501  0.39085986409E+02  0.31991517774E+02 -0.20251004257E+02  0.54417595651E+02  0.00000000000E+00 0.  1.
<scales pt_clust_5="13000.00000" pt_clust_6="13000.00000" pt_clust_7="13000.00000" pt_clust_8="13000.00000" pt_clust_9="50.50912"></scales>
<clustering>
<clus scale="   50.509">  2  9  1 -1</clus>
<clus scale="   80.165">  5  6 -1 -1</clus>
<clus scale="   90.721">  7  8 -1 -1</clus>
<clus scale="  259.650">  1  5  2 -1</clus>
<clus scale="   50.509">  2  5  1 -1</clus>
</clustering>
</event>
<event>
 9    2  0.5608219E-005  0.1022889E+03  0.7546771E-02  0.1281156E+00
          2   -1    0    0  502    0  0.00000000000E+00  0.00000000000E+00  0.55994086230E+02  0.55994086230E+02  0.00000000000E+00 0. -1.
         -1   -1    0    0    0  501 -0.00000000000E+00 -0.00000000000E+00 -0.29441863967E+03  0.29441863967E+03  0.00000000000E+00 0.  1.
         24    2    1    2    0    0  0.11707631823E+02 -0.14253495604E+02 -0.13938729663E+03  0.16366055408E+03  0.83759941011E+02 0.  0.
         23    2    1    2    0    0  0.15926701369E+02  0.50186590938E+02 -0.48817623445E+02  0.11909971225E+03  0.95022246727E+02 0.  0.
        -13    1    3    3    0    0 -0.12267012930E+02 -0.39349812123E+02 -0.11232757785E+03  0.11965104289E+03  0.00000000000E+00 0.  1.
         14    1    3    3    0    0  0.23974644753E+02  0.25096316519E+02 -0.27059718786E+02  0.44009511183E+02  0.00000000000E+00 0. -1.
        -11    1    4    4    0    0  0.18161521523E+02 -0.26114510816E+02 -0.19615471493E+02  0.37370780846E+02  0.00000000000E+00 0.  1.
         11    1    4    4    0    0 -0.22348201539E+01  0.76301101754E+02 -0.29202151952E+02  0.81728931405E+02  0.00000000000E+00 0. -1.
         21    1    1    2  502  501 -0.27634333192E+02 -0.35933095334E+02 -0.50219633366E+02  0.67652459576E+02  0.00000000000E+00 0.  1.
<scales pt_clust_5="13000.00000" pt_clust_6="13000.00000" pt_clust_7="13000.00000" pt_clust_8="13000.00000" pt_clust_9="45.33038"></scales>
<clustering>
<clus scale="   45.330">  2  9  1 -1</clus>
<clus scale="   83.760">  5  6 -1 -1</clus>
<clus scale="   91.921">  2  5  1 -1</clus>
<clus scale="   95.022">  7  8 -1 -1</clus>
<clus scale="  102.289">  1  5  2 -1</clus>
</clustering>
</event>
<event>
 9    2  0.5608219E-005  0.9527492E+02  0.7546771E-02  0.1296864E+00
         -1   -1    0    0    0  501 -0.00000000000E+00  0.00000000000E+00  0.34573158510E+03  0.34573158510E+03  0.00000000000E+00 0.  1.
          2   -1    0    0  502    0  0.00000000000E+00 -0.00000000000E+00 -0.40246764125E+02  0.40246764125E+02  0.00000000000E+00 0. -1.
         23    2    1    2    0    0 -0.23059050327E+01 -0.36407031456E+02  0.24308756469E+03  0.26197884380E+03  0.90612147924E+02 0.  0.
         24    2    1    2    0    0 -0.77845861384E+01  0.12022484757E+02  0.45465255116E+02  0.92644812106E+02  0.79440744371E+02 0.  0.
        -13    1    4    4    0    0 -0.38937090304E+02 -0.12419563149E+02  0.26769573959E+02  0.48856449319E+02  0.00000000000E+00 0.  1.
         14    1    4    4    0    0  0.31152504165E+02  0.24442047906E+02  0.18695681156E+02  0.43788362786E+02  0.00000000000E+00 0. -1.
        -13    1    3    3    0    0  0.37259206715E+02 -0.29982495648E+02  0.73284709884E+02  0.87509126570E+02  0.00000000000E+00 0. -1.
         13    1    3    3    0    0 -0.39565111748E+02 -0.64245358089E+01  0.16980285481E+03  0.17446971723E+03  0.00000000000E+00 0.  1.
         21    1    1    2  502  501  0.10090491171E+02  0.24384546699E+02  0.16932001165E+02  0.31354693321E+02  0.00000000000E+00 0. -1.
<scales pt_clust_5="13000.00000" pt_clust_6="13000.00000" pt_clust_7="13000.00000" pt_clust_8="13000.00000" pt_clust_9="26.38985"></scales>
<clustering>
<clus scale="   26.390">  2  9  1 -1</clus>
<clus scale="   79.441">  5  6 -1 -1</clus>
<clus scale="   84.721">  2  5  1 -1</clus>
<clus scale="   90.612">  7  8 -1 -1</clus>
<clus scale="   26.390">  2  5  1 -1</clus>
</clustering>
</event>
<event>
 9    2  0.5608219E-005  0.1089650E+03  0.7546771E-02  0.1267296E+00
          2   -1    0    0  502    0  0.00000000000E+00  0.00000000000E+00  0.47777937373E+02  0.47777937373E+02  0.00000000000E+00 0. -1.
         -1   -1    0    0    0  501 -0.00000000000E+00 -0.00000000000E+00 -0.39872774380E+03  0.39872774380E+03  0.00000000000E+00 0.  1.
         23    2    1    2    0    0  0.45592617288E+02  0.58348500787E+02 -0.25473594054E+03  0.28090156464E+03  0.92369125366E+02 0.  0.
         24    2    1    2    0    0 -0.60524817250E+01 -0.31328650014E+02 -0.58154000053E+02  0.10443183487E+03  0.80659801423E+02 0.  0.
        -13    1    4    4    0    0  0.31428673106E+02 -0.27495802326E+01 -0.27162012707E+01  0.31665429636E+02  0.00000000000E+00 0.  1.
         14    1    4    4    0    0 -0.37481154831E+02 -0.28579069781E+02 -0.55437798783E+02  0.72766405236E+02  0.00000000000E+00 0. -1.
        -11    1    3    3    0    0  0.51680861117E+01  0.73923553868E+02 -0.17746263431E+03  0.19231325359E+03  0.00000000000E+00 0.  1.
         11    1    3    3    0    0  0.40424531176E+02 -0.15575053081E+02 -0.77273306225E+02  0.88588311047E+02  0.00000000000E+00 0. -1.
         21    1    1    2  502  501 -0.39540135563E+02 -0.27019850772E+02 -0.38059865834E+02  0.61172281659E+02  0.00000000000E+00 0. -1.
<scales pt_clust_5="13000.00000" pt_clust_6="13000.00000" pt_clust_7="13000.00000" pt_clust_8="13000.00000" pt_clust_9="47.89044"></scales>
<clustering>
<clus scale="   47.890">  1  9  2 -1</clus>
<clus scale="   80.660">  5  6 -1 -1</clus>
<clus scale="   92.369">  7  8 -1 -1</clus>
<clus scale="   99.234">  1  5  2 -1</clus>
<clus scale="   47.890">  1  5  2 -1</clus>
</clustering>
</event>
<event>
 9    2  0.5608219E-005  0.2287706E+03  0.7546771E-02  0.1128620E+00
          2   -1    0    0  502    0  0.00000000000E+00  0.00000000000E+00  0.69088642221E+03  0.69088642221E+03  0.00000000000E+00 0. -1.
         -1   -1    0    0    0  501 -0.00000000000E+00 -0.00000000000E+00 -0.21334173479E+03  0.21334173479E+03  0.00000000000E+00 0.  1.
         23    2    1    2    0    0  0.80184408976E+02 -0.17215790352E+03 -0.12148809776E+03  0.24440619939E+03  0.94377694475E+02 0.  0.
         24    2    1    2    0    0 -0.89844595534E+02  0.19031140475E+03  0.59852819644E+03  0.63925199355E+03  0.78208869039E+02 0.  0.
        -11    1    4    4    0    0 -0.63369707878E+02  0.13930756483E+03  0.31816304452E+03  0.35305812608E+03  0.00000000000E+00 0.  1.
         12    1    4    4    0    0 -0.26474887656E+02  0.51003839923E+02  0.28036515192E+03  0.28619386747E+03  0.00000000000E+00 0. -1.
        -13    1    3    3    0    0  0.64500290963E+02 -0.39739101979E+02 -0.64093351217E+02  0.99234275483E+02  0.00000000000E+00 0. -1.
         13    1    3    3    0    0  0.15684118013E+02 -0.13241880154E+03 -0.57394746545E+02  0.14517192391E+03  0.00000000000E+00 0.  1.
         21    1    1    2  502  501  0.96601865579E+01 -0.18153501234E+02  0.50458874201E+00  0.20569964054E+02  0.00000000000E+00 0. -1.
<scales pt_clust_5="13000.00000" pt_clust_6="13000.00000" pt_clust_7="13000.00000" pt_clust_8="13000.00000" pt_clust_9="20.56377"></scales>
<clustering>
<clus scale="   20.564">  2  9  1 -1</clus>
<clus scale="   78.209">  5  6 -1 -1</clus>
<clus scale="   94.378">  7  8 -1 -1</clus>
<clus scale="  222.588">  1  5  2 -1</clus>
<clus scale="  222.588">  1  5  2 -1</clus>
</clustering>
</event>
<event>
 9    2  0.5608219E-005  0.1286081E+03  0.7546771E-02  0.1233326E+00
         -1   -1    0    0    0  501 -0.00000000000E+00  0.00000000000E+00  0.29971269567E+03  0.29971269567E+03  0.00000000000E+00 0.  1.
          2   -1    0    0  502    0  0.00000000000E+00 -0.00000000000E+00 -0.17233172089E+03  0.17233172089E+03  0.00000000000E+00 0. -1.
         24    2    1    2    0    0 -0.10151976039E+03 -0.39577419842E+01 -0.21030843648E+02  0.13151717263E+03  0.80824160002E+02 0.  0.
         23    2    1    2    0    0  0.76075082728E+02 -0.19391468718E+02 -0.54729537321E+02  0.13447135910E+03  0.94465744542E+02 0.  0.
        -13    1    3    3    0    0 -0.71086805614E+02 -0.36494437093E+02  0.47428064104E+01  0.80047936161E+02  0.00000000000E+00 0.  1.
         14    1    3    3    0    0 -0.30432954775E+02  0.32536695108E+02 -0.25773650059E+02  0.51469236465E+02  0.00000000000E+00 0. -1.
        -13    1    4    4    0    0  0.15605895530E+01  0.29020162301E+02 -0.31010830357E+02  0.42500315989E+02  0.00000000000E+00 0. -1.
         13    1    4    4    0    0  0.74514493175E+02 -0.48411631019E+02 -0.23718706964E+02  0.91971043112E+02  0.00000000000E+00 0.  1.
         21    1    1    2  502  501  0.25444677660E+02  0.23349210702E+02  0.20314135575E+03  0.20605588484E+03  0.00000000000E+00 0. -1.
<scales pt_clust_5="13000.00000" pt_clust_6="13000.00000" pt_clust_7="13000.00000" pt_clust_8="13000.00000" pt_clust_9="34.53429"></scales>
<clustering>
<clus scale="   34.534">  1  9  2 -1</clus>
<clus scale="   80.824">  5  6 -1 -1</clus>
<clus scale="   94.466">  7  8 -1 -1</clus>
<clus scale="  118.949">  1  5  2 -1</clus>
<clus scale="  128.608">  2  5  1 -1</clus>
</clustering>
</event>
<event>
 9    2  0.5608219E-005  0.1681691E+03  0.7546771E-02  0.1180768E+00
          2   -1    0    0  502    0  0.00000000000E+00  0.00000000000E+00  0.30168220449E+03  0.30168220449E+03  0.00000000000E+00 0. -1.
         -1   -1    0    0    0  501 -0.00000000000E+00 -0.00000000000E+00 -0.24609640018E+03  0.24609640018E+03  0.00000000000E+00 0.  1.
         24    2    1    2    0    0 -0.88053141878E+02  0.13234889822E+03  0.17106603803E+02  0.17915466749E+03  0.80834227493E+02 0.  0.
         23    2    1    2    0    0 -0.81624253344E+02 -0.14381355999E+03  0.56775095962E+02  0.19757833884E+03  0.92026787885E+02 0.  0.
        -13    1    3    3    0    0 -0.22672416450E+02  0.78214444542E+02 -0.23922687712E+02  0.84875395670E+02  0.00000000000E+00 0.  1.
         14    1    3    3    0    0 -0.65380725428E+02  0.54134453683E+02  0.41029291515E+02  0.94279271822E+02  0.00000000000E+00 0. -1.
        -11    1    4    4    0    0 -0.15228742493E+01 -0.79204347252E+02 -0.16565382965E+01  0.79236304108E+02  0.00000000000E+00 0.  1.
         11    1    4    4    0    0 -0.80101379095E+02 -0.64609212736E+02  0.58431634259E+02  0.11834203474E+03  0.00000000000E+00 0. -1.
         21    1    1    2  502  501  0.16967739522E+03  0.11464661763E+02 -0.18295895453E+02  0.17104559833E+03  0.00000000000E+00 0.  1.
<scales pt_clust_5="13000.00000" pt_clust_6="13000.00000" pt_clust_7="13000.00000" pt_clust_8="13000.00000" pt_clust_9="170.06427"></scales>
<clustering>
<clus scale="   80.834">  5  6 -1 -1</clus>
<clus scale="   92.027">  7  8 -1 -1</clus>
<clus scale="  170.064">  2  9  1 -1</clus>
<clus scale="  170.064">  2  5  1 -1</clus>
<clus scale="  166.295">  1  5  2 -1</clus>
</clustering>
</event>
<event>
 9    2  0.5608219E-005  0.1036590E+03  0.7546771E-02  0.1278398E+00
         -1   -1    0    0    0  501 -0.00000000000E+00  0.00000000000E+00  0.68000715607E+02  0.68000715607E+02  0.00000000000E+00 0.  1.
          2   -1    0    0  502    0  0.00000000000E+00 -0.00000000000E+00 -0.70624386329E+03  0.70624386329E+03  0.00000000000E+00 0. -1.
         23    2    1    2    0    0 -0.15269556712E+02 -0.21806675752E+01 -0.27934152973E+02  0.97725182503E+02  0.92368716131E+02 0.  0.
         24    2    1    2    0    0  0.48281591954E+02  0.14009071451E+02 -0.62946768118E+03  0.63655990596E+03  0.80321765589E+02 0.  0.
        -11    1    4    4    0    0  0.14223076053E+02  0.41685716944E+02 -0.19661160416E+03  0.20148478300E+03  0.00000000000E+00 0.  1.
         12    1    4    4    0    0  0.34058515901E+02 -0.27676645493E+02 -0.43285607701E+03  0.43507512296E+03  0.00000000000E+00 0. -1.
        -13    1    3    3    0    0 -0.27244012592E+01 -0.39918572510E+02 -0.39586227804E+02  0.56284848985E+02  0.00000000000E+00 0. -1.
         13    1    3    3    0    0 -0.12545155453E+02  0.37737904935E+02  0.11652074831E+02  0.41440333518E+02  0.00000000000E+00 0.  1.
         21    1    1    2  502  501 -0.33012035242E+02 -0.11828403876E+02  0.19158686462E+02  0.39959490438E+02  0.00000000000E+00 0.  1.
<scales pt_clust_5="13000.00000" pt_clust_6="13000.00000" pt_clust_7="13000.00000" pt_clust_8="13000.00000" pt_clust_9="35.06716"></scales>
<clustering>
<clus scale="   35.067">  1  9  2 -1</clus>
<clus scale="   80.322">  5  6 -1 -1</clus>
<clus scale="   92.369">  7  8 -1 -1</clus>
<clus scale="   93.085">  2  5  1 -1</clus>
<clus scale="   93.085">  2  5  1 -1</clus>
</clustering>
</event>
<event>
 9    2  0.5608219E-005  0.1063463E+03  0.7546771E-02  0.1272658E+00
         -1   -1    0    0    0  501 -0.00000000000E+00  0.00000000000E+00  0.56929885909E+02  0.56929885909E+02  0.00000000000E+00 0.  1.
          2   -1    0    0  502    0  0.00000000000E+00 -0.00000000000E+00 -0.65832345035E+03  0.65832345035E+03  0.00000000000E+00 0. -1.
         23    2    1    2    0    0 -0.79104204664E+01  0.54382777215E+02 -0.75669263672E+01  0.10629772094E+03  0.90674615477E+02 0.  0.
         24    2    1    2    0    0  0.28438893003E+02 -0.57824485411E+02 -0.56069468397E+03  0.56982774900E+03  0.78566488746E+02 0.  0.
        -11    1    4    4    0    0 -0.18764167482E+02  0.71778596162E+01 -0.81083149699E+02  0.83534979590E+02  0.00000000000E+00 0.  1.
         12    1    4    4    0    0  0.47203060485E+02 -0.65002345027E+02 -0.47961153427E+03  0.48629276941E+03  0.00000000000E+00 0. -1.
        -13    1    3    3    0    0 -0.59292463869E+01  0.78569033040E+02  0.50355891784E+01  0.78953189131E+02  0.00000000000E+00 0.  1.
         13    1    3    3    0    0 -0.19811740795E+01 -0.24186255825E+02 -0.12602515546E+02  0.27344531805E+02  0.00000000000E+00 0. -1.
         21    1    1    2  502  501 -0.20528472537E+02  0.34417081960E+01 -0.33131954109E+02  0.39127866324E+02  0.00000000000E+00 0. -1.
<scales pt_clust_5="13000.00000" pt_clust_6="13000.00000" pt_clust_7="13000.00000" pt_clust_8="13000.00000" pt_clust_9="20.81498"></scales>
<clustering>
<clus scale="   20.815">  2  9  1 -1</clus>
<clus scale="   78.566">  5  6 -1 -1</clus>
<clus scale="   90.675">  7  8 -1 -1</clus>
<clus scale="   96.231">  2  5  1 -1</clus>
<clus scale="   20.815">  2  5  1 -1</clus>
</clustering>
</event>
<event>
 9    2  0.5608219E-005  0.1040484E+03  0.7546771E-02  0.1280514E+00
         -1   -1    0    0    0  501 -0.00000000000E+00  0.00000000000E+00  0.35306872709E+02  0.35306872709E+02  0.00000000000E+00 0.  1.
          2   -1    0    0  502    0  0.00000000000E+00 -0.00000000000E+00 -0.35975852251E+03  0.35975852251E+03  0.00000000000E+00 0. -1.
         23    2    1    2    0    0  0.89816207826E+01 -0.42649659682E+02 -0.14237393154E+03  0.17726338302E+03  0.96188916175E+02 0.  0.
         24    2    1    2    0    0 -0.25752569622E+02  0.29708728398E+02 -0.17405669037E+03  0.19515097876E+03  0.79008668266E+02 0.  0.
        -13    1    4    4    0    0 -0.48161496699E+02  0.16837011891E+02 -0.62700467425E+02  0.80835409005E+02  0.00000000000E+00 0.  1.
         14    1    4    4    0    0  0.22408927077E+02  0.12871716507E+02 -0.11135622295E+03  0.11431556975E+03  0.00000000000E+00 0. -1.
        -11    1    3    3    0    0 -0.39297796276E+02 -0.12084127042E+01 -0.74450900159E+02  0.84194498561E+02  0.00000000000E+00 0.  1.
         11    1    3    3    0    0  0.48279417059E+02 -0.41441246978E+02 -0.67923031384E+02  0.93068884462E+02  0.00000000000E+00 0. -1.
         21    1    1    2  502  501  0.16770948839E+02  0.12940931284E+02 -0.80210278842E+01  0.22651033437E+02  0.00000000000E+00 0.  1.
<scales pt_clust_5="13000.00000" pt_clust_6="13000.00000" pt_clust_7="13000.00000" pt_clust_8="13000.00000" pt_clust_9="21.18331"></scales>
<clustering>
<clus scale="   21.183">  1  9  2 -1</clus>
<clus scale="   79.009">  5  6 -1 -1</clus>
<clus scale="   88.409">  2  5  1 -1</clus>
<clus scale="   96.189">  7  8 -1 -1</clus>
<clus scale="   88.409">  2  5  1 -1</clus>
</clustering>
</event>
<event>
 9    2  0.5608219E-005  0.9493065E+02  0.7546771E-02  0.1296667E+00
          2   -1    0    0  502    0  0.00000000000E+00  0.00000000000E+00  0.60899158523E+03  0.60899158523E+03  0.00000000000E+00 0. -1.
         -1   -1    0    0    0  501 -0.00000000000E+00 -0.00000000000E+00 -0.24304212714E+02  0.24304212714E+02  0.00000000000E+00 0.  1.
         24    2    1    2    0    0 -0.21313766103E+02  0.19576769502E+02  0.13004212787E+03  0.15617225480E+03  0.81494120154E+02 0.  0.
         23    2    1    2    0    0 -0.10724818201E+02 -0.30644009135E+02  0.40918436853E+03  0.42041687745E+03  0.90908890482E+02 0.  0.
        -13    1    3    3    0    0 -0.42816972099E+02  0.15263038169E+02  0.31708966410E+02  0.55423027567E+02  0.00000000000E+00 0.  1.
         14    1    3    3    0    0  0.21503205996E+02  0.43137313327E+01  0.98333161457E+02  0.10074922723E+03  0.00000000000E+00 0. -1.
        -13    1    4    4    0    0 -0.18668059535E+01  0.31390884613E+02  0.95811496910E+02  0.10084004929E+03  0.00000000000E+00 0.  1.
         13    1    4    4    0    0 -0.88580122474E+01 -0.62034893748E+02  0.31337287162E+03  0.31957682816E+03  0.00000000000E+00 0. -1.
         21    1    1    2  502  501  0.32038584304E+02  0.11067239633E+02  0.45460876115E+02  0.56706665697E+02  0.00000000000E+00 0.  1.
<scales pt_clust_5="13000.00000" pt_clust_6="13000.00000" pt_clust_7="13000.00000" pt_clust_8="13000.00000" pt_clust_9="33.89623"></scales>
<clustering>
<clus scale="   33.896">  2  9  1 -1</clus>
<clus scale="   81.494">  5  6 -1 -1</clus>
<clus scale="   85.958">  2  5  1 -1</clus>
<clus scale="   90.909">  7  8 -1 -1</clus>
<clus scale="   94.931">  1  5  2 -1</clus>
</clustering>
</event>
<event>
 9    2  0.5608219E-005  0.1130887E+03  0.7546771E-02  0.1258935E+00
         -1   -1    0    0    0  501 -0.00000000000E+00  0.00000000000E+00  0.12191747677E+03  0.12191747677E+03  0.00000000000E+00 0.  1.
          2   -1    0    0  502    0  0.00000000000E+00 -0.00000000000E+00 -0.34253681261E+03  0.34253681261E+03  0.00000000000E+00 0. -1.
         23    2    1    2    0    0 -0.65186964748E+01 -0.28840383186E+02  0.27056986599E+01  0.96041788767E+02  0.91336976512E+02 0.  0.
         24    2    1    2    0    0  0.41572074146E+02  0.62442434575E+02 -0.27578564595E+03  0.29692856607E+03  0.80508110465E+02 0.  0.
        -11    1    4    4    0    0  0.37262041047E+02  0.45152252493E+02 -0.73995458239E+02  0.94353131629E+02  0.00000000000E+00 0.  1.
         12    1    4    4    0    0  0.43100330989E+01  0.17290182082E+02 -0.20179018771E+03  0.20257543444E+03  0.00000000000E+00 0. -1.
        -11    1    3    3    0    0 -0.26706120446E+02  0.14690869999E+02 -0.26054655534E+02  0.40098423979E+02  0.00000000000E+00 0.  1.
         11    1    3    3    0    0  0.20187423971E+02 -0.43531253186E+02  0.28760354194E+02  0.55943364788E+02  0.00000000000E+00 0. -1.
         21    1    1    2  502  501 -0.35053377671E+02 -0.33602051388E+02  0.52460611450E+02  0.71483934541E+02  0.00000000000E+00 0.  1.
<scales pt_clust_5="13000.00000" pt_clust_6="13000.00000" pt_clust_7="13000.00000" pt_clust_8="13000.00000" pt_clust_9="48.55757"></scales>
<clustering>
<clus scale="   48.558">  1  9  2 -1</clus>
<clus scale="   80.508">  5  6 -1 -1</clus>
<clus scale="   91.337">  7  8 -1 -1</clus>
<clus scale="  104.538">  2  5  1 -1</clus>
<clus scale="  104.538">  2  5  1 -1</clus>
</clustering>
</event>
<event>
 9    2  0.5608219E-005  0.1022865E+03  0.7546771E-02  0.1285889E+00
          2   -1    0    0  502    0  0.00000000000E+00  0.00000000000E+00  0.18072975863E+03  0.18072975863E+03  0.00000000000E+00 0. -1.
         -1   -1    0    0    0  501 -0.00000000000E+00 -0.00000000000E+00 -0.18602255738E+03  0.18602255738E+03  0.00000000000E+00 0.  1.
         24    2    1    2    0    0 -0.23804525698E+02  0.16519798932E+02 -0.12533373532E+03  0.15188096234E+03  0.80744797427E+02 0.  0.
         23    2    1    2    0    0 -0.14533283526E+01 -0.24108682328E+02  0.14566565661E+03  0.17809939942E+03  0.99587006328E+02 0.  0.
        -13    1    3    3    0    0 -0.32384086406E+02  0.43856732478E+02 -0.63236556752E+02  0.83492539462E+02  0.00000000000E+00 0.  1.
         14    1    3    3    0    0  0.85795607072E+01 -0.27336933546E+02 -0.62097178564E+02  0.68388422875E+02  0.00000000000E+00 0. -1.
        -11    1    4    4    0    0  0.42188193700E+02  0.13243122952E+01  0.29701375777E+02  0.51611715858E+02  0.00000000000E+00 0.  1.
         11    1    4    4    0    0 -0.43641522052E+02 -0.25432994623E+02  0.11596428084E+03  0.12648768356E+03  0.00000000000E+00 0. -1.
         21    1    1    2  502  501  0.25257854051E+02  0.75888833956E+01 -0.25624720045E+02  0.36771954257E+02  0.00000000000E+00 0.  1.
<scales pt_clust_5="13000.00000" pt_clust_6="13000.00000" pt_clust_7="13000.00000" pt_clust_8="13000.00000" pt_clust_9="26.37329"></scales>
<clustering>
<clus scale="   26.373">  2  9  1 -1</clus>
<clus scale="   80.745">  5  6 -1 -1</clus>
<clus scale="   84.052">  2  5  1 -1</clus>
<clus scale="   99.587">  7  8 -1 -1</clus>
<clus scale="  102.286">  1  5  2 -1</clus>
</clustering>
</event>
<event>
 9    2  0.5608219E-005  0.2575021E+03  0.7546771E-02  0.1109104E+00
          2   -1    0    0  502    0  0.00000000000E+00  0.00000000000E+00  0.49158478974E+03  0.49158478974E+03  0.00000000000E+00 0. -1.
         -1   -1    0    0    0  501 -0.00000000000E+00 -0.00000000000E+00 -0.22805214180E+03  0.22805214180E+03  0.00000000000E+00 0.  1.
         24    2    1    2    0    0 -0.23352048110E+03  0.85083771717E+02 -0.44066232176E+02  0.26437375268E+03  0.78616696609E+02 0.  0.
         23    2    1    2    0    0  0.23563032283E+03 -0.49733489113E+02  0.32653960799E+03  0.41510293627E+03  0.87677038833E+02 0.  0.
        -11    1    3    3    0    0 -0.13132405723E+03  0.62246235448E+01 -0.26230294865E+02  0.13406260595E+03  0.00000000000E+00 0.  1.
         12    1    3    3    0    0 -0.10219642387E+03  0.78859148172E+02 -0.17835937312E+02  0.13031114673E+03  0.00000000000E+00 0. -1.
        -11    1    4    4    0    0  0.10512907301E+03  0.20089919033E+01  0.82840221747E+02  0.13386060055E+03  0.00000000000E+00 0.  1.
         11    1    4    4    0    0  0.13050124982E+03 -0.51742481017E+02  0.24369938624E+03  0.28124233572E+03  0.00000000000E+00 0. -1.
         21    1    1    2  502  501 -0.21098417291E+01 -0.35350282604E+02 -0.18940727873E+02  0.40160242587E+02  0.00000000000E+00 0. -1.
<scales pt_clust_5="13000.00000" pt_clust_6="13000.00000" pt_clust_7="13000.00000" pt_clust_8="13000.00000" pt_clust_9="35.41319"></scales>
<clustering>
<clus scale="   35.413">  2  9  1 -1</clus>
<clus scale="   78.617">  5  6 -1 -1</clus>
<clus scale="   87.677">  7  8 -1 -1</clus>
<clus scale="  254.560">  2  5  1 -1</clus>
<clus scale="  257.502">  1  5  2 -1</clus>
</clustering>
</event>
<event>
 9    2  0.5608219E-005  0.1332562E+03  0.7546771E-02  0.1223837E+00
          2   -1    0    0  502    0  0.00000000000E+00  0.00000000000E+00  0.22967920824E+03  0.22967920824E+03  0.00000000000E+00 0. -1.
         -1   -1    0    0    0  501 -0.00000000000E+00 -0.00000000000E+00 -0.11023870848E+03  0.11023870848E+03  0.00000000000E+00 0.  1.
         24    2    1    2    0    0  0.60439619687E+02 -0.90844031366E+02 -0.19283250667E+02  0.13749051146E+03  0.81401543729E+02 0.  0.
         23    2    1    2    0    0 -0.39214152223E+02  0.74541154995E+02  0.11116613785E+03  0.16401222261E+03  0.86301595809E+02 0.  0.
        -13    1    3    3    0    0  0.30826926529E+02 -0.10236545002E+02 -0.37596398801E+02  0.49684760798E+02  0.00000000000E+00 0.  1.
         14    1    3    3    0    0  0.29612693158E+02 -0.80607486364E+02  0.18313148134E+02  0.87805750658E+02  0.00000000000E+00 0. -1.
        -11    1    4    4    0    0  0.28248325017E+01  0.68010597552E+02  0.98297881502E+02  0.11956544052E+03  0.00000000000E+00 0.  1.
         11    1    4    4    0    0 -0.42038984725E+02  0.65305574431E+01  0.12868256347E+02  0.44446782095E+02  0.00000000000E+00 0. -1.
         21    1    1    2  502  501 -0.21225467464E+02  0.16302876371E+02  0.27557612575E+02  0.38415182647E+02  0.00000000000E+00 0.  1.
<scales pt_clust_5="13000.00000" pt_clust_6="13000.00000" pt_clust_7="13000.00000" pt_clust_8="13000.00000" pt_clust_9="26.76386"></scales>
<clustering>
<clus scale="   26.764">  1  9  2 -1</clus>
<clus scale="   81.402">  5  6 -1 -1</clus>
<clus scale="   86.302">  7  8 -1 -1</clus>
<clus scale="  130.136">  2  5  1 -1</clus>
<clus scale="   26.764">  1  5  2 -1</clus>
</clustering>
</event>
<event>
 9    2  0.5608219E-005  0.1146895E+03  0.7546771E-02  0.1256112E+00
          4   -1    0    0  502    0  0.00000000000E+00  0.00000000000E+00  0.16020666674E+03  0.16020666674E+03  0.00000000000E+00 0. -1.
         -3   -1    0    0    0  501 -0.00000000000E+00 -0.00000000000E+00 -0.11115598146E+03  0.11115598146E+03  0.00000000000E+00 0.  1.
         23    2    1    2    0    0  0.57937724372E+02  0.62338993980E+02 -0.16295884330E+02  0.12524735134E+03  0.90434579092E+02 0.  0.
         24    2    1    2    0    0 -0.53432358503E+02 -0.37321415476E+02  0.63662526229E+02  0.12063955236E+03  0.79076414687E+02 0.  0.
        -13    1    4    4    0    0 -0.26365610948E+02 -0.33769577748E+02 -0.83297416307E+01  0.43645325266E+02  0.00000000000E+00 0.  1.
         14    1    4    4    0    0 -0.27066747556E+02 -0.35518377281E+01  0.71992267859E+02  0.76994227096E+02  0.00000000000E+00 0. -1.
        -13    1    3    3    0    0  0.56556941750E+02 -0.46825225352E+01 -0.24920434442E+01  0.56805140242E+02  0.00000000000E+00 0.  1.
         13    1    3    3    0    0  0.13807826224E+01  0.67021516515E+02 -0.13803840886E+02  0.68442211097E+02  0.00000000000E+00 0. -1.
         21    1    1    2  502  501 -0.45053658693E+01 -0.25017578504E+02  0.16840433735E+01  0.25475744501E+02  0.00000000000E+00 0.  1.
<scales pt_clust_5="13000.00000" pt_clust_6="13000.00000" pt_clust_7="13000.00000" pt_clust_8="13000.00000" pt_clust_9="25.42002"></scales>
<clustering>
<clus scale="   25.420">  2  9  1 -1</clus>
<clus scale="   79.076">  5  6 -1 -1</clus>
<clus scale="   90.435">  7  8 -1 -1</clus>
<clus scale="  105.964">  1  5  2 -1</clus>
<clus scale="  105.964">  1  5  2 -1</clus>
</clustering>
</event>
<event>
 9    2  0.5608219E-005  0.1299923E+03  0.7546771E-02  0.1229964E+00
         -1   -1    0    0    0  501 -0.00000000000E+00  0.00000000000E+00  0.72197162652E+02  0.72197162652E+02  0.00000000000E+00 0.  1.
          2   -1    0    0  502    0  0.00000000000E+00 -0.00000000000E+00 -0.50754034491E+03  0.50754034491E+03  0.00000000000E+00 0. -1.
         24    2    1    2    0    0 -0.75193753433E+02 -0.34958227342E+01 -0.69845504600E+01  0.11056083983E+03  0.80675857769E+02 0.  0.
         23    2    1    2    0    0  0.96742229433E+02  0.65259447890E+01 -0.42730467349E+03  0.44739067944E+03  0.90374161963E+02 0.  0.
        -11    1    3    3    0    0  0.36206801902E+01  0.24476211068E+02  0.71248349668E+01  0.25747961212E+02  0.00000000000E+00 0.  1.
         12    1    3    3    0    0 -0.78814433623E+02 -0.27972033802E+02 -0.14109385427E+02  0.84812878618E+02  0.00000000000E+00 0. -1.
        -11    1    4    4    0    0 -0.39467339839E+01  0.23959277667E+02 -0.39657142105E+02  0.46500673279E+02  0.00000000000E+00 0.  1.
         11    1    4    4    0    0  0.10068896342E+03 -0.17433332878E+02 -0.38764753139E+03  0.40089000616E+03  0.00000000000E+00 0. -1.
         21    1    1    2  502  501 -0.21548476000E+02 -0.30301220548E+01 -0.10539583018E+01  0.21785988289E+02  0.00000000000E+00 0. -1.
<scales pt_clust_5="13000.00000" pt_clust_6="13000.00000" pt_clust_7="13000.00000" pt_clust_8="13000.00000" pt_clust_9="21.76048"></scales>
<clustering>
<clus scale="   21.760">  1  9  2 -1</clus>
<clus scale="   80.676">  5  6 -1 -1</clus>
<clus scale="   90.374">  7  8 -1 -1</clus>
<clus scale="  123.447">  1  5  2 -1</clus>
<clus scale="  129.992">  2  5  1 -1</clus>
</clustering>
</event>
<event>
 9    2  0.5608219E-005  0.1195559E+03  0.7546771E-02  0.1246514E+00
         -1   -1    0    0    0  501 -0.00000000000E+00  0.00000000000E+00  0.59636145236E+02  0.59636145236E+02  0.00000000000E+00 0.  1.
          2   -1    0    0  502    0  0.00000000000E+00 -0.00000000000E+00 -0.39422964589E+03  0.39422964589E+03  0.00000000000E+00 0. -1.
         24    2    1    2    0    0 -0.13589720260E+02 -0.62898549563E+02 -0.28213606293E+02  0.10655696969E+03  0.80109126669E+02 0.  0.
         23    2    1    2    0    0  0.17613803855E+02  0.83048468430E+02 -0.30237739342E+03  0.32637481816E+03  0.88775783193E+02 0.  0.
        -11    1    3    3    0    0 -0.20547405794E+02  0.13671432367E+02 -0.63148383501E-01  0.24680112146E+02  0.00000000000E+00 0.  1.
         12    1    3    3    0    0  0.69576855340E+01 -0.76569981931E+02 -0.28150457910E+02  0.81876857545E+02  0.00000000000E+00 0. -1.
        -13    1    4    4    0    0 -0.28122919073E+00  0.97241316065E+02 -0.26804901493E+03  0.28514246797E+03  0.00000000000E+00 0.  1.
         13    1    4    4    0    0  0.17895033045E+02 -0.14192847634E+02 -0.34328378497E+02  0.41232350187E+02  0.00000000000E+00 0. -1.
         21    1    1    2  502  501 -0.40240835950E+01 -0.20149918867E+02 -0.40025009324E+01  0.20934003268E+02  0.00000000000E+00 0. -1.
<scales pt_clust_5="13000.00000" pt_clust_6="13000.00000" pt_clust_7="13000.00000" pt_clust_8="13000.00000" pt_clust_9="20.54781"></scales>
<clustering>
<clus scale="   20.548">  1  9  2 -1</clus>
<clus scale="   80.109">  5  6 -1 -1</clus>
<clus scale="   88.776">  7  8 -1 -1</clus>
<clus scale="  113.269">  1  5  2 -1</clus>
<clus scale="  119.556">  2  5  1 -1</clus>
</clustering>
</event>
<event>
 9    2  0.5608219E-005  0.1018470E+03  0.7546771E-02  0.1281133E+00
         -1   -1    0    0    0  501 -0.00000000000E+00  0.00000000000E+00  0.11919654149E+03  0.11919654149E+03  0.00000000000E+00 0.  1.
          2   -1    0    0  502    0  0.00000000000E+00 -0.00000000000E+00 -0.17786520149E+03  0.17786520149E+03  0.00000000000E+00 0. -1.
         24    2    1    2    0    0  0.10009820594E+02  0.62697977980E+02  0.13342461702E+02  0.10577309211E+03  0.83538570612E+02 0.  0.
         23    2    1    2    0    0 -0.40778871873E+02 -0.11219588559E+02 -0.81230964266E+02  0.13061110485E+03  0.93123550165E+02 0.  0.
        -13    1    3    3    0    0 -0.25254569851E+02  0.64072036084E+02  0.14839540416E+02  0.70450202739E+02  0.00000000000E+00 0.  1.
         14    1    3    3    0    0  0.35264390444E+02 -0.13740581034E+01 -0.14970787132E+01  0.35322889374E+02  0.00000000000E+00 0. -1.
        -11    1    4    4    0    0 -0.26099275077E+02  0.95207357764E+01  0.14658859134E+02  0.31411760861E+02  0.00000000000E+00 0.  1.
         11    1    4    4    0    0 -0.14679596796E+02 -0.20740324336E+02 -0.95889823401E+02  0.99199343987E+02  0.00000000000E+00 0. -1.
         21    1    1    2  502  501  0.30769051280E+02 -0.51478389421E+02  0.92198425687E+01  0.60677546020E+02  0.00000000000E+00 0. -1.
<scales pt_clust_5="13000.00000" pt_clust_6="13000.00000" pt_clust_7="13000.00000" pt_clust_8="13000.00000" pt_clust_9="59.97299"></scales>
<clustering>
<clus scale="   59.973">  1  9  2 -1</clus>
<clus scale="   83.539">  5  6 -1 -1</clus>
<clus scale="   93.124">  7  8 -1 -1</clus>
<clus scale="   93.164">  1  5  2 -1</clus>
<clus scale="  101.847">  2  5  1 -1</clus>
</clustering>
</event>
<event>
 9    2  0.5608219E-005  0.9441395E+02  0.7546771E-02  0.1298773E+00
         -1   -1    0    0    0  501 -0.00000000000E+00  0.00000000000E+00  0.11430890577E+03  0.11430890577E+03  0.00000000000E+00 0.  1.
          2   -1    0    0  502    0  0.00000000000E+00 -0.00000000000E+00 -0.11982009904E+03  0.11982009904E+03  0.00000000000E+00 0. -1.
         23    2    1    2    0    0  0.30050984781E+02  0.28628335029E+02  0.18972518291E+02  0.10223873457E+03  0.91488573843E+02 0.  0.
         24    2    1    2    0    0 -0.12557787134E+02 -0.10488434915E+02 -0.49724600683E+02  0.96222772093E+02  0.80737727684E+02 0.  0.
        -13    1    4    4    0    0 -0.12478585229E+01  0.28122830927E+02 -0.48371344402E+02  0.55966398218E+02  0.00000000000E+00 0.  1.
         14    1    4    4    0    0 -0.11309928611E+02 -0.38611265841E+02 -0.13532562809E+01  0.40256373876E+02  0.00000000000E+00 0. -1.
        -13    1    3    3    0    0 -0.24491455647E+02  0.12786768272E+02 -0.19342991489E+02  0.33726609113E+02  0.00000000000E+00 0. -1.
         13    1    3    3    0    0  0.54542440428E+02  0.15841566757E+02  0.38315509780E+02  0.68512125459E+02  0.00000000000E+00 0.  1.
         21    1    1    2  502  501 -0.17493197647E+02 -0.18139900114E+02  0.25240889120E+02  0.35667498141E+02  0.00000000000E+00 0. -1.
<scales pt_clust_5="13000.00000" pt_clust_6="13000.00000" pt_clust_7="13000.00000" pt_clust_8="13000.00000" pt_clust_9="25.20055"></scales>
<clustering>
<clus scale="   25.201">  1  9  2 -1</clus>
<clus scale="   80.738">  5  6 -1 -1</clus>
<clus scale="   84.038">  2  5  1 -1</clus>
<clus scale="   91.489">  7  8 -1 -1</clus>
<clus scale="   84.038">  2  5  1 -1</clus>
</clustering>
</event>
<event>
 9    2  0.5608219E-005  0.1226538E+03  0.7546771E-02  0.1255210E+00
          2   -1    0    0  502    0  0.00000000000E+00  0.00000000000E+00  0.11296746337E+04  0.11296746337E+04  0.00000000000E+00 0. -1.
         -1   -1    0    0    0  501 -0.00000000000E+00 -0.00000000000E+00 -0.20215526362E+02  0.20215526362E+02  0.00000000000E+00 0.  1.
         23    2    1    2    0    0 -0.75060257983E+02  0.10494466129E+01  0.42046467771E+03  0.43651891395E+03  0.90128094211E+02 0.  0.
         24    2    1    2    0    0 -0.59930027962E+01 -0.47961111453E+02  0.39898018967E+03  0.40861134922E+03  0.73768954584E+02 0.  0.
        -13    1    4    4    0    0  0.15683765953E+02 -0.33741061693E+02  0.76274618582E+02  0.84866113370E+02  0.00000000000E+00 0.  1.
         14    1    4    4    0    0 -0.21676768749E+02 -0.14220049760E+02  0.32270557109E+03  0.32374523585E+03  0.00000000000E+00 0. -1.
        -13    1    3    3    0    0  0.20170943869E+02  0.13381836484E+01  0.48226580612E+02  0.52292071958E+02  0.00000000000E+00 0.  1.
         13    1    3    3    0    0 -0.95231201853E+02 -0.28873703546E+00  0.37223809710E+03  0.38422684199E+03  0.00000000000E+00 0. -1.
         21    1    1    2  502  501  0.81053260780E+02  0.46911664841E+02  0.29001423992E+03  0.30475989686E+03  0.00000000000E+00 0.  1.
<scales pt_clust_5="13000.00000" pt_clust_6="13000.00000" pt_clust_7="13000.00000" pt_clust_8="13000.00000" pt_clust_9="83.19181"></scales>
<clustering>
<clus scale="   73.769">  5  6 -1 -1</clus>
<clus scale="   88.193">  1  5  2 -1</clus>
<clus scale="   83.192">  1  9  2 -1</clus>
<clus scale="   90.128">  7  8 -1 -1</clus>
<clus scale="   88.193">  1  5  2 -1</clus>
</clustering>
</event>
<event>
 9    2  0.5608219E-005  0.1198668E+03  0.7546771E-02  0.1247495E+00
         -1   -1    0    0    0  501 -0.00000000000E+00  0.00000000000E+00  0.21469289884E+03  0.21469289884E+03  0.00000000000E+00 0.  1.
          2   -1    0    0  502    0  0.00000000000E+00 -0.00000000000E+00 -0.31554321495E+03  0.31554321495E+03  0.00000000000E+00 0. -1.
         23    2    1    2    0    0  0.30509113633E+02 -0.43605691219E+02  0.17424175938E+03  0.20451151192E+03  0.92911277441E+02 0.  0.
         24    2    1    2    0    0 -0.38230070176E+02  0.66849462512E+02 -0.27956785266E+03  0.30082643617E+03  0.80049806722E+02 0.  0.
        -13    1    4    4    0    0 -0.28004168353E+02  0.10233458430E+02 -0.22374807264E+02  0.37277192983E+02  0.00000000000E+00 0.  1.
         14    1    4    4    0    0 -0.10225901823E+02  0.56616004082E+02 -0.25719304540E+03  0.26354924319E+03  0.00000000000E+00 0. -1.
        -13    1    3    3    0    0  0.53228150307E+02 -0.15484027938E+02  0.15264632338E+03  0.16240040378E+03  0.00000000000E+00 0.  1.
         13    1    3    3    0    0 -0.22719036673E+02 -0.28121663281E+02  0.21595436001E+02  0.42111108144E+02  0.00000000000E+00 0. -1.
         21    1    1    2  502  501  0.77209565426E+01 -0.23243771294E+02  0.44757771701E+01  0.24898165699E+02  0.00000000000E+00 0. -1.
<scales pt_clust_5="13000.00000" pt_clust_6="13000.00000" pt_clust_7="13000.00000" pt_clust_8="13000.00000" pt_clust_9="24.49257"></scales>
<clustering>
<clus scale="   24.493">  1  9  2 -1</clus>
<clus scale="   80.050">  5  6 -1 -1</clus>
<clus scale="   92.911">  7  8 -1 -1</clus>
<clus scale="  110.198">  2  5  1 -1</clus>
<clus scale="  110.198">  2  5  1 -1</clus>
</clustering>
</event>
<event>
 9    2  0.5608219E-005  0.5192565E+03  0.7546771E-02  0.1008871E+00
         -1   -1    0    0    0  501 -0.00000000000E+00  0.00000000000E+00  0.32845325053E+03  0.32845325053E+03  0.00000000000E+00 0.  1.
          2   -1    0    0  502    0  0.00000000000E+00 -0.00000000000E+00 -0.73410571610E+03  0.73410571610E+03  0.00000000000E+00 0. -1.
         24    2    1    2    0    0 -0.37732611855E+03 -0.12132763514E+02 -0.11237283533E+03  0.40189501248E+03  0.79810671278E+02 0.  0.
         23    2    1    2    0    0 -0.85435027707E+02  0.10349129663E+02 -0.96398635685E+02  0.15775920586E+03  0.90493213156E+02 0.  0.
        -11    1    3    3    0    0 -0.24634088355E+03 -0.17467417054E+02 -0.34342631118E+02  0.24933583352E+03  0.00000000000E+00 0.  1.
         12    1    3    3    0    0 -0.13098523500E+03  0.53346535397E+01 -0.78030204207E+02  0.15255917896E+03  0.00000000000E+00 0. -1.
        -11    1    4    4    0    0 -0.35436509163E+02 -0.40154555289E+02 -0.46485479894E+02  0.70915684677E+02  0.00000000000E+00 0. -1.
         11    1    4    4    0    0 -0.49998518544E+02  0.50503684953E+02 -0.49913155790E+02  0.86843521183E+02  0.00000000000E+00 0.  1.
         21    1    1    2  502  501  0.46276114625E+03  0.17836338507E+01 -0.19688099456E+03  0.50290474829E+03  0.00000000000E+00 0. -1.
<scales pt_clust_5="13000.00000" pt_clust_6="13000.00000" pt_clust_7="13000.00000" pt_clust_8="13000.00000" pt_clust_9="462.76458"></scales>
<clustering>
<clus scale="   79.811">  5  6 -1 -1</clus>
<clus scale="   90.493">  7  8 -1 -1</clus>
<clus scale="  103.566">  5  7 -1 -1</clus>
<clus scale="  462.765">  2  9  1 -1</clus>
<clus scale="  462.765">  2  5  1 -1</clus>
</clustering>
</event>
<event>
 9    2  0.5608219E-005  0.9760514E+02  0.7546771E-02  0.1293229E+00
          2   -1    0    0  502    0  0.00000000000E+00  0.00000000000E+00  0.20519939803E+03  0.20519939803E+03  0.00000000000E+00 0. -1.
         -1   -1    0    0    0  501 -0.00000000000E+00 -0.00000000000E+00 -0.17086300082E+03  0.17086300082E+03  0.00000000000E+00 0.  1.
         23    2    1    2    0    0 -0.17910422256E+02  0.42396157108E+01 -0.77291973702E+02  0.12404966609E+03  0.95265486354E+02 0.  0.
         24    2    1    2    0    0 -0.25250993055E+02  0.22999309386E+01  0.16334406946E+03  0.18433565453E+03  0.81580917924E+02 0.  0.
        -11    1    4    4    0    0  0.30027823585E+02 -0.97786873148E+00  0.58851697223E+02  0.66076839229E+02  0.00000000000E+00 0.  1.
         12    1    4    4    0    0 -0.55278816640E+02  0.32777996701E+01  0.10449237224E+03  0.11825881530E+03  0.00000000000E+00 0. -1.
        -13    1    3    3    0    0 -0.12035677197E+02  0.48478555291E+02 -0.54540895030E+02  0.73957670862E+02  0.00000000000E+00 0.  1.
         13    1    3    3    0    0 -0.58747450594E+01 -0.44238939580E+02 -0.22751078672E+02  0.50091995223E+02  0.00000000000E+00 0. -1.
         21    1    1    2  502  501  0.43161415311E+02 -0.65395466493E+01 -0.51715698551E+02  0.67677078236E+02  0.00000000000E+00 0.  1.
<scales pt_clust_5="13000.00000" pt_clust_6="13000.00000" pt_clust_7="13000.00000" pt_clust_8="13000.00000" pt_clust_9="43.65402"></scales>
<clustering>
<clus scale="   43.654">  2  9  1 -1</clus>
<clus scale="   81.581">  5  6 -1 -1</clus>
<clus scale="   84.301">  1  5  2 -1</clus>
<clus scale="   95.265">  7  8 -1 -1</clus>
<clus scale="   84.301">  1  5  2 -1</clus>
</clustering>
</event>
<event>
 9    2  0.5608219E-005  0.1769568E+03  0.7546771E-02  0.1172082E+00
         -3   -1    0    0    0  501 -0.00000000000E+00  0.00000000000E+00  0.10609488917E+03  0.10609488917E+03  0.00000000000E+00 0.  1.
          4   -1    0    0  502    0  0.00000000000E+00 -0.00000000000E+00 -0.15481099989E+04  0.15481099989E+04  0.00000000000E+00 0. -1.
         23    2    1    2    0    0  0.11020478554E+03  0.19186421566E+02  0.28176007472E+02  0.14674003631E+03  0.90694748088E+02 0.  0.
         24    2    1    2    0    0 -0.14344237445E+03  0.60474909863E+02 -0.13391663965E+04  0.13505631549E+04  0.80132816764E+02 0.  0.
        -13    1    4    4    0    0 -0.26934806691E+02  0.28242987703E+02 -0.14059743471E+03  0.14591363477E+03  0.00000000000E+00 0.  1.
         14    1    4    4    0    0 -0.11650756776E+03  0.32231922160E+02 -0.11985689618E+04  0.12046495201E+04  0.00000000000E+00 0. -1.
        -11    1    3    3    0    0  0.24934797354E+02  0.43815333559E+02 -0.77184174865E+01  0.51000995505E+02  0.00000000000E+00 0. -1.
         11    1    3    3    0    0  0.85269988188E+02 -0.24628911993E+02  0.35894424959E+02  0.95739040807E+02  0.00000000000E+00 0.  1.
         21    1    1    2  502  501  0.33237588907E+02 -0.79661331429E+02 -0.13102472069E+03  0.15690169685E+03  0.00000000000E+00 0. -1.
<scales pt_clust_5="13000.00000" pt_clust_6="13000.00000" pt_clust_7="13000.00000" pt_clust_8="13000.00000" pt_clust_9="86.31723"></scales>
<clustering>
<clus scale="   80.133">  5  6 -1 -1</clus>
<clus scale="   86.317">  1  9  2 -1</clus>
<clus scale="   90.695">  7  8 -1 -1</clus>
<clus scale="  171.783">  2  5  1 -1</clus>
<clus scale="  171.783">  2  5  1 -1</clus>
</clustering>
</event>
<event>
 9    2  0.5608219E-005  0.1040538E+03  0.7546771E-02  0.1286646E+00
          2   -1    0    0  502    0  0.00000000000E+00  0.00000000000E+00  0.34016241981E+03  0.34016241981E+03  0.00000000000E+00 0. -1.
         -1   -1    0    0    0  501 -0.00000000000E+00 -0.00000000000E+00 -0.91766054594E+02  0.91766054594E+02  0.00000000000E+00 0.  1.
         24    2    1    2    0    0  0.52985075502E+02 -0.33747120902E+01 -0.35615116041E+02  0.88844431863E+02  0.61693514041E+02 0.  0.
         23    2    1    2    0    0 -0.37339988873E+02  0.32766183158E+02  0.29090518357E+03  0.30908183028E+03  0.91857794720E+02 0.  0.
        -13    1    3    3    0    0  0.53727118496E+02 -0.21508055085E+02 -0.39778041775E+02  0.70224584746E+02  0.00000000000E+00 0.  1.
         14    1    3    3    0    0 -0.74204299315E+00  0.18133342995E+02  0.41629257333E+01  0.18619847116E+02  0.00000000000E+00 0. -1.
        -11    1    4    4    0    0 -0.13758522404E+02  0.44675886140E+02  0.27345210936E+03  0.27741897530E+03  0.00000000000E+00 0. -1.
         11    1    4    4    0    0 -0.23581466469E+02 -0.11909702983E+02  0.17453074209E+02  0.31662854977E+02  0.00000000000E+00 0.  1.
         21    1    1    2  502  501 -0.15645086629E+02 -0.29391471067E+02 -0.68937023155E+01  0.34002212263E+02  0.00000000000E+00 0.  1.
<scales pt_clust_5="13000.00000" pt_clust_6="13000.00000" pt_clust_7="13000.00000" pt_clust_8="13000.00000" pt_clust_9="33.29606"></scales>
<clustering>
<clus scale="   33.296">  2  9  1 -1</clus>
<clus scale="   61.694">  5  6 -1 -1</clus>
<clus scale="   78.711">  2  5  1 -1</clus>
<clus scale="   91.858">  7  8 -1 -1</clus>
<clus scale="  104.054">  1  5  2 -1</clus>
</clustering>
</event>
<event>
 9    2  0.5608219E-005  0.9493698E+02  0.7546771E-02  0.1299333E+00
          2   -1    0    0  502    0  0.00000000000E+00  0.00000000000E+00  0.42070873090E+03  0.42070873090E+03  0.00000000000E+00 0. -1.
         -1   -1    0    0    0  501 -0.00000000000E+00 -0.00000000000E+00 -0.32728933492E+02  0.32728933492E+02  0.00000000000E+00 0.  1.
         23    2    1    2    0    0  0.12654546843E+02 -0.53159576061E+01  0.96504803319E+02  0.13537687250E+03  0.93943193377E+02 0.  0.
         24    2    1    2    0    0 -0.44191988520E+01 -0.17522034693E+02  0.27855751427E+03  0.29056068037E+03  0.80651529452E+02 0.  0.
        -11    1    4    4    0    0 -0.16926748933E+02 -0.45710840606E+02  0.13004755270E+03  0.13888254657E+03  0.00000000000E+00 0.  1.
         12    1    4    4    0    0  0.12507550081E+02  0.28188805913E+02  0.14850996158E+03  0.15167813381E+03  0.00000000000E+00 0. -1.
        -13    1    3    3    0    0  0.14322354598E+01  0.32294131851E+02  0.12467537919E+01  0.32349909512E+02  0.00000000000E+00 0.  1.
         13    1    3    3    0    0  0.11222311383E+02 -0.37610089457E+02  0.95258049527E+02  0.10302696298E+03  0.00000000000E+00 0. -1.
         21    1    1    2  502  501 -0.82353479908E+01  0.22837992299E+02  0.12917479811E+02  0.27500111517E+02  0.00000000000E+00 0.  1.
<scales pt_clust_5="13000.00000" pt_clust_6="13000.00000" pt_clust_7="13000.00000" pt_clust_8="13000.00000" pt_clust_9="24.27746"></scales>
<clustering>
<clus scale="   24.277">  2  9  1 -1</clus>
<clus scale="   80.652">  5  6 -1 -1</clus>
<clus scale="   81.807">  1  5  2 -1</clus>
<clus scale="   93.943">  7  8 -1 -1</clus>
<clus scale="   81.807">  1  5  2 -1</clus>
</clustering>
</event>
<event>
 9    2  0.5608219E-005  0.1277540E+03  0.7546771E-02  0.1247201E+00
         -1   -1    0    0    0  501 -0.00000000000E+00  0.00000000000E+00  0.85775586887E+02  0.85775586887E+02  0.00000000000E+00 0.  1.
          2   -1    0    0  502    0  0.00000000000E+00 -0.00000000000E+00 -0.43715537958E+03  0.43715537958E+03  0.00000000000E+00 0. -1.
         23    2    1    2    0    0  0.78725790779E+02 -0.45111429422E+02 -0.19753026826E+02  0.12878417710E+03  0.89232230755E+02 0.  0.
         24    2    1    2    0    0  0.20759569206E+02  0.43245950918E+02 -0.24733966469E+03  0.26374306132E+03  0.77989234409E+02 0.  0.
        -11    1    4    4    0    0  0.39757819061E+02 -0.60757530690E+00 -0.74862960780E+02  0.84767424291E+02  0.00000000000E+00 0.  1.
         12    1    4    4    0    0 -0.18998249855E+02  0.43853526225E+02 -0.17247670391E+03  0.17897563703E+03  0.00000000000E+00 0. -1.
        -13    1    3    3    0    0  0.41956949920E+02 -0.52701891274E+02  0.23651371112E+02  0.71395114300E+02  0.00000000000E+00 0.  1.
         13    1    3    3    0    0  0.36768840859E+02  0.75904618518E+01 -0.43404397938E+02  0.57389062805E+02  0.00000000000E+00 0. -1.
         21    1    1    2  502  501 -0.99485359985E+02  0.18654785042E+01 -0.84287101182E+02  0.13040372804E+03  0.00000000000E+00 0.  1.
<scales pt_clust_5="13000.00000" pt_clust_6="13000.00000" pt_clust_7="13000.00000" pt_clust_8="13000.00000" pt_clust_9="91.42591"></scales>
<clustering>
<clus scale="   77.989">  5  6 -1 -1</clus>
<clus scale="   89.232">  7  8 -1 -1</clus>
<clus scale="   91.561">  2  5  1 -1</clus>
<clus scale="   91.426">  2  9  1 -1</clus>
<clus scale="   91.561">  2  5  1 -1</clus>
</clustering>
</event>
<event>
 9    2  0.5608219E-005  0.9812209E+02  0.7546771E-02  0.1286914E+00
          2   -1    0    0  502    0  0.00000000000E+00  0.00000000000E+00  0.33670206733E+03  0.33670206733E+03  0.00000000000E+00 0. -1.
         -1   -1    0    0    0  501 -0.00000000000E+00 -0.00000000000E+00 -0.41508855173E+03  0.41508855173E+03  0.00000000000E+00 0.  1.
         23    2    1    2    0    0 -0.20277425321E+02  0.12300941927E+02 -0.10516278370E+03  0.13893837802E+03  0.87648015725E+02 0.  0.
         24    2    1    2    0    0  0.42157794061E+02  0.17964826386E+02  0.31162999089E+03  0.32556076382E+03  0.82319773649E+02 0.  0.
        -13    1    4    4    0    0  0.26003680702E+02 -0.32248155750E+02  0.13229055070E+03  0.13862512313E+03  0.00000000000E+00 0.  1.
         14    1    4    4    0    0  0.16154113358E+02  0.50212982135E+02  0.17933944019E+03  0.18693564069E+03  0.00000000000E+00 0. -1.
        -11    1    3    3    0    0 -0.36122687925E+02 -0.52345979782E+01 -0.10904143500E+03  0.11498819133E+03  0.00000000000E+00 0.  1.
         11    1    3    3    0    0  0.15845262604E+02  0.17535539905E+02  0.38786512920E+01  0.23950186692E+02  0.00000000000E+00 0. -1.
         21    1    1    2  502  501 -0.21880368740E+02 -0.30265768312E+02 -0.28485369159E+03  0.28729147721E+03  0.00000000000E+00 0.  1.
<scales pt_clust_5="13000.00000" pt_clust_6="13000.00000" pt_clust_7="13000.00000" pt_clust_8="13000.00000" pt_clust_9="37.34658"></scales>
<clustering>
<clus scale="   37.347">  2  9  1 -1</clus>
<clus scale="   82.320">  5  6 -1 -1</clus>
<clus scale="   87.648">  7  8 -1 -1</clus>
<clus scale="   93.393">  1  5  2 -1</clus>
<clus scale="   93.393">  1  5  2 -1</clus>
</clustering>
</event>
<event>
 9    2  0.5608219E-005  0.1264970E+03  0.7546771E-02  0.1235920E+00
          2   -1    0    0  502    0  0.00000000000E+00  0.00000000000E+00  0.21830005927E+04  0.21830005927E+04  0.00000000000E+00 0. -1.
         -1   -1    0    0    0  501 -0.00000000000E+00 -0.00000000000E+00 -0.24272897444E+02  0.24272897444E+02  0.00000000000E+00 0.  1.
         23    2    1    2    0    0  0.73840713618E+02 -0.78459725782E+02  0.23635211982E+03  0.27548686664E+03  0.91773141987E+02 0.  0.
         24    2    1    2    0    0 -0.58418193670E+02  0.61926986817E+02  0.18809466241E+04  0.18845897636E+04  0.80440892205E+02 0.  0.
        -13    1    4    4    0    0 -0.60056412330E+01  0.26712001978E+02  0.14913269081E+03  0.15162505810E+03  0.00000000000E+00 0.  1.
         14    1    4    4    0    0 -0.52412552437E+02  0.35214984839E+02  0.17318139333E+04  0.17329647055E+04  0.00000000000E+00 0. -1.
        -11    1    3    3    0    0 -0.69236190524E+00 -0.40885810441E+02  0.14965065548E+03  0.15513686714E+03  0.00000000000E+00 0. -1.
         11    1    3    3    0    0  0.74533075524E+02 -0.37573915342E+02  0.86701464344E+02  0.12034999950E+03  0.00000000000E+00 0.  1.
         21    1    1    2  502  501 -0.15422519948E+02  0.16532738965E+02  0.41428951246E+02  0.47196859859E+02  0.00000000000E+00 0.  1.
<scales pt_clust_5="13000.00000" pt_clust_6="13000.00000" pt_clust_7="13000.00000" pt_clust_8="13000.00000" pt_clust_9="22.60941"></scales>
<clustering>
<clus scale="   22.609">  2  9  1 -1</clus>
<clus scale="   80.441">  5  6 -1 -1</clus>
<clus scale="   91.773">  7  8 -1 -1</clus>
<clus scale="  118.532">  1  5  2 -1</clus>
<clus scale="  118.532">  1  5  2 -1</clus>
</clustering>
</event>
<event>
 9    2  0.5608219E-005  0.3085939E+03  0.7546771E-02  0.1081427E+00
          2   -1    0    0  502    0  0.00000000000E+00  0.00000000000E+00  0.15072286618E+04  0.15072286618E+04  0.00000000000E+00 0. -1.
         -1   -1    0    0    0  501 -0.00000000000E+00 -0.00000000000E+00 -0.21117211832E+03  0.21117211832E+03  0.00000000000E+00 0.  1.
         24    2    1    2    0    0 -0.43514030420E+02 -0.20929885636E+03  0.71331162589E+02  0.23863937636E+03  0.78492898262E+02 0.  0.
         23    2    1    2    0    0  0.13122738384E+03  0.28743079961E+03  0.12995573180E+04  0.13404845150E+04  0.90622410673E+02 0.  0.
        -13    1    3    3    0    0 -0.64599033479E+02 -0.18107019342E+03  0.64252514326E+02  0.20270134600E+03  0.00000000000E+00 0.  1.
         14    1    3    3    0    0  0.21085003059E+02 -0.28228662936E+02  0.70786482630E+01  0.35938030363E+02  0.00000000000E+00 0. -1.
        -13    1    4    4    0    0  0.21838370873E+02  0.25567586950E+02  0.59268128664E+02  0.68141962257E+02  0.00000000000E+00 0.  1.
         13    1    4    4    0    0  0.10938901297E+03  0.26186321266E+03  0.12402891894E+04  0.12723425528E+04  0.00000000000E+00 0. -1.
         21    1    1    2  502  501 -0.87713353421E+02 -0.78131943249E+02 -0.74831937134E+02  0.13927688875E+03  0.00000000000E+00 0.  1.
<scales pt_clust_5="13000.00000" pt_clust_6="13000.00000" pt_clust_7="13000.00000" pt_clust_8="13000.00000" pt_clust_9="117.46588"></scales>
<clustering>
<clus scale="   78.493">  5  6 -1 -1</clus>
<clus scale="   90.622">  7  8 -1 -1</clus>
<clus scale="  117.466">  2  9  1 -1</clus>
<clus scale="  305.252">  2  5  1 -1</clus>
<clus scale="  308.594">  1  5  2 -1</clus>
</clustering>
</event>
<event>
 9    2  0.5608219E-005  0.1993133E+03  0.7546771E-02  0.1172714E+00
          2   -1    0    0  502    0  0.00000000000E+00  0.00000000000E+00  0.13116490568E+04  0.13116490568E+04  0.00000000000E+00 0. -1.
         -1   -1    0    0    0  501 -0.00000000000E+00 -0.00000000000E+00 -0.27384749043E+03  0.27384749043E+03  0.00000000000E+00 0.  1.
         24    2    1    2    0    0  0.36349971158E+02 -0.77865688411E+02  0.94489678442E+02  0.15155972025E+03  0.81594507380E+02 0.  0.
         23    2    1    2    0    0  0.92010480411E+02 -0.44531444934E+02 -0.21815656714E+03  0.25900430300E+03  0.95089237515E+02 0.  0.
        -11    1    3    3    0    0  0.53769777167E+02 -0.70999439827E+02  0.47413986289E+02  0.10089695480E+03  0.00000000000E+00 0.  1.
         12    1    3    3    0    0 -0.17419806009E+02 -0.68662485835E+01  0.47075692152E+02  0.50662765446E+02  0.00000000000E+00 0. -1.
        -11    1    4    4    0    0  0.70371264833E+02 -0.55879891208E+02 -0.85227967880E+02  0.12384863207E+03  0.00000000000E+00 0. -1.
         11    1    4    4    0    0  0.21639215579E+02  0.11348446273E+02 -0.13292859926E+03  0.13515567093E+03  0.00000000000E+00 0.  1.
         21    1    1    2  502  501 -0.12836045157E+03  0.12239713334E+03  0.11614684551E+04  0.11749325240E+04  0.00000000000E+00 0. -1.
<scales pt_clust_5="13000.00000" pt_clust_6="13000.00000" pt_clust_7="13000.00000" pt_clust_8="13000.00000" pt_clust_9="175.16806"></scales>
<clustering>
<clus scale="   81.595">  5  6 -1 -1</clus>
<clus scale="   95.089">  7  8 -1 -1</clus>
<clus scale="  118.499">  2  5  1 -1</clus>
<clus scale="  175.168">  1  9  2 -1</clus>
<clus scale="  175.168">  1  5  2 -1</clus>
</clustering>
</event>
<event>
 9    2  0.5608219E-005  0.1441679E+03  0.7546771E-02  0.1209728E+00
         -1   -1    0    0    0  501 -0.00000000000E+00  0.00000000000E+00  0.95430282718E+02  0.95430282718E+02  0.00000000000E+00 0.  1.
          2   -1    0    0  502    0  0.00000000000E+00 -0.00000000000E+00 -0.84958098798E+03  0.84958098798E+03  0.00000000000E+00 0. -1.
         23    2    1    2    0    0 -0.61024450970E+02 -0.57479219612E+02  0.34849441913E+02  0.12887435278E+03  0.91467321487E+02 0.  0.
         24    2    1    2    0    0  0.83355331142E+02  0.77154817236E+02 -0.76547175857E+03  0.77819772418E+03  0.82120080942E+02 0.  0.
        -11    1    4    4    0    0  0.42981988428E+02  0.13126415279E+02 -0.11719212159E+03  0.12551393337E+03  0.00000000000E+00 0.  1.
         12    1    4    4    0    0  0.40373342714E+02  0.64028401957E+02 -0.64827963699E+03  0.65268379081E+03  0.00000000000E+00 0. -1.
        -13    1    3    3    0    0 -0.24839293715E+02 -0.78423055794E+02  0.23353938977E+02  0.85513581717E+02  0.00000000000E+00 0.  1.
         13    1    3    3    0    0 -0.36185157255E+02  0.20943836183E+02  0.11495502937E+02  0.43360771065E+02  0.00000000000E+00 0. -1.
         21    1    1    2  502  501 -0.22330880172E+02 -0.19675597624E+02 -0.23528388604E+02  0.37939193737E+02  0.00000000000E+00 0.  1.
<scales pt_clust_5="13000.00000" pt_clust_6="13000.00000" pt_clust_7="13000.00000" pt_clust_8="13000.00000" pt_clust_9="29.76235"></scales>
<clustering>
<clus scale="   29.762">  1  9  2 -1</clus>
<clus scale="   82.120">  5  6 -1 -1</clus>
<clus scale="   91.467">  7  8 -1 -1</clus>
<clus scale="  138.426">  2  5  1 -1</clus>
<clus scale="  138.426">  2  5  1 -1</clus>
</clustering>
</event>
<event>
 9    2  0.5608219E-005  0.1086736E+03  0.7546771E-02  0.1266603E+00
          2   -1    0    0  502    0  0.00000000000E+00  0.00000000000E+00  0.43257190503E+03  0.43257190503E+03  0.00000000000E+00 0. -1.
         -1   -1    0    0    0  501 -0.00000000000E+00 -0.00000000000E+00 -0.38422128933E+02  0.38422128933E+02  0.00000000000E+00 0.  1.
         23    2    1    2    0    0  0.41800360342E+02 -0.35270491270E+02  0.13877736217E+03  0.17316015736E+03  0.87943198520E+02 0.  0.
         24    2    1    2    0    0 -0.30462363597E+02  0.65435600586E+02  0.23877188510E+03  0.26158388974E+03  0.78767663668E+02 0.  0.
        -13    1    4    4    0    0 -0.53583124259E+02  0.23288468661E+02  0.14128512956E+03  0.15288882174E+03  0.00000000000E+00 0.  1.
         14    1    4    4    0    0  0.23120760661E+02  0.42147131925E+02  0.97486755534E+02  0.10869506800E+03  0.00000000000E+00 0. -1.
        -13    1    3    3    0    0  0.53048400492E+01 -0.26840978920E+02  0.13235973570E+03  0.13515797835E+03  0.00000000000E+00 0. -1.
         13    1    3    3    0    0  0.36495520293E+02 -0.84295123490E+01  0.64176264726E+01  0.38002179009E+02  0.00000000000E+00 0.  1.
         21    1    1    2  502  501 -0.11337996745E+02 -0.30165109316E+02  0.16600528831E+02  0.36249986865E+02  0.00000000000E+00 0.  1.
<scales pt_clust_5="13000.00000" pt_clust_6="13000.00000" pt_clust_7="13000.00000" pt_clust_8="13000.00000" pt_clust_9="32.22552"></scales>
<clustering>
<clus scale="   32.226">  2  9  1 -1</clus>
<clus scale="   78.768">  5  6 -1 -1</clus>
<clus scale="   87.943">  7  8 -1 -1</clus>
<clus scale="  101.392">  1  5  2 -1</clus>
<clus scale="  101.392">  1  5  2 -1</clus>
</clustering>
</event>
<event>
 9    2  0.5608219E-005  0.9759532E+02  0.7546771E-02  0.1289426E+00
         -1   -1    0    0    0  501 -0.00000000000E+00  0.00000000000E+00  0.54095074590E+02  0.54095074590E+02  0.00000000000E+00 0.  1.
          2   -1    0    0  502    0  0.00000000000E+00 -0.00000000000E+00 -0.30546901695E+03  0.30546901695E+03  0.00000000000E+00 0. -1.
         24    2    1    2    0    0 -0.47386482423E+02  0.46767775812E+01 -0.23111499198E+02  0.98075599106E+02  0.82567128931E+02 0.  0.
         23    2    1    2    0    0  0.30590318819E+02 -0.17169233931E+02 -0.21721671383E+03  0.23782035533E+03  0.90248935964E+02 0.  0.
        -11    1    3    3    0    0 -0.24114913490E+01  0.25365673142E+02  0.20029702223E+02  0.32410208818E+02  0.00000000000E+00 0.  1.
         12    1    3    3    0    0 -0.44974991074E+02 -0.20688895561E+02 -0.43141201421E+02  0.65665390288E+02  0.00000000000E+00 0. -1.
        -13    1    4    4    0    0 -0.14481669242E+02 -0.38925152123E+02 -0.13803624783E+03  0.14414885336E+03  0.00000000000E+00 0.  1.
         13    1    4    4    0    0  0.45071988061E+02  0.21755918192E+02 -0.79180466004E+02  0.93671501967E+02  0.00000000000E+00 0. -1.
         21    1    1    2  502  501  0.16796163604E+02  0.12492456350E+02 -0.11045729329E+02  0.23668137102E+02  0.00000000000E+00 0.  1.
<scales pt_clust_5="13000.00000" pt_clust_6="13000.00000" pt_clust_7="13000.00000" pt_clust_8="13000.00000" pt_clust_9="20.93257"></scales>
<clustering>
<clus scale="   20.933">  1  9  2 -1</clus>
<clus scale="   82.567">  5  6 -1 -1</clus>
<clus scale="   90.249">  7  8 -1 -1</clus>
<clus scale="   90.539">  1  5  2 -1</clus>
<clus scale="   97.595">  2  5  1 -1</clus>
</clustering>
</event>
<event>
 9    2  0.5608219E-005  0.1211327E+03  0.7546771E-02  0.1244256E+00
          2   -1    0    0  502    0  0.00000000000E+00  0.00000000000E+00  0.77500466903E+03  0.77500466903E+03  0.00000000000E+00 0. -1.
         -1   -1    0    0    0  501 -0.00000000000E+00 -0.00000000000E+00 -0.55358606623E+02  0.55358606623E+02  0.00000000000E+00 0.  1.
         24    2    1    2    0    0 -0.11219097458E+03  0.36386126107E+02  0.12368609844E+03  0.18899920923E+03  0.80695013419E+02 0.  0.
         23    2    1    2    0    0  0.67195479269E+02  0.42297404190E+02  0.47608993749E+03  0.49108261119E+03  0.90532864756E+02 0.  0.
        -13    1    3    3    0    0 -0.10622730830E+03  0.30644856454E+02  0.61993841123E+02  0.12675403186E+03  0.00000000000E+00 0.  1.
         14    1    3    3    0    0 -0.59636662853E+01  0.57412696530E+01  0.61692257319E+02  0.62245177371E+02  0.00000000000E+00 0. -1.
        -11    1    4    4    0    0 -0.72870420599E+01 -0.21047944169E+02  0.10418077923E+03  0.10653521341E+03  0.00000000000E+00 0.  1.
         11    1    4    4    0    0  0.74482521329E+02  0.63345348359E+02  0.37190915826E+03  0.38454739778E+03  0.00000000000E+00 0. -1.
         21    1    1    2  502  501  0.44995495316E+02 -0.78683530297E+02  0.11987002647E+03  0.15028145523E+03  0.00000000000E+00 0.  1.
<scales pt_clust_5="13000.00000" pt_clust_6="13000.00000" pt_clust_7="13000.00000" pt_clust_8="13000.00000" pt_clust_9="90.64046"></scales>
<clustering>
<clus scale="   80.695">  5  6 -1 -1</clus>
<clus scale="   90.533">  7  8 -1 -1</clus>
<clus scale="   90.640">  2  9  1 -1</clus>
<clus scale="  113.968">  2  5  1 -1</clus>
<clus scale="  121.133">  1  5  2 -1</clus>
</clustering>
</event>
<event>
 9    2  0.5608219E-005  0.9665862E+02  0.7546771E-02  0.1294837E+00
          2   -1    0    0  502    0  0.00000000000E+00  0.00000000000E+00  0.16458061167E+03  0.16458061167E+03  0.00000000000E+00 0. -1.
         -1   -1    0    0    0  501 -0.00000000000E+00 -0.00000000000E+00 -0.22681776729E+03  0.22681776729E+03  0.00000000000E+00 0.  1.
         23    2    1    2    0    0  0.16544550944E+02 -0.27257658516E+02 -0.19292197712E+03  0.21603046780E+03  0.91834479637E+02 0.  0.
         24    2    1    2    0    0  0.17139738656E+01  0.11697814659E+02  0.12869883557E+03  0.15129662932E+03  0.78660683908E+02 0.  0.
        -11    1    4    4    0    0 -0.32740229191E+02 -0.11539648109E+02  0.37647459993E+02  0.51209543348E+02  0.00000000000E+00 0.  1.
         12    1    4    4    0    0  0.34454203057E+02  0.23237462769E+02  0.91051375579E+02  0.10008708598E+03  0.00000000000E+00 0. -1.
        -13    1    3    3    0    0  0.80496483547E+01 -0.54905828177E+02 -0.17088128572E+03  0.17966596955E+03  0.00000000000E+00 0.  1.
         13    1    3    3    0    0  0.84949025897E+01  0.27648169662E+02 -0.22040691400E+02  0.36364498251E+02  0.00000000000E+00 0. -1.
         21    1    1    2  502  501 -0.18258524810E+02  0.15559843856E+02  0.19859859188E+01  0.24071281834E+02  0.00000000000E+00 0. -1.
<scales pt_clust_5="13000.00000" pt_clust_6="13000.00000" pt_clust_7="13000.00000" pt_clust_8="13000.00000" pt_clust_9="23.98922"></scales>
<clustering>
<clus scale="   23.989">  1  9  2 -1</clus>
<clus scale="   78.661">  5  6 -1 -1</clus>
<clus scale="   84.243">  1  5  2 -1</clus>
<clus scale="   91.834">  7  8 -1 -1</clus>
<clus scale="   23.989">  1  5  2 -1</clus>
</clustering>
</event>
<event>
 9    2  0.5608219E-005  0.1273913E+03  0.7546771E-02  0.1255667E+00
         -1   -1    0    0    0  501 -0.00000000000E+00  0.00000000000E+00  0.21391652781E+03  0.21391652781E+03  0.00000000000E+00 0.  1.
          2   -1    0    0  502    0  0.00000000000E+00 -0.00000000000E+00 -0.30588623489E+03  0.30588623489E+03  0.00000000000E+00 0. -1.
         24    2    1    2    0    0  0.76131024741E+02 -0.33363509241E+02 -0.47273452824E+02  0.12555518837E+03  0.81365037378E+02 0.  0.
         23    2    1    2    0    0  0.20272717817E+02  0.41743316074E+01 -0.19686788648E+03  0.21175950534E+03  0.75211137770E+02 0.  0.
        -13    1    3    3    0    0 -0.13423044776E+02 -0.21927501775E+02 -0.14449479102E+02  0.29492048275E+02  0.00000000000E+00 0.  1.
         14    1    3    3    0    0  0.89554069517E+02 -0.11436007467E+02 -0.32823973721E+02  0.96063140094E+02  0.00000000000E+00 0. -1.
        -13    1    4    4    0    0 -0.12319024593E+02 -0.28354941917E+02 -0.96533733584E+02  0.10136332087E+03  0.00000000000E+00 0.  1.
         13    1    4    4    0    0  0.32591742410E+02  0.32529273524E+02 -0.10033415290E+03  0.11039618447E+03  0.00000000000E+00 0. -1.
         21    1    1    2  502  501 -0.96403742558E+02  0.29189177634E+02  0.15217163222E+03  0.18248806899E+03  0.00000000000E+00 0.  1.
<scales pt_clust_5="13000.00000" pt_clust_6="13000.00000" pt_clust_7="13000.00000" pt_clust_8="13000.00000" pt_clust_9="98.02182"></scales>
<clustering>
<clus scale="   75.211">  7  8 -1 -1</clus>
<clus scale="   78.007">  2  7  1 -1</clus>
<clus scale="   81.365">  5  6 -1 -1</clus>
<clus scale="   98.022">  1  9  2 -1</clus>
<clus scale="   78.007">  2  5  1 -1</clus>
</clustering>
</event>
<event>
 9    2  0.5608219E-005  0.1253803E+03  0.7546771E-02  0.1235543E+00
         -1   -1    0    0    0  501 -0.00000000000E+00  0.00000000000E+00  0.85035391102E+02  0.85035391102E+02  0.00000000000E+00 0.  1.
          2   -1    0    0  502    0  0.00000000000E+00 -0.00000000000E+00 -0.52907141866E+03  0.52907141866E+03  0.00000000000E+00 0. -1.
         23    2    1    2    0    0  0.53411708138E+02 -0.17859103612E+02 -0.17765914382E+02  0.11058986146E+03  0.93502575343E+02 0.  0.
         24    2    1    2    0    0 -0.84026465402E+02  0.57931797190E+01 -0.44668186362E+03  0.46479370673E+03  0.97028319114E+02 0.  0.
        -11    1    4    4    0    0 -0.52299234525E+02  0.46431885833E+02 -0.17871090614E+03  0.19190809761E+03  0.00000000000E+00 0.  1.
         12    1    4    4    0    0 -0.31727230877E+02 -0.40638706114E+02 -0.26797095748E+03  0.27288560912E+03  0.00000000000E+00 0. -1.
        -11    1    3    3    0    0  0.12634686555E+02  0.36133665429E+02  0.62650543612E+01  0.38788245485E+02  0.00000000000E+00 0.  1.
         11    1    3    3    0    0  0.40777021583E+02 -0.53992769041E+02 -0.24030968743E+02  0.71801615975E+02  0.00000000000E+00 0. -1.
         21    1    1    2  502  501  0.30614757264E+02  0.12065923893E+02  0.20411750444E+02  0.38723241573E+02  0.00000000000E+00 0.  1.
<scales pt_clust_5="13000.00000" pt_clust_6="13000.00000" pt_clust_7="13000.00000" pt_clust_8="13000.00000" pt_clust_9="32.90668"></scales>
<clustering>
<clus scale="   32.907">  1  9  2 -1</clus>
<clus scale="   93.503">  7  8 -1 -1</clus>
<clus scale="   97.028">  5  6 -1 -1</clus>
<clus scale="  122.672">  1  7  2 -1</clus>
<clus scale="  125.380">  2  5  1 -1</clus>
</clustering>
</event>
<event>
 9    2  0.5608219E-005  0.1441820E+03  0.7546771E-02  0.1213468E+00
         -3   -1    0    0    0  501 -0.00000000000E+00  0.00000000000E+00  0.29389147404E+03  0.29389147404E+03  0.00000000000E+00 0.  1.
          4   -1    0    0  502    0  0.00000000000E+00 -0.00000000000E+00 -0.79336741437E+02  0.79336741437E+02  0.00000000000E+00 0. -1.
         24    2    1    2    0    0 -0.82582226213E+02  0.47828795680E+02  0.94521860614E+02  0.15501018564E+03  0.77371556365E+02 0.  0.
         23    2    1    2    0    0  0.82958269866E+02 -0.69833041593E+02  0.72226963102E+02  0.16558977534E+03  0.10219839168E+03 0.  0.
        -13    1    3    3    0    0 -0.30483445150E+02  0.61685071053E+02  0.49304564710E+02  0.84647672858E+02  0.00000000000E+00 0.  1.
         14    1    3    3    0    0 -0.52098781064E+02 -0.13856275373E+02  0.45217295904E+02  0.70362512778E+02  0.00000000000E+00 0. -1.
        -11    1    4    4    0    0 -0.23090540557E+01 -0.54242283613E+02  0.25070724889E+01  0.54349263791E+02  0.00000000000E+00 0. -1.
         11    1    4    4    0    0  0.85267323922E+02 -0.15590757980E+02  0.69719890613E+02  0.11124051155E+03  0.00000000000E+00 0.  1.
         21    1    1    2  502  501 -0.37604365258E+00  0.22004245913E+02  0.47805908890E+02  0.52628254501E+02  0.00000000000E+00 0.  1.
<scales pt_clust_5="13000.00000" pt_clust_6="13000.00000" pt_clust_7="13000.00000" pt_clust_8="13000.00000" pt_clust_9="22.00746"></scales>
<clustering>
<clus scale="   22.007">  1  9  2 -1</clus>
<clus scale="   77.372">  5  6 -1 -1</clus>
<clus scale="  102.198">  7  8 -1 -1</clus>
<clus scale="  127.790">  1  5  2 -1</clus>
<clus scale="  144.182">  2  5  1 -1</clus>
</clustering>
</event>
<event>
 9    2  0.5608219E-005  0.1263905E+03  0.7546771E-02  0.1236266E+00
         -1   -1    0    0    0  501 -0.00000000000E+00  0.00000000000E+00  0.33931733078E+02  0.33931733078E+02  0.00000000000E+00 0.  1.
          2   -1    0    0  502    0  0.00000000000E+00 -0.00000000000E+00 -0.77508484201E+03  0.77508484201E+03  0.00000000000E+00 0. -1.
         23    2    1    2    0    0 -0.30273921328E+02  0.61955798032E+02 -0.14787233144E+03  0.18733274760E+03  0.92045101419E+02 0.  0.
         24    2    1    2    0    0  0.46796936765E+02 -0.79613704200E+02 -0.58252295000E+03  0.59521606328E+03  0.80130390811E+02 0.  0.
        -13    1    4    4    0    0  0.24830514400E+02 -0.24197233509E+02 -0.59946276125E+02  0.69250390440E+02  0.00000000000E+00 0.  1.
         14    1    4    4    0    0  0.21966422364E+02 -0.55416470692E+02 -0.52257667387E+03  0.52596567284E+03  0.00000000000E+00 0. -1.
        -11    1    3    3    0    0 -0.43569515622E+00  0.20957617112E+02  0.87437664858E+01  0.22712661615E+02  0.00000000000E+00 0.  1.
         11    1    3    3    0    0 -0.29838226172E+02  0.40998180920E+02 -0.15661609793E+03  0.16462008599E+03  0.00000000000E+00 0. -1.
         21    1    1    2  502  501 -0.16523015437E+02  0.17657906168E+02 -0.10757827488E+02  0.26467764198E+02  0.00000000000E+00 0. -1.
<scales pt_clust_5="13000.00000" pt_clust_6="13000.00000" pt_clust_7="13000.00000" pt_clust_8="13000.00000" pt_clust_9="24.18288"></scales>
<clustering>
<clus scale="   24.183">  1  9  2 -1</clus>
<clus scale="   80.130">  5  6 -1 -1</clus>
<clus scale="   92.045">  7  8 -1 -1</clus>
<clus scale="  117.996">  2  5  1 -1</clus>
<clus scale="  117.996">  2  5  1 -1</clus>
</clustering>
</event>
<event>
 9    2  0.5608219E-005  0.1289362E+03  0.7546771E-02  0.1231837E+00
         -1   -1    0    0    0  501 -0.00000000000E+00  0.00000000000E+00  0.21952194101E+03  0.21952194101E+03  0.00000000000E+00 0.  1.
          2   -1    0    0  502    0  0.00000000000E+00 -0.00000000000E+00 -0.35049857127E+03  0.35049857127E+03  0.00000000000E+00 0. -1.
         23    2    1    2    0    0 -0.45806062362E+02 -0.10340238915E+03 -0.35089895844E+02  0.14916996786E+03  0.90720058910E+02 0.  0.
         24    2    1    2    0    0  0.30694884657E+02  0.80934508069E+02 -0.24361244925E+03  0.27066385994E+03  0.80120715846E+02 0.  0.
        -13    1    4    4    0    0  0.43855463990E+02  0.12325224337E+02 -0.69941821078E+02  0.83468983535E+02  0.00000000000E+00 0.  1.
         14    1    4    4    0    0 -0.13160579333E+02  0.68609283731E+02 -0.17367062817E+03  0.18719487640E+03  0.00000000000E+00 0. -1.
        -13    1    3    3    0    0 -0.55124796711E+02 -0.74251313138E+02 -0.59550060789E+02  0.10999186540E+03  0.00000000000E+00 0. -1.
         13    1    3    3    0    0  0.93187343490E+01 -0.29151076014E+02  0.24460164945E+02  0.39178102452E+02  0.00000000000E+00 0.  1.
         21    1    1    2  502  501  0.15111177706E+02  0.22467881083E+02  0.14772571483E+03  0.15018668448E+03  0.00000000000E+00 0.  1.
<scales pt_clust_5="13000.00000" pt_clust_6="13000.00000" pt_clust_7="13000.00000" pt_clust_8="13000.00000" pt_clust_9="27.07681"></scales>
<clustering>
<clus scale="   27.077">  1  9  2 -1</clus>
<clus scale="   80.121">  5  6 -1 -1</clus>
<clus scale="   90.720">  7  8 -1 -1</clus>
<clus scale="  121.712">  2  5  1 -1</clus>
<clus scale="  121.712">  2  5  1 -1</clus>
</clustering>
</event>
<event>
 9    2  0.5608219E-005  0.1416036E+03  0.7546771E-02  0.1212709E+00
          2   -1    0    0  502    0  0.00000000000E+00  0.00000000000E+00  0.16254162833E+03  0.16254162833E+03  0.00000000000E+00 0. -1.
         -1   -1    0    0    0  501 -0.00000000000E+00 -0.00000000000E+00 -0.18165763190E+03  0.18165763190E+03  0.00000000000E+00 0.  1.
         23    2    1    2    0    0  0.11053540886E+03 -0.51340919078E+02 -0.70943007630E+02  0.16654367807E+03  0.88599773085E+02 0.  0.
         24    2    1    2    0    0 -0.85276996544E+02  0.64666576269E+02  0.61171577078E+02  0.14760759425E+03  0.81191796455E+02 0.  0.
        -11    1    4    4    0    0 -0.40611831176E+02 -0.14203824969E+02  0.26693079680E+02  0.50631906719E+02  0.00000000000E+00 0.  1.
         12    1    4    4    0    0 -0.44665165368E+02  0.78870401239E+02  0.34478497398E+02  0.96975687529E+02  0.00000000000E+00 0. -1.
        -11    1    3    3    0    0  0.18574013760E+02 -0.96508191090E+01 -0.61697143870E+02  0.65151130906E+02  0.00000000000E+00 0.  1.
         11    1    3    3    0    0  0.91961395102E+02 -0.41690099969E+02 -0.92458637601E+01  0.10139254717E+03  0.00000000000E+00 0. -1.
         21    1    1    2  502  501 -0.25258412318E+02 -0.13325657191E+02 -0.93445730153E+01  0.30047987907E+02  0.00000000000E+00 0.  1.
<scales pt_clust_5="13000.00000" pt_clust_6="13000.00000" pt_clust_7="13000.00000" pt_clust_8="13000.00000" pt_clust_9="28.55802"></scales>
<clustering>
<clus scale="   28.558">  2  9  1 -1</clus>
<clus scale="   81.192">  5  6 -1 -1</clus>
<clus scale="   88.600">  7  8 -1 -1</clus>
<clus scale="  137.090">  1  5  2 -1</clus>
<clus scale="  137.090">  1  5  2 -1</clus>
</clustering>
</event>
<event>
 9    2  0.5608219E-005  0.1078029E+03  0.7546771E-02  0.1277396E+00
         -1   -1    0    0    0  501 -0.00000000000E+00  0.00000000000E+00  0.48148940627E+03  0.48148940627E+03  0.00000000000E+00 0.  1.
          2   -1    0    0  502    0  0.00000000000E+00 -0.00000000000E+00 -0.53753371945E+02  0.53753371945E+02  0.00000000000E+00 0. -1.
         24    2    1    2    0    0 -0.18060083514E+02  0.76945567952E+01  0.20210176148E+03  0.21853597389E+03  0.80792803331E+02 0.  0.
         23    2    1    2    0    0 -0.30551041206E+02 -0.19142574279E+02  0.30331546734E+02  0.11511996602E+03  0.10503713429E+03 0.  0.
        -13    1    3    3    0    0  0.41553423629E+01 -0.26524559201E+02  0.24626951769E+02  0.36432209162E+02  0.00000000000E+00 0.  1.
         14    1    3    3    0    0 -0.22215425877E+02  0.34219115996E+02  0.17747480971E+03  0.18210376473E+03  0.00000000000E+00 0. -1.
        -11    1    4    4    0    0  0.18855731932E+02  0.15321907727E+02 -0.23888454402E+02  0.34072829891E+02  0.00000000000E+00 0.  1.
         11    1    4    4    0    0 -0.49406773138E+02 -0.34464482006E+02  0.54220001136E+02  0.81047136131E+02  0.00000000000E+00 0. -1.
         21    1    1    2  502  501  0.48611124720E+02  0.11448017484E+02  0.19530272611E+03  0.20158683830E+03  0.00000000000E+00 0.  1.
<scales pt_clust_5="13000.00000" pt_clust_6="13000.00000" pt_clust_7="13000.00000" pt_clust_8="13000.00000" pt_clust_9="49.94095"></scales>
<clustering>
<clus scale="   49.941">  1  9  2 -1</clus>
<clus scale="   80.793">  5  6 -1 -1</clus>
<clus scale="   84.357">  1  5  2 -1</clus>
<clus scale="  105.037">  7  8 -1 -1</clus>
<clus scale="  107.803">  2  5  1 -1</clus>
</clustering>
</event>
<event>
 9    2  0.5608219E-005  0.1065665E+03  0.7546771E-02  0.1270268E+00
          2   -1    0    0  502    0  0.00000000000E+00  0.00000000000E+00  0.52892714719E+03  0.52892714719E+03  0.00000000000E+00 0. -1.
         -1   -1    0    0    0  501 -0.00000000000E+00 -0.00000000000E+00 -0.49553971313E+02  0.49553971313E+02  0.00000000000E+00 0.  1.
         23    2    1    2    0    0 -0.38805798404E+02 -0.37276388464E+02  0.42729289185E+02  0.11207361778E+03  0.88539734138E+02 0.  0.
         24    2    1    2    0    0  0.55120882674E+02  0.25320591131E+02  0.43449170847E+03  0.44606653379E+03  0.80702315961E+02 0.  0.
        -13    1    4    4    0    0 -0.12666532943E+02 -0.16629718401E+02  0.76357801429E+02  0.79167559202E+02  0.00000000000E+00 0.  1.
         14    1    4    4    0    0  0.67787415616E+02  0.41950309531E+02  0.35813390704E+03  0.36689897459E+03  0.00000000000E+00 0. -1.
        -11    1    3    3    0    0 -0.10426034066E+02  0.29298885251E+02  0.10213785035E+02  0.32732984405E+02  0.00000000000E+00 0. -1.
         11    1    3    3    0    0 -0.28379764338E+02 -0.66575273716E+02  0.32515504150E+02  0.79340633375E+02  0.00000000000E+00 0.  1.
         21    1    1    2  502  501 -0.16315084270E+02  0.11955797334E+02  0.21521782271E+01  0.20340966932E+02  0.00000000000E+00 0. -1.
<scales pt_clust_5="13000.00000" pt_clust_6="13000.00000" pt_clust_7="13000.00000" pt_clust_8="13000.00000" pt_clust_9="20.22679"></scales>
<clustering>
<clus scale="   20.227">  2  9  1 -1</clus>
<clus scale="   80.702">  5  6 -1 -1</clus>
<clus scale="   88.540">  7  8 -1 -1</clus>
<clus scale="  100.150">  1  5  2 -1</clus>
<clus scale="  100.150">  1  5  2 -1</clus>
</clustering>
</event>
<event>
 9    2  0.5608219E-005  0.9502911E+02  0.7546771E-02  0.1297826E+00
         -1   -1    0    0    0  501 -0.00000000000E+00  0.00000000000E+00  0.11024734055E+03  0.11024734055E+03  0.00000000000E+00 0.  1.
          2   -1    0    0  502    0  0.00000000000E+00 -0.00000000000E+00 -0.20736534340E+03  0.20736534340E+03  0.00000000000E+00 0. -1.
         23    2    1    2    0    0  0.45413768775E+02  0.17000203896E+02  0.62062715347E+02  0.12013684708E+03  0.90717495903E+02 0.  0.
         24    2    1    2    0    0 -0.24932759686E+02 -0.72622850004E+01 -0.15275822255E+03  0.17390578707E+03  0.78954195146E+02 0.  0.
        -13    1    4    4    0    0  0.86881078523E+01 -0.25092166956E+02 -0.13989613477E+02  0.30013486066E+02  0.00000000000E+00 0.  1.
         14    1    4    4    0    0 -0.33620867538E+02  0.17829881955E+02 -0.13876860907E+03  0.14389230100E+03  0.00000000000E+00 0. -1.
        -13    1    3    3    0    0  0.67598972096E+02  0.49349746334E+01  0.65969074264E+02  0.94582735012E+02  0.00000000000E+00 0.  1.
         13    1    3    3    0    0 -0.22185203321E+02  0.12065229262E+02 -0.39063589168E+01  0.25554112067E+02  0.00000000000E+00 0. -1.
         21    1    1    2  502  501 -0.20481009089E+02 -0.97379188954E+01 -0.64224956471E+01  0.23570049810E+02  0.00000000000E+00 0. -1.
<scales pt_clust_5="13000.00000" pt_clust_6="13000.00000" pt_clust_7="13000.00000" pt_clust_8="13000.00000" pt_clust_9="22.67816"></scales>
<clustering>
<clus scale="   22.678">  1  9  2 -1</clus>
<clus scale="   78.954">  5  6 -1 -1</clus>
<clus scale="   83.873">  2  5  1 -1</clus>
<clus scale="   90.717">  7  8 -1 -1</clus>
<clus scale="   83.873">  2  5  1 -1</clus>
</clustering>
</event>
<event>
 9    2  0.5608219E-005  0.1341143E+03  0.7546771E-02  0.1223544E+00
         -1   -1    0    0    0  501 -0.00000000000E+00  0.00000000000E+00  0.49751820521E+03  0.49751820521E+03  0.00000000000E+00 0.  1.
          2   -1    0    0  502    0  0.00000000000E+00 -0.00000000000E+00 -0.89981674733E+02  0.89981674733E+02  0.00000000000E+00 0. -1.
         23    2    1    2    0    0  0.10303684574E+03 -0.28403610372E+02  0.36543946571E+03  0.39125465604E+03  0.90060236015E+02 0.  0.
         24    2    1    2    0    0 -0.82780362597E+02  0.80132569709E+01  0.85361414297E+02  0.14430395359E+03  0.81364975585E+02 0.  0.
        -13    1    4    4    0    0 -0.98098747647E+02  0.11791670652E+02  0.63901130672E+02  0.11766801727E+03  0.00000000000E+00 0.  1.
         14    1    4    4    0    0  0.15318385050E+02 -0.37784136808E+01  0.21460283625E+02  0.26635936322E+02  0.00000000000E+00 0. -1.
        -13    1    3    3    0    0  0.79004002714E+01  0.28029330820E+02  0.72986740573E+02  0.78581957281E+02  0.00000000000E+00 0.  1.
         13    1    3    3    0    0  0.95136445472E+02 -0.56432941192E+02  0.29245272514E+03  0.31267269876E+03  0.00000000000E+00 0. -1.
         21    1    1    2  502  501 -0.20256483147E+02  0.20390353401E+02 -0.43264349531E+02  0.51941270312E+02  0.00000000000E+00 0.  1.
<scales pt_clust_5="13000.00000" pt_clust_6="13000.00000" pt_clust_7="13000.00000" pt_clust_8="13000.00000" pt_clust_9="28.74181"></scales>
<clustering>
<clus scale="   28.742">  2  9  1 -1</clus>
<clus scale="   81.365">  5  6 -1 -1</clus>
<clus scale="   90.060">  7  8 -1 -1</clus>
<clus scale="  128.437">  2  5  1 -1</clus>
<clus scale="   28.742">  2  5  1 -1</clus>
</clustering>
</event>
<event>
 9    2  0.5608219E-005  0.1246600E+03  0.7546771E-02  0.1240450E+00
         -1   -1    0    0    0  501 -0.00000000000E+00  0.00000000000E+00  0.82171495759E+02  0.82171495759E+02  0.00000000000E+00 0.  1.
          2   -1    0    0  502    0  0.00000000000E+00 -0.00000000000E+00 -0.40631780085E+03  0.40631780085E+03  0.00000000000E+00 0. -1.
         24    2    1    2    0    0 -0.58632016303E+02  0.89306958805E+01 -0.32421353097E+02  0.10179084400E+03  0.76110190650E+02 0.  0.
         23    2    1    2    0    0  0.57282936101E+02 -0.84046197929E+02 -0.27821389263E+03  0.31036558033E+03  0.92621408121E+02 0.  0.
        -11    1    3    3    0    0  0.59091678759E+01 -0.19522720327E+02 -0.22817107537E+02  0.30605151042E+02  0.00000000000E+00 0.  1.
         12    1    3    3    0    0 -0.64541184179E+02  0.28453416207E+02 -0.96042455599E+01  0.71185692957E+02  0.00000000000E+00 0. -1.
        -11    1    4    4    0    0  0.68231198255E+02 -0.26012972956E+02 -0.19582538704E+03  0.20899701765E+03  0.00000000000E+00 0. -1.
         11    1    4    4    0    0 -0.10948262154E+02 -0.58033224973E+02 -0.82388505589E+02  0.10136856267E+03  0.00000000000E+00 0.  1.
         21    1    1    2  502  501  0.13490802013E+01  0.75115502048E+02 -0.13511059356E+02  0.76332872278E+02  0.00000000000E+00 0.  1.
<scales pt_clust_5="13000.00000" pt_clust_6="13000.00000" pt_clust_7="13000.00000" pt_clust_8="13000.00000" pt_clust_9="75.12762"></scales>
<clustering>
<clus scale="   75.128">  1  9  2 -1</clus>
<clus scale="   76.110">  5  6 -1 -1</clus>
<clus scale="   92.621">  7  8 -1 -1</clus>
<clus scale="  112.934">  1  5  2 -1</clus>
<clus scale="  124.660">  2  5  1 -1</clus>
</clustering>
</event>
<event>
 9    2  0.6133670E-005  0.1166310E+03  0.7546771E-02  0.1258619E+00
         -1   -1    0    0    0  501 -0.00000000000E+00  0.00000000000E+00  0.31143203453E+03  0.31143203453E+03  0.00000000000E+00 0.  1.
          2   -1    0    0  502    0  0.00000000000E+00 -0.00000000000E+00 -0.48937722025E+03  0.48937722025E+03  0.00000000000E+00 0. -1.
         24    2    1    2    0    0  0.15860455326E+02 -0.20368218663E+02  0.27001747001E+03  0.28286651484E+03  0.80234735230E+02 0.  0.
         23    2    1    2    0    0 -0.30321725044E+02  0.43727776627E+02 -0.46898694125E+03  0.48334768462E+03  0.10413792638E+03 0.  0.
        -13    1    3    3    0    0 -0.20285734151E+02  0.20892216068E+02  0.82382063011E+02  0.87377342648E+02  0.00000000000E+00 0.  1.
         14    1    3    3    0    0  0.36146189477E+02 -0.41260434732E+02  0.18763540699E+03  0.19548917220E+03  0.00000000000E+00 0. -1.
        -11    1    4    4    0    0  0.28913848042E+02  0.99211402116E-01 -0.48430898298E+02  0.56405428475E+02  0.00000000000E+00 0.  1.
         11    1    4    4    0    0 -0.59235573086E+02  0.43628565225E+02 -0.42055604295E+03  0.42694225615E+03  0.00000000000E+00 0. -1.
         21    1    1    2  502  501  0.14461269718E+02 -0.23359557964E+02  0.21024285530E+02  0.34595055314E+02  0.00000000000E+00 0.  1.
<scales pt_clust_5="13000.00000" pt_clust_6="13000.00000" pt_clust_7="13000.00000" pt_clust_8="13000.00000" pt_clust_9="27.47357"></scales>
<clustering>
<clus scale="   27.474">  1  9  2 -1</clus>
<clus scale="   80.235">  5  6 -1 -1</clus>
<clus scale="   95.894">  1  5  2 -1</clus>
<clus scale="  104.138">  7  8 -1 -1</clus>
<clus scale="  116.631">  2  5  1 -1</clus>
</clustering>
</event>
<event>
 9    2  0.5608219E-005  0.9797999E+02  0.7546771E-02  0.1291199E+00
          2   -1    0    0  502    0  0.00000000000E+00  0.00000000000E+00  0.50006761235E+03  0.50006761235E+03  0.00000000000E+00 0. -1.
         -1   -1    0    0    0  501 -0.00000000000E+00 -0.00000000000E+00 -0.11451563732E+03  0.11451563732E+03  0.00000000000E+00 0.  1.
         23    2    1    2    0    0  0.24727318609E+02 -0.15430230033E+02 -0.72875275251E+02  0.12095942753E+03  0.92037194015E+02 0.  0.
         24    2    1    2    0    0 -0.81398881380E+02  0.40557845042E+02  0.29557898351E+03  0.31937508884E+03  0.79767131062E+02 0.  0.
        -13    1    4    4    0    0 -0.28922442097E+02 -0.22192316507E+02  0.12480953286E+03  0.13002471327E+03  0.00000000000E+00 0.  1.
         14    1    4    4    0    0 -0.52476439283E+02  0.62750161550E+02  0.17076945065E+03  0.18935037557E+03  0.00000000000E+00 0. -1.
        -13    1    3    3    0    0 -0.20089762716E+02  0.31935106619E+01 -0.69380542597E+02  0.72301153292E+02  0.00000000000E+00 0.  1.
         13    1    3    3    0    0  0.44817081325E+02 -0.18623740694E+02 -0.34947326535E+01  0.48658274242E+02  0.00000000000E+00 0. -1.
         21    1    1    2  502  501  0.56671562771E+02 -0.25127615010E+02  0.16284826677E+03  0.17424873329E+03  0.00000000000E+00 0. -1.
<scales pt_clust_5="13000.00000" pt_clust_6="13000.00000" pt_clust_7="13000.00000" pt_clust_8="13000.00000" pt_clust_9="61.99244"></scales>
<clustering>
<clus scale="   61.992">  1  9  2 -1</clus>
<clus scale="   79.767">  5  6 -1 -1</clus>
<clus scale="   86.557">  1  5  2 -1</clus>
<clus scale="   92.037">  7  8 -1 -1</clus>
<clus scale="   61.992">  1  5  2 -1</clus>
</clustering>
</event>
<event>
 9    2  0.5608219E-005  0.9438908E+02  0.7546771E-02  0.1298900E+00
         -1   -1    0    0    0  501 -0.00000000000E+00  0.00000000000E+00  0.20516332722E+03  0.20516332722E+03  0.00000000000E+00 0.  1.
          2   -1    0    0  502    0  0.00000000000E+00 -0.00000000000E+00 -0.17038906957E+03  0.17038906957E+03  0.00000000000E+00 0. -1.
         24    2    1    2    0    0  0.32870086473E+02 -0.35230109771E+02  0.12818692598E+03  0.15899147549E+03  0.80776222159E+02 0.  0.
         23    2    1    2    0    0 -0.16097222409E+02  0.12167013106E+02 -0.13605459442E+03  0.16526209816E+03  0.91616328501E+02 0.  0.
        -13    1    3    3    0    0  0.40268631903E+02 -0.57677691991E+02  0.93125638707E+02  0.11670759810E+03  0.00000000000E+00 0.  1.
         14    1    3    3    0    0 -0.73985454298E+01  0.22447582220E+02  0.35061287277E+02  0.42283877395E+02  0.00000000000E+00 0. -1.
        -11    1    4    4    0    0  0.17914122666E+02 -0.22879456989E+02 -0.11105649929E+02  0.31108211189E+02  0.00000000000E+00 0.  1.
         11    1    4    4    0    0 -0.34011345075E+02  0.35046470095E+02 -0.12494894449E+03  0.13415388697E+03  0.00000000000E+00 0. -1.
         21    1    1    2  502  501 -0.16772864064E+02  0.23063096665E+02  0.42641926075E+02  0.51298823146E+02  0.00000000000E+00 0.  1.
<scales pt_clust_5="13000.00000" pt_clust_6="13000.00000" pt_clust_7="13000.00000" pt_clust_8="13000.00000" pt_clust_9="28.51728"></scales>
<clustering>
<clus scale="   28.517">  1  9  2 -1</clus>
<clus scale="   80.776">  5  6 -1 -1</clus>
<clus scale="   83.908">  1  5  2 -1</clus>
<clus scale="   91.616">  7  8 -1 -1</clus>
<clus scale="   94.389">  2  5  1 -1</clus>
</clustering>
</event>
<event>
 9    2  0.5608219E-005  0.1276306E+03  0.7546771E-02  0.1232863E+00
         -1   -1    0    0    0  501 -0.00000000000E+00  0.00000000000E+00  0.66061132445E+02  0.66061132445E+02  0.00000000000E+00 0.  1.
          2   -1    0    0  502    0  0.00000000000E+00 -0.00000000000E+00 -0.78375341204E+03  0.78375341204E+03  0.00000000000E+00 0. -1.
         23    2    1    2    0    0 -0.30435581505E+02  0.10610900450E+03 -0.16310509887E+03  0.21662274997E+03  0.90203642222E+02 0.  0.
         24    2    1    2    0    0  0.42451432908E+02 -0.75050481899E+02 -0.57939043030E+03  0.59166814221E+03  0.83325991155E+02 0.  0.
        -13    1    4    4    0    0  0.81748457155E+01 -0.82543177427E+02 -0.35573781143E+03  0.36528015922E+03  0.00000000000E+00 0.  1.
         14    1    4    4    0    0  0.34276587193E+02  0.74926955284E+01 -0.22365261887E+03  0.22638798299E+03  0.00000000000E+00 0. -1.
        -13    1    3    3    0    0  0.25292174161E+02  0.63409244988E+01 -0.16970429283E+02  0.31111040923E+02  0.00000000000E+00 0. -1.
         13    1    3    3    0    0 -0.55727755665E+02  0.99768079999E+02 -0.14613466959E+03  0.18551170905E+03  0.00000000000E+00 0.  1.
         21    1    1    2  502  501 -0.12015851403E+02 -0.31058522599E+02  0.24803249574E+02  0.41523652301E+02  0.00000000000E+00 0.  1.
<scales pt_clust_5="13000.00000" pt_clust_6="13000.00000" pt_clust_7="13000.00000" pt_clust_8="13000.00000" pt_clust_9="33.30184"></scales>
<clustering>
<clus scale="   33.302">  1  9  2 -1</clus>
<clus scale="   83.326">  5  6 -1 -1</clus>
<clus scale="   90.204">  7  8 -1 -1</clus>
<clus scale="  122.866">  2  5  1 -1</clus>
<clus scale="  122.866">  2  5  1 -1</clus>
</clustering>
</event>
<event>
 9    2  0.5608219E-005  0.1015000E+03  0.7546771E-02  0.1278024E+00
          2   -1    0    0  502    0  0.00000000000E+00  0.00000000000E+00  0.45670881428E+03  0.45670881428E+03  0.00000000000E+00 0. -1.
         -1   -1    0    0    0  501 -0.00000000000E+00 -0.00000000000E+00 -0.84980062284E+02  0.84980062284E+02  0.00000000000E+00 0.  1.
         23    2    1    2    0    0  0.21226617067E+02 -0.41316256675E+02  0.61807631176E+02  0.11552249949E+03  0.85835087687E+02 0.  0.
         24    2    1    2    0    0  0.10219413203E+02  0.57477348593E+02  0.35468876431E+03  0.36912099501E+03  0.83893428930E+02 0.  0.
        -11    1    4    4    0    0  0.13851447303E+02 -0.17672295459E+02  0.43345864599E+02  0.48816355834E+02  0.00000000000E+00 0.  1.
         12    1    4    4    0    0 -0.36320341005E+01  0.75149644052E+02  0.31134289971E+03  0.32030463917E+03  0.00000000000E+00 0. -1.
        -11    1    3    3    0    0  0.60444358639E+01 -0.19459245661E+02 -0.20569439174E+02  0.28953398325E+02  0.00000000000E+00 0.  1.
         11    1    3    3    0    0  0.15182181204E+02 -0.21857011013E+02  0.82377070350E+02  0.86569101162E+02  0.00000000000E+00 0. -1.
         21    1    1    2  502  501 -0.31446030270E+02 -0.16161091918E+02 -0.44767643492E+02  0.57045382071E+02  0.00000000000E+00 0.  1.
<scales pt_clust_5="13000.00000" pt_clust_6="13000.00000" pt_clust_7="13000.00000" pt_clust_8="13000.00000" pt_clust_9="35.35582"></scales>
<clustering>
<clus scale="   35.356">  2  9  1 -1</clus>
<clus scale="   83.893">  5  6 -1 -1</clus>
<clus scale="   85.835">  7  8 -1 -1</clus>
<clus scale="   99.863">  1  5  2 -1</clus>
<clus scale="   99.863">  1  5  2 -1</clus>
</clustering>
</event>
<event>
 9    2  0.5608219E-005  0.8732999E+02  0.7546771E-02  0.1310177E+00
         -1   -1    0    0    0  501 -0.00000000000E+00  0.00000000000E+00  0.14421661487E+03  0.14421661487E+03  0.00000000000E+00 0.  1.
          2   -1    0    0  502    0  0.00000000000E+00 -0.00000000000E+00 -0.42321475664E+03  0.42321475664E+03  0.00000000000E+00 0. -1.
         23    2    1    2    0    0  0.50292426968E+01  0.26721310059E+02  0.17172122814E+02  0.92994823522E+02  0.87257284548E+02 0.  0.
         24    2    1    2    0    0  0.42311711097E+01  0.15286030224E+01 -0.37782427783E+03  0.38753896039E+03  0.86110518909E+02 0.  0.
        -13    1    4    4    0    0  0.43912343168E+01  0.24984162998E+02 -0.31605490107E+02  0.40526514092E+02  0.00000000000E+00 0.  1.
         14    1    4    4    0    0 -0.16006320707E+00 -0.23455559975E+02 -0.34621878772E+03  0.34701244630E+03  0.00000000000E+00 0. -1.
        -11    1    3    3    0    0 -0.39651367391E+02  0.23105262808E+02  0.30376054639E+01  0.45992511917E+02  0.00000000000E+00 0.  1.
         11    1    3    3    0    0  0.44680610088E+02  0.36160472507E+01  0.14134517350E+02  0.47002311606E+02  0.00000000000E+00 0. -1.
         21    1    1    2  502  501 -0.92604138065E+01 -0.28249913082E+02  0.81654013241E+02  0.86897587604E+02  0.00000000000E+00 0.  1.
<scales pt_clust_5="13000.00000" pt_clust_6="13000.00000" pt_clust_7="13000.00000" pt_clust_8="13000.00000" pt_clust_9="29.72899"></scales>
<clustering>
<clus scale="   29.729">  1  9  2 -1</clus>
<clus scale="   86.111">  5  6 -1 -1</clus>
<clus scale="   86.184">  2  5  1 -1</clus>
<clus scale="   87.257">  7  8 -1 -1</clus>
<clus scale="   86.184">  2  5  1 -1</clus>
</clustering>
</event>
<event>
 9    2  0.5608219E-005  0.1267620E+03  0.7546771E-02  0.1234503E+00
          2   -1    0    0  502    0  0.00000000000E+00  0.00000000000E+00  0.27113688415E+03  0.27113688415E+03  0.00000000000E+00 0. -1.
         -1   -1    0    0    0  501 -0.00000000000E+00 -0.00000000000E+00 -0.87000861004E+02  0.87000861004E+02  0.00000000000E+00 0.  1.
         23    2    1    2    0    0  0.83200961854E+02 -0.47155240077E+02  0.34007606707E+02  0.13558024536E+03  0.89885865958E+02 0.  0.
         24    2    1    2    0    0 -0.85356206523E+02  0.73547301871E+01  0.83810895378E+02  0.14518347788E+03  0.81940234420E+02 0.  0.
        -13    1    4    4    0    0  0.11107103194E+02  0.17976955242E+02  0.19566016627E+02  0.28798744205E+02  0.00000000000E+00 0.  1.
         14    1    4    4    0    0 -0.96463309717E+02 -0.10622225054E+02  0.64244878751E+02  0.11638473367E+03  0.00000000000E+00 0. -1.
        -11    1    3    3    0    0  0.90735897870E+02 -0.10148579520E+02  0.12594972331E+02  0.92166317907E+02  0.00000000000E+00 0.  1.
         11    1    3    3    0    0 -0.75349360161E+01 -0.37006660557E+02  0.21412634377E+02  0.43413927458E+02  0.00000000000E+00 0. -1.
         21    1    1    2  502  501  0.21552446694E+01  0.39800509890E+02  0.66317521062E+02  0.77374021912E+02  0.00000000000E+00 0. -1.
<scales pt_clust_5="13000.00000" pt_clust_6="13000.00000" pt_clust_7="13000.00000" pt_clust_8="13000.00000" pt_clust_9="39.85882"></scales>
<clustering>
<clus scale="   39.859">  1  9  2 -1</clus>
<clus scale="   81.940">  5  6 -1 -1</clus>
<clus scale="   89.886">  7  8 -1 -1</clus>
<clus scale="  121.257">  1  5  2 -1</clus>
<clus scale="   39.859">  1  5  2 -1</clus>
</clustering>
</event>
<event>
 9    2  0.5608219E-005  0.1082564E+03  0.7546771E-02  0.1268865E+00
          2   -1    0    0  502    0  0.00000000000E+00  0.00000000000E+00  0.27586369352E+03  0.27586369352E+03  0.00000000000E+00 0. -1.
         -1   -1    0    0    0  501 -0.00000000000E+00 -0.00000000000E+00 -0.30198484316E+03  0.30198484316E+03  0.00000000000E+00 0.  1.
         23    2    1    2    0    0 -0.66412547845E+02  0.17905123469E+02 -0.25237328938E+03  0.27733199959E+03  0.92138704387E+02 0.  0.
         24    2    1    2    0    0  0.53733271596E+02  0.18440132937E+02  0.24027543274E+03  0.25954832435E+03  0.80035905164E+02 0.  0.
        -11    1    4    4    0    0 -0.55759415490E+01  0.29812367678E+02  0.13327571464E+03  0.13668315370E+03  0.00000000000E+00 0.  1.
         12    1    4    4    0    0  0.59309213145E+02 -0.11372234741E+02  0.10699971809E+03  0.12286517065E+03  0.00000000000E+00 0. -1.
        -11    1    3    3    0    0 -0.47191073103E+02  0.55344786712E+02 -0.15265132897E+03  0.16909308393E+03  0.00000000000E+00 0. -1.
         11    1    3    3    0    0 -0.19221474742E+02 -0.37439663243E+02 -0.99721960408E+02  0.10823891566E+03  0.00000000000E+00 0.  1.
         21    1    1    2  502  501  0.12679276249E+02 -0.36345256406E+02 -0.14023292997E+02  0.40968212749E+02  0.00000000000E+00 0. -1.
<scales pt_clust_5="13000.00000" pt_clust_6="13000.00000" pt_clust_7="13000.00000" pt_clust_8="13000.00000" pt_clust_9="38.49340"></scales>
<clustering>
<clus scale="   38.493">  2  9  1 -1</clus>
<clus scale="   80.036">  5  6 -1 -1</clus>
<clus scale="   92.139">  7  8 -1 -1</clus>
<clus scale="   98.161">  1  5  2 -1</clus>
<clus scale="   98.161">  1  5  2 -1</clus>
</clustering>
</event>
<event>
 9    2  0.5608219E-005  0.4073305E+03  0.7546771E-02  0.1041530E+00
          2   -1    0    0  502    0  0.00000000000E+00  0.00000000000E+00  0.42481911458E+03  0.42481911458E+03  0.00000000000E+00 0. -1.
         -1   -1    0    0    0  501 -0.00000000000E+00 -0.00000000000E+00 -0.60463236896E+03  0.60463236896E+03  0.00000000000E+00 0.  1.
         23    2    1    2    0    0 -0.21151878929E+02 -0.37358623229E+03 -0.19175865526E+03  0.43058824976E+03  0.92848177304E+02 0.  0.
         24    2    1    2    0    0  0.41670603360E+02  0.40480231043E+03  0.16145797400E+03  0.44475459967E+03  0.78336625236E+02 0.  0.
        -13    1    4    4    0    0  0.21746343683E+02  0.16950255375E+03  0.26987232461E+02  0.17300962374E+03  0.00000000000E+00 0.  1.
         14    1    4    4    0    0  0.19924259677E+02  0.23529975668E+03  0.13447074154E+03  0.27174497594E+03  0.00000000000E+00 0. -1.
        -11    1    3    3    0    0 -0.25963078390E+02 -0.21446370449E+03 -0.60726350942E+02  0.22440243243E+03  0.00000000000E+00 0. -1.
         11    1    3    3    0    0  0.48111994612E+01 -0.15912252780E+03 -0.13103230431E+03  0.20618581733E+03  0.00000000000E+00 0.  1.
         21    1    1    2  502  501 -0.20518724431E+02 -0.31216078133E+02 -0.14951257312E+03  0.15410863411E+03  0.00000000000E+00 0.  1.
<scales pt_clust_5="13000.00000" pt_clust_6="13000.00000" pt_clust_7="13000.00000" pt_clust_8="13000.00000" pt_clust_9="37.35588"></scales>
<clustering>
<clus scale="   37.356">  2  9  1 -1</clus>
<clus scale="   78.337">  5  6 -1 -1</clus>
<clus scale="   92.848">  7  8 -1 -1</clus>
<clus scale="  404.270">  1  5  2 -1</clus>
<clus scale="  404.270">  1  5  2 -1</clus>
</clustering>
</event>
<event>
 9    2  0.5608219E-005  0.1543697E+03  0.7546771E-02  0.1196056E+00
          4   -1    0    0  502    0  0.00000000000E+00  0.00000000000E+00  0.41475716940E+03  0.41475716940E+03  0.00000000000E+00 0. -1.
         -3   -1    0    0    0  501 -0.00000000000E+00 -0.00000000000E+00 -0.94150551034E+02  0.94150551034E+02  0.00000000000E+00 0.  1.
         24    2    1    2    0    0  0.11961070989E+03 -0.76622542502E+02  0.72257750275E+02  0.17863818932E+03  0.80701203636E+02 0.  0.
         23    2    1    2    0    0 -0.68285610964E+02  0.10562884249E+03  0.21184663178E+03  0.26092946712E+03  0.85934942767E+02 0.  0.
        -11    1    3    3    0    0  0.95903031890E+02 -0.51500696963E+02  0.88665774775E+02  0.14039705456E+03  0.00000000000E+00 0.  1.
         12    1    3    3    0    0  0.23707677999E+02 -0.25121845539E+02 -0.16408024500E+02  0.38241134755E+02  0.00000000000E+00 0. -1.
        -13    1    4    4    0    0 -0.81230812233E+01  0.76969702855E+02  0.15535555029E+03  0.17356746991E+03  0.00000000000E+00 0. -1.
         13    1    4    4    0    0 -0.60162529741E+02  0.28659139633E+02  0.56491081491E+02  0.87361997215E+02  0.00000000000E+00 0.  1.
         21    1    1    2  502  501 -0.51325098925E+02 -0.29006299986E+02  0.36502236316E+02  0.69340063993E+02  0.00000000000E+00 0. -1.
<scales pt_clust_5="13000.00000" pt_clust_6="13000.00000" pt_clust_7="13000.00000" pt_clust_8="13000.00000" pt_clust_9="58.95448"></scales>
<clustering>
<clus scale="   58.954">  2  9  1 -1</clus>
<clus scale="   80.701">  5  6 -1 -1</clus>
<clus scale="   85.935">  7  8 -1 -1</clus>
<clus scale="  151.519">  2  5  1 -1</clus>
<clus scale="  154.370">  1  5  2 -1</clus>
</clustering>
</event>
<event>
 9    2  0.5608219E-005  0.1310149E+03  0.7546771E-02  0.1228812E+00
         -1   -1    0    0    0  501 -0.00000000000E+00  0.00000000000E+00  0.68937179332E+02  0.68937179332E+02  0.00000000000E+00 0.  1.
          2   -1    0    0  502    0  0.00000000000E+00 -0.00000000000E+00 -0.89174695628E+03  0.89174695628E+03  0.00000000000E+00 0. -1.
         23    2    1    2    0    0  0.54647779354E+02 -0.52494383400E+02 -0.17397157810E+03  0.21015594099E+03  0.90318156934E+02 0.  0.
         24    2    1    2    0    0 -0.86070639231E+02  0.25171939933E+02 -0.68332902016E+03  0.69645852850E+03  0.10037006841E+03 0.  0.
        -13    1    4    4    0    0 -0.34464915602E+02  0.54265539233E+02 -0.21522060655E+03  0.22461631428E+03  0.00000000000E+00 0.  1.
         14    1    4    4    0    0 -0.51605723628E+02 -0.29093599300E+02 -0.46810841361E+03  0.47184221422E+03  0.00000000000E+00 0. -1.
        -11    1    3    3    0    0  0.45425841058E+02  0.15717423370E+02 -0.58383075836E+02  0.75624916379E+02  0.00000000000E+00 0.  1.
         11    1    3    3    0    0  0.92219382957E+01 -0.68211806769E+02 -0.11558850226E+03  0.13453102461E+03  0.00000000000E+00 0. -1.
         21    1    1    2  502  501  0.31422859876E+02  0.27322443467E+02  0.34490821307E+02  0.54069666119E+02  0.00000000000E+00 0.  1.
<scales pt_clust_5="13000.00000" pt_clust_6="13000.00000" pt_clust_7="13000.00000" pt_clust_8="13000.00000" pt_clust_9="41.64027"></scales>
<clustering>
<clus scale="   41.640">  1  9  2 -1</clus>
<clus scale="   90.318">  7  8 -1 -1</clus>
<clus scale="  100.370">  5  6 -1 -1</clus>
<clus scale="  123.483">  1  7  2 -1</clus>
<clus scale="  131.015">  2  5  1 -1</clus>
</clustering>
</event>
<event>
 9    2  0.5608219E-005  0.9445251E+02  0.7546771E-02  0.1302597E+00
          2   -1    0    0  502    0  0.00000000000E+00  0.00000000000E+00  0.85426037965E+02  0.85426037965E+02  0.00000000000E+00 0. -1.
         -1   -1    0    0    0  501 -0.00000000000E+00 -0.00000000000E+00 -0.16747111298E+03  0.16747111298E+03  0.00000000000E+00 0.  1.
         23    2    1    2    0    0  0.12288805209E+02 -0.39336063376E+02 -0.94506314502E+02  0.13782167305E+03  0.91460535018E+02 0.  0.
         24    2    1    2    0    0 -0.18975907238E+02  0.99188707729E+01  0.26230705872E+02  0.81913952620E+02  0.74588046297E+02 0.  0.
        -11    1    4    4    0    0 -0.20365372457E+02 -0.16544864902E+02 -0.16958956798E+02  0.31242393724E+02  0.00000000000E+00 0.  1.
         12    1    4    4    0    0  0.13894652184E+01  0.26463735675E+02  0.43189662670E+02  0.50671558896E+02  0.00000000000E+00 0. -1.
        -13    1    3    3    0    0 -0.29912170336E+02 -0.73752757235E+01 -0.75553624977E+02  0.81593399693E+02  0.00000000000E+00 0. -1.
         13    1    3    3    0    0  0.42200975546E+02 -0.31960787652E+02 -0.18952689525E+02  0.56228273356E+02  0.00000000000E+00 0.  1.
         21    1    1    2  502  501  0.66871020288E+01  0.29417192603E+02 -0.13769466385E+02  0.33161525277E+02  0.00000000000E+00 0.  1.
<scales pt_clust_5="13000.00000" pt_clust_6="13000.00000" pt_clust_7="13000.00000" pt_clust_8="13000.00000" pt_clust_9="30.16767"></scales>
<clustering>
<clus scale="   30.168">  2  9  1 -1</clus>
<clus scale="   74.588">  5  6 -1 -1</clus>
<clus scale="   78.228">  1  5  2 -1</clus>
<clus scale="   91.461">  7  8 -1 -1</clus>
<clus scale="   78.228">  1  5  2 -1</clus>
</clustering>
</event>
<event>
 9    2  0.5608219E-005  0.9863523E+02  0.7546771E-02  0.1289489E+00
         -1   -1    0    0    0  501 -0.00000000000E+00  0.00000000000E+00  0.27702412818E+02  0.27702412818E+02  0.00000000000E+00 0.  1.
          2   -1    0    0  502    0  0.00000000000E+00 -0.00000000000E+00 -0.52932577565E+03  0.52932577565E+03  0.00000000000E+00 0. -1.
         24    2    1    2    0    0 -0.16196530347E+02  0.51329457252E+02 -0.15780581543E+03  0.18486066652E+03  0.79835768089E+02 0.  0.
         23    2    1    2    0    0  0.18998669299E+02 -0.20671571432E+02 -0.31739754510E+03  0.33159937597E+03  0.91807849412E+02 0.  0.
        -13    1    3    3    0    0 -0.43374832340E+02  0.68917249899E+01 -0.65258075148E+02  0.78660589407E+02  0.00000000000E+00 0.  1.
         14    1    3    3    0    0  0.27178301993E+02  0.44437732262E+02 -0.92547740281E+02  0.10620007711E+03  0.00000000000E+00 0. -1.
        -13    1    4    4    0    0 -0.36331836525E+02 -0.33890508048E+01 -0.15267628974E+03  0.15697623215E+03  0.00000000000E+00 0.  1.
         13    1    4    4    0    0  0.55330505824E+02 -0.17282520627E+02 -0.16472125535E+03  0.17462314383E+03  0.00000000000E+00 0. -1.
         21    1    1    2  502  501 -0.28021389520E+01 -0.30657885819E+02 -0.26420002302E+02  0.40568145968E+02  0.00000000000E+00 0.  1.
<scales pt_clust_5="13000.00000" pt_clust_6="13000.00000" pt_clust_7="13000.00000" pt_clust_8="13000.00000" pt_clust_9="30.78568"></scales>
<clustering>
<clus scale="   30.786">  1  9  2 -1</clus>
<clus scale="   79.836">  5  6 -1 -1</clus>
<clus scale="   87.601">  1  5  2 -1</clus>
<clus scale="   91.808">  7  8 -1 -1</clus>
<clus scale="   98.635">  2  5  1 -1</clus>
</clustering>
</event>
<event>
 9    2  0.5608219E-005  0.1098208E+03  0.7546771E-02  0.1264074E+00
         -1   -1    0    0    0  501 -0.00000000000E+00  0.00000000000E+00  0.42279030917E+02  0.42279030917E+02  0.00000000000E+00 0.  1.
          2   -1    0    0  502    0  0.00000000000E+00 -0.00000000000E+00 -0.11198674362E+04  0.11198674362E+04  0.00000000000E+00 0. -1.
         23    2    1    2    0    0 -0.28547764929E+02 -0.73646590394E+02 -0.13993473954E+03  0.18360387133E+03  0.88824856193E+02 0.  0.
         24    2    1    2    0    0  0.60039795126E+02  0.25982089125E+02 -0.90850355082E+03  0.91440694389E+03  0.80507833292E+02 0.  0.
        -13    1    4    4    0    0 -0.52817928367E+01 -0.19709611824E+02 -0.10541616451E+03  0.10737287308E+03  0.00000000000E+00 0.  1.
         14    1    4    4    0    0  0.65321587963E+02  0.45691700950E+02 -0.80308738631E+03  0.80703407081E+03  0.00000000000E+00 0. -1.
        -13    1    3    3    0    0 -0.35748371083E+02  0.60812857845E+01 -0.27161701682E+02  0.45306579104E+02  0.00000000000E+00 0.  1.
         13    1    3    3    0    0  0.72006061540E+01 -0.79727876179E+02 -0.11277303786E+03  0.13829729223E+03  0.00000000000E+00 0. -1.
         21    1    1    2  502  501 -0.31492030198E+02  0.47664501269E+02 -0.29150114955E+02  0.64135651935E+02  0.00000000000E+00 0. -1.
<scales pt_clust_5="13000.00000" pt_clust_6="13000.00000" pt_clust_7="13000.00000" pt_clust_8="13000.00000" pt_clust_9="57.12839"></scales>
<clustering>
<clus scale="   57.128">  1  9  2 -1</clus>
<clus scale="   80.508">  5  6 -1 -1</clus>
<clus scale="   88.825">  7  8 -1 -1</clus>
<clus scale="  103.210">  2  5  1 -1</clus>
<clus scale="  103.210">  2  5  1 -1</clus>
</clustering>
</event>
<event>
 9    2  0.5608219E-005  0.9813355E+02  0.7546771E-02  0.1292171E+00
          2   -1    0    0  502    0  0.00000000000E+00  0.00000000000E+00  0.18463363459E+03  0.18463363459E+03  0.00000000000E+00 0. -1.
         -1   -1    0    0    0  501 -0.00000000000E+00 -0.00000000000E+00 -0.19226115666E+03  0.19226115666E+03  0.00000000000E+00 0.  1.
         24    2    1    2    0    0  0.45277055090E+02 -0.13618225470E+02 -0.15002532061E+03  0.17624513662E+03  0.79493921622E+02 0.  0.
         23    2    1    2    0    0 -0.27428797316E+02 -0.27352783144E+01  0.14648818102E+03  0.17609912265E+03  0.93767228541E+02 0.  0.
        -13    1    3    3    0    0  0.21955997066E+02 -0.19548964151E+02 -0.57222731124E+01  0.29949494422E+02  0.00000000000E+00 0.  1.
         14    1    3    3    0    0  0.23321058024E+02  0.59307386818E+01 -0.14430304749E+03  0.14629564219E+03  0.00000000000E+00 0. -1.
        -11    1    4    4    0    0  0.22787097830E+02 -0.31406668696E+01  0.19491278208E+01  0.23084945639E+02  0.00000000000E+00 0.  1.
         11    1    4    4    0    0 -0.50215895146E+02  0.40538855520E+00  0.14453905320E+03  0.15301417701E+03  0.00000000000E+00 0. -1.
         21    1    1    2  502  501 -0.17848257774E+02  0.16353503784E+02 -0.40903824840E+01  0.24550531979E+02  0.00000000000E+00 0. -1.
<scales pt_clust_5="13000.00000" pt_clust_6="13000.00000" pt_clust_7="13000.00000" pt_clust_8="13000.00000" pt_clust_9="24.20738"></scales>
<clustering>
<clus scale="   24.207">  2  9  1 -1</clus>
<clus scale="   79.494">  5  6 -1 -1</clus>
<clus scale="   84.600">  2  5  1 -1</clus>
<clus scale="   93.767">  7  8 -1 -1</clus>
<clus scale="   98.134">  1  5  2 -1</clus>
</clustering>
</event>
<event>
 9    2  0.5608219E-005  0.9824707E+02  0.7546771E-02  0.1291168E+00
          2   -1    0    0  502    0  0.00000000000E+00  0.00000000000E+00  0.98462090472E+02  0.98462090472E+02  0.00000000000E+00 0. -1.
         -1   -1    0    0    0  501 -0.00000000000E+00 -0.00000000000E+00 -0.30600107464E+03  0.30600107464E+03  0.00000000000E+00 0.  1.
         23    2    1    2    0    0  0.18631851947E+02  0.26444713728E+00 -0.15468458100E+03  0.18090682776E+03  0.91938810578E+02 0.  0.
         24    2    1    2    0    0 -0.67964197510E+01  0.38395403931E+02  0.58251523572E+02  0.10532271906E+03  0.78608121631E+02 0.  0.
        -11    1    4    4    0    0  0.19508032922E+02 -0.15822185034E+02  0.28909846112E+02  0.38297311785E+02  0.00000000000E+00 0.  1.
         12    1    4    4    0    0 -0.26304452673E+02  0.54217588965E+02  0.29341677460E+02  0.67025407271E+02  0.00000000000E+00 0. -1.
        -11    1    3    3    0    0 -0.23591479912E+02  0.18871382739E+02 -0.14863662337E+02  0.33669206540E+02  0.00000000000E+00 0.  1.
         11    1    3    3    0    0  0.42223331859E+02 -0.18606935602E+02 -0.13982091866E+03  0.14723762122E+03  0.00000000000E+00 0. -1.
         21    1    1    2  502  501 -0.11835432196E+02 -0.38659851069E+02 -0.11110592674E+03  0.11823361830E+03  0.00000000000E+00 0.  1.
<scales pt_clust_5="13000.00000" pt_clust_6="13000.00000" pt_clust_7="13000.00000" pt_clust_8="13000.00000" pt_clust_9="40.43095"></scales>
<clustering>
<clus scale="   40.431">  2  9  1 -1</clus>
<clus scale="   78.608">  5  6 -1 -1</clus>
<clus scale="   85.901">  1  5  2 -1</clus>
<clus scale="   91.939">  7  8 -1 -1</clus>
<clus scale="   85.901">  1  5  2 -1</clus>
</clustering>
</event>
<event>
 9    2  0.5608219E-005  0.1581091E+03  0.7546771E-02  0.1191793E+00
         -1   -1    0    0    0  501 -0.00000000000E+00  0.00000000000E+00  0.49027931843E+03  0.49027931843E+03  0.00000000000E+00 0.  1.
          2   -1    0    0  502    0  0.00000000000E+00 -0.00000000000E+00 -0.30372738458E+03  0.30372738458E+03  0.00000000000E+00 0. -1.
         23    2    1    2    0    0 -0.29422513303E+02  0.11553307542E+03  0.40236533490E+03  0.42949477792E+03  0.91402000667E+02 0.  0.
         24    2    1    2    0    0 -0.48164687062E+01 -0.12966205078E+03 -0.26239821265E+03  0.30499654469E+03  0.85642422249E+02 0.  0.
        -13    1    4    4    0    0  0.17020600439E+02 -0.79189385966E+02 -0.77533767462E+02  0.11212557597E+03  0.00000000000E+00 0.  1.
         14    1    4    4    0    0 -0.21837069145E+02 -0.50472664811E+02 -0.18486444518E+03  0.19287096872E+03  0.00000000000E+00 0. -1.
        -11    1    3    3    0    0 -0.17318485659E+02  0.26694886727E+02  0.21950775457E+02  0.38657256318E+02  0.00000000000E+00 0. -1.
         11    1    3    3    0    0 -0.12104027644E+02  0.88838188694E+02  0.38041455944E+03  0.39083752160E+03  0.00000000000E+00 0.  1.
         21    1    1    2  502  501  0.34238982009E+02  0.14128975356E+02  0.46584811590E+02  0.59515380403E+02  0.00000000000E+00 0.  1.
<scales pt_clust_5="13000.00000" pt_clust_6="13000.00000" pt_clust_7="13000.00000" pt_clust_8="13000.00000" pt_clust_9="37.03965"></scales>
<clustering>
<clus scale="   37.040">  1  9  2 -1</clus>
<clus scale="   85.642">  5  6 -1 -1</clus>
<clus scale="   91.402">  7  8 -1 -1</clus>
<clus scale="  154.851">  2  5  1 -1</clus>
<clus scale="  154.851">  2  5  1 -1</clus>
</clustering>
</event>
<event>
 9    2  0.5608219E-005  0.1751164E+03  0.7546771E-02  0.1173206E+00
          2   -1    0    0  502    0  0.00000000000E+00  0.00000000000E+00  0.10302749861E+04  0.10302749861E+04  0.00000000000E+00 0. -1.
         -1   -1    0    0    0  501 -0.00000000000E+00 -0.00000000000E+00 -0.13425191289E+03  0.13425191289E+03  0.00000000000E+00 0.  1.
         23    2    1    2    0    0  0.59687174258E+01 -0.54357540047E+02 -0.38514043988E+02  0.11501524066E+03  0.93567121639E+02 0.  0.
         24    2    1    2    0    0  0.87040273054E+01  0.15865691402E+03  0.92609953596E+03  0.94384784418E+03  0.89110190194E+02 0.  0.
        -11    1    4    4    0    0  0.85737753286E+01  0.40527949073E+02  0.85701107143E+02  0.95187730538E+02  0.00000000000E+00 0.  1.
         12    1    4    4    0    0  0.13025197679E+00  0.11812896494E+03  0.84039842882E+03  0.84866011364E+03  0.00000000000E+00 0. -1.
        -11    1    3    3    0    0 -0.27361221678E+02 -0.12273267694E+02  0.19658537226E+02  0.35857044461E+02  0.00000000000E+00 0. -1.
         11    1    3    3    0    0  0.33329939104E+02 -0.42084272353E+02 -0.58172581214E+02  0.79158196197E+02  0.00000000000E+00 0.  1.
         21    1    1    2  502  501 -0.14672744731E+02 -0.10429937397E+03  0.84375812607E+01  0.10566381417E+03  0.00000000000E+00 0.  1.
<scales pt_clust_5="13000.00000" pt_clust_6="13000.00000" pt_clust_7="13000.00000" pt_clust_8="13000.00000" pt_clust_9="105.32639"></scales>
<clustering>
<clus scale="   89.110">  5  6 -1 -1</clus>
<clus scale="   93.567">  7  8 -1 -1</clus>
<clus scale="  105.326">  2  9  1 -1</clus>
<clus scale="  172.776">  1  5  2 -1</clus>
<clus scale="  172.776">  1  5  2 -1</clus>
</clustering>
</event>
<event>
 9    2  0.5608219E-005  0.1015152E+03  0.7546771E-02  0.1277443E+00
         -1   -1    0    0    0  501 -0.00000000000E+00  0.00000000000E+00  0.22769931672E+03  0.22769931672E+03  0.00000000000E+00 0.  1.
          2   -1    0    0  502    0  0.00000000000E+00 -0.00000000000E+00 -0.57393763229E+03  0.57393763229E+03  0.00000000000E+00 0. -1.
         23    2    1    2    0    0 -0.60155927703E+02  0.50092260849E+02  0.17733156535E+03  0.21031451386E+03  0.81594978015E+02 0.  0.
         24    2    1    2    0    0  0.28217118303E+02 -0.53067629831E+02 -0.54402592869E+03  0.55327785266E+03  0.80868980762E+02 0.  0.
        -11    1    4    4    0    0 -0.26240234525E+02 -0.73781306962E+01 -0.10232030536E+03  0.10588876999E+03  0.00000000000E+00 0.  1.
         12    1    4    4    0    0  0.54457352828E+02 -0.45689499134E+02 -0.44170562333E+03  0.44738908267E+03  0.00000000000E+00 0. -1.
        -13    1    3    3    0    0 -0.22394317171E+02  0.53449593297E+02  0.15687529773E+03  0.16723702791E+03  0.00000000000E+00 0.  1.
         13    1    3    3    0    0 -0.37761610532E+02 -0.33573324478E+01  0.20456267612E+02  0.43077485950E+02  0.00000000000E+00 0. -1.
         21    1    1    2  502  501  0.31938809400E+02  0.29753689814E+01  0.20456047775E+02  0.38044582492E+02  0.00000000000E+00 0.  1.
<scales pt_clust_5="13000.00000" pt_clust_6="13000.00000" pt_clust_7="13000.00000" pt_clust_8="13000.00000" pt_clust_9="32.07710"></scales>
<clustering>
<clus scale="   32.077">  1  9  2 -1</clus>
<clus scale="   80.869">  5  6 -1 -1</clus>
<clus scale="   81.595">  7  8 -1 -1</clus>
<clus scale="  100.933">  2  5  1 -1</clus>
<clus scale="  100.933">  2  5  1 -1</clus>
</clustering>
</event>
<event>
 9    2  0.5608219E-005  0.9513133E+02  0.7546771E-02  0.1292263E+00
         -1   -1    0    0    0  501 -0.00000000000E+00  0.00000000000E+00  0.26336747413E+03  0.26336747413E+03  0.00000000000E+00 0.  1.
          2   -1    0    0  502    0  0.00000000000E+00 -0.00000000000E+00 -0.87296409134E+03  0.87296409134E+03  0.00000000000E+00 0. -1.
         23    2    1    2    0    0 -0.35804005567E+02 -0.72693215114E+01  0.18061230667E+03  0.20546895460E+03  0.90895083102E+02 0.  0.
         24    2    1    2    0    0 -0.17283541556E+02 -0.78293898867E+01 -0.84660694705E+03  0.85195129506E+03  0.93368443331E+02 0.  0.
        -11    1    4    4    0    0 -0.37236914042E+02 -0.29526127624E+02 -0.24175627299E+03  0.24638278249E+03  0.00000000000E+00 0.  1.
         12    1    4    4    0    0  0.19953372486E+02  0.21696737738E+02 -0.60485067406E+03  0.60556851257E+03  0.00000000000E+00 0. -1.
        -13    1    3    3    0    0 -0.37385468699E+02  0.26623059510E+02  0.40189886453E+02  0.61005635318E+02  0.00000000000E+00 0. -1.
         13    1    3    3    0    0  0.15814631319E+01 -0.33892381021E+02  0.14042242022E+03  0.14446331928E+03  0.00000000000E+00 0.  1.
         21    1    1    2  502  501  0.53087547123E+02  0.15098711398E+02  0.56398023164E+02  0.78911315806E+02  0.00000000000E+00 0.  1.
<scales pt_clust_5="13000.00000" pt_clust_6="13000.00000" pt_clust_7="13000.00000" pt_clust_8="13000.00000" pt_clust_9="55.19292"></scales>
<clustering>
<clus scale="   55.193">  1  9  2 -1</clus>
<clus scale="   90.895">  7  8 -1 -1</clus>
<clus scale="   92.705">  1  7  2 -1</clus>
<clus scale="   93.368">  5  6 -1 -1</clus>
<clus scale="   95.131">  2  5  1 -1</clus>
</clustering>
</event>
<event>
 9    2  0.5608219E-005  0.3110922E+03  0.7546771E-02  0.1080224E+00
         -1   -1    0    0    0  501 -0.00000000000E+00  0.00000000000E+00  0.67424349284E+03  0.67424349284E+03  0.00000000000E+00 0.  1.
          2   -1    0    0  502    0  0.00000000000E+00 -0.00000000000E+00 -0.25714550133E+03  0.25714550133E+03  0.00000000000E+00 0. -1.
         23    2    1    2    0    0  0.26949965814E+03 -0.15554392756E+03  0.29596586695E+03  0.43824328741E+03  0.87392250375E+02 0.  0.
         24    2    1    2    0    0 -0.27353093970E+03  0.11046068130E+03 -0.56798841133E+02  0.30954783401E+03  0.74652636267E+02 0.  0.
        -11    1    4    4    0    0 -0.44178451709E+02  0.33489372373E+02  0.14563827026E+02  0.57318223236E+02  0.00000000000E+00 0.  1.
         12    1    4    4    0    0 -0.22935248799E+03  0.76971308926E+02 -0.71362668159E+02  0.25222961077E+03  0.00000000000E+00 0. -1.
        -13    1    3    3    0    0  0.38471553046E+02 -0.31894226114E+02  0.11105660000E+02  0.51192164803E+02  0.00000000000E+00 0. -1.
         13    1    3    3    0    0  0.23102810510E+03 -0.12364970145E+03  0.28486020695E+03  0.38705112261E+03  0.00000000000E+00 0.  1.
         21    1    1    2  502  501  0.40312815542E+01  0.45083246263E+02  0.17793096569E+03  0.18359787274E+03  0.00000000000E+00 0.  1.
<scales pt_clust_5="13000.00000" pt_clust_6="13000.00000" pt_clust_7="13000.00000" pt_clust_8="13000.00000" pt_clust_9="45.26312"></scales>
<clustering>
<clus scale="   45.263">  1  9  2 -1</clus>
<clus scale="   74.653">  5  6 -1 -1</clus>
<clus scale="   87.392">  7  8 -1 -1</clus>
<clus scale="  307.756">  2  5  1 -1</clus>
<clus scale="  307.756">  2  5  1 -1</clus>
</clustering>
</event>
<event>
 9    2  0.5608219E-005  0.1871550E+03  0.7546771E-02  0.1162274E+00
         -1   -1    0    0    0  501 -0.00000000000E+00  0.00000000000E+00  0.57632595740E+02  0.57632595740E+02  0.00000000000E+00 0.  1.
          2   -1    0    0  502    0  0.00000000000E+00 -0.00000000000E+00 -0.84120702569E+03  0.84120702569E+03  0.00000000000E+00 0. -1.
         23    2    1    2    0    0 -0.16106009832E+03  0.23105274401E+01 -0.19135018308E+03  0.26646643397E+03  0.91890010677E+02 0.  0.
         24    2    1    2    0    0  0.16205000088E+03 -0.27131174617E+02 -0.57124497167E+03  0.59985896870E+03  0.80707256486E+02 0.  0.
        -11    1    4    4    0    0  0.98190694966E+02  0.20168106691E+02 -0.26070617951E+03  0.27931322407E+03  0.00000000000E+00 0.  1.
         12    1    4    4    0    0  0.63859305912E+02 -0.47299281307E+02 -0.31053879216E+03  0.32054574463E+03  0.00000000000E+00 0. -1.
        -11    1    3    3    0    0 -0.52629071161E+02 -0.37057124011E+02 -0.10175249457E+03  0.12040190913E+03  0.00000000000E+00 0. -1.
         11    1    3    3    0    0 -0.10843102716E+03  0.39367651451E+02 -0.89597688514E+02  0.14606452485E+03  0.00000000000E+00 0.  1.
         21    1    1    2  502  501 -0.98990256000E+00  0.24820647177E+02 -0.20979275193E+02  0.32514218751E+02  0.00000000000E+00 0.  1.
<scales pt_clust_5="13000.00000" pt_clust_6="13000.00000" pt_clust_7="13000.00000" pt_clust_8="13000.00000" pt_clust_9="24.84038"></scales>
<clustering>
<clus scale="   24.840">  1  9  2 -1</clus>
<clus scale="   80.707">  5  6 -1 -1</clus>
<clus scale="   91.890">  7  8 -1 -1</clus>
<clus scale="  181.926">  2  5  1 -1</clus>
<clus scale="  181.926">  2  5  1 -1</clus>
</clustering>
</event>
<event>
 9    2  0.5608219E-005  0.1443403E+03  0.7546771E-02  0.1210770E+00
          4   -1    0    0  502    0  0.00000000000E+00  0.00000000000E+00  0.53390597666E+03  0.53390597666E+03  0.00000000000E+00 0. -1.
         -3   -1    0    0    0  501 -0.00000000000E+00 -0.00000000000E+00 -0.11826786304E+03  0.11826786304E+03  0.00000000000E+00 0.  1.
         24    2    1    2    0    0  0.10058796720E+03  0.87917060377E+02 -0.34134358679E+02  0.15893739031E+03  0.79048029360E+02 0.  0.
         23    2    1    2    0    0 -0.82461156867E+02 -0.67413640304E+02  0.44267430540E+03  0.46496357440E+03  0.94266343725E+02 0.  0.
        -11    1    3    3    0    0  0.36871215237E+02  0.75191703380E+02  0.35582278704E+01  0.83820878997E+02  0.00000000000E+00 0.  1.
         12    1    3    3    0    0  0.63716751958E+02  0.12725356998E+02 -0.37692586549E+02  0.75116511311E+02  0.00000000000E+00 0. -1.
        -13    1    4    4    0    0 -0.77177209410E+02 -0.30113587499E+02  0.39797613555E+03  0.40650726226E+03  0.00000000000E+00 0. -1.
         13    1    4    4    0    0 -0.52839474577E+01 -0.37300052805E+02  0.44698169851E+02  0.58456312131E+02  0.00000000000E+00 0.  1.
         21    1    1    2  502  501 -0.18126810328E+02 -0.20503420073E+02  0.70981668946E+01  0.28272874998E+02  0.00000000000E+00 0.  1.
<scales pt_clust_5="13000.00000" pt_clust_6="13000.00000" pt_clust_7="13000.00000" pt_clust_8="13000.00000" pt_clust_9="27.36734"></scales>
<clustering>
<clus scale="   27.367">  2  9  1 -1</clus>
<clus scale="   79.048">  5  6 -1 -1</clus>
<clus scale="   94.266">  7  8 -1 -1</clus>
<clus scale="  134.895">  2  5  1 -1</clus>
<clus scale="  144.340">  1  5  2 -1</clus>
</clustering>
</event>
<event>
 9    2  0.5608219E-005  0.9936572E+02  0.7546771E-02  0.1289823E+00
         -1   -1    0    0    0  501 -0.00000000000E+00  0.00000000000E+00  0.69065506061E+02  0.69065506061E+02  0.00000000000E+00 0.  1.
          2   -1    0    0  502    0  0.00000000000E+00 -0.00000000000E+00 -0.36312420342E+03  0.36312420342E+03  0.00000000000E+00 0. -1.
         24    2    1    2    0    0  0.23856290664E+01 -0.13988711167E+01 -0.15292845797E+02  0.77126404466E+02  0.75544444315E+02 0.  0.
         23    2    1    2    0    0  0.46478385861E+02 -0.23820071598E+02 -0.28099845113E+03  0.30002993761E+03  0.91269917087E+02 0.  0.
        -11    1    3    3    0    0 -0.25448390756E+02 -0.15563477698E+02 -0.30262604636E+02  0.42493148501E+02  0.00000000000E+00 0.  1.
         12    1    3    3    0    0  0.27834019823E+02  0.14164606582E+02  0.14969758839E+02  0.34633255966E+02  0.00000000000E+00 0. -1.
        -13    1    4    4    0    0 -0.87939225747E+01  0.26727703253E+02 -0.52443207388E+02  0.59514646908E+02  0.00000000000E+00 0.  1.
         13    1    4    4    0    0  0.55272308436E+02 -0.50547774852E+02 -0.22855524374E+03  0.24051529071E+03  0.00000000000E+00 0. -1.
         21    1    1    2  502  501 -0.48864014927E+02  0.25218942715E+02  0.22325995679E+01  0.55033367399E+02  0.00000000000E+00 0.  1.
<scales pt_clust_5="13000.00000" pt_clust_6="13000.00000" pt_clust_7="13000.00000" pt_clust_8="13000.00000" pt_clust_9="54.98806"></scales>
<clustering>
<clus scale="   54.988">  1  9  2 -1</clus>
<clus scale="   75.544">  5  6 -1 -1</clus>
<clus scale="   85.149">  1  5  2 -1</clus>
<clus scale="   91.270">  7  8 -1 -1</clus>
<clus scale="   99.366">  2  5  1 -1</clus>
</clustering>
</event>
<event>
 9    2  0.5608219E-005  0.1212159E+03  0.7546771E-02  0.1244805E+00
         -1   -1    0    0    0  501 -0.00000000000E+00  0.00000000000E+00  0.89191241814E+02  0.89191241814E+02  0.00000000000E+00 0.  1.
          2   -1    0    0  502    0  0.00000000000E+00 -0.00000000000E+00 -0.40923426089E+03  0.40923426089E+03  0.00000000000E+00 0. -1.
         24    2    1    2    0    0 -0.54632227547E+02 -0.89577871514E+02 -0.71798791578E+02  0.14993366232E+03  0.79474280568E+02 0.  0.
         23    2    1    2    0    0  0.37567546295E+02  0.61493450630E+02 -0.27972796477E+03  0.30298180024E+03  0.91419210217E+02 0.  0.
        -11    1    3    3    0    0  0.16317248417E+02 -0.33499460786E+02 -0.52037129888E+01  0.37623730513E+02  0.00000000000E+00 0.  1.
         12    1    3    3    0    0 -0.70949475964E+02 -0.56078410728E+02 -0.66595078589E+02  0.11230993180E+03  0.00000000000E+00 0. -1.
        -11    1    4    4    0    0  0.44232578133E+02 -0.55384930773E+01 -0.72786867633E+02  0.85352937698E+02  0.00000000000E+00 0.  1.
         11    1    4    4    0    0 -0.66650318378E+01  0.67031943708E+02 -0.20694109714E+03  0.21762886254E+03  0.00000000000E+00 0. -1.
         21    1    1    2  502  501  0.17064681252E+02  0.28084420884E+02  0.31483737266E+02  0.45510040154E+02  0.00000000000E+00 0.  1.
<scales pt_clust_5="13000.00000" pt_clust_6="13000.00000" pt_clust_7="13000.00000" pt_clust_8="13000.00000" pt_clust_9="32.86241"></scales>
<clustering>
<clus scale="   32.862">  1  9  2 -1</clus>
<clus scale="   79.474">  5  6 -1 -1</clus>
<clus scale="   91.419">  7  8 -1 -1</clus>
<clus scale="  112.481">  1  5  2 -1</clus>
<clus scale="  121.216">  2  5  1 -1</clus>
</clustering>
</event>
<event>
 9    2  0.5608219E-005  0.9610752E+02  0.7546771E-02  0.1293825E+00
          4   -1    0    0  502    0  0.00000000000E+00  0.00000000000E+00  0.54173615480E+03  0.54173615480E+03  0.00000000000E+00 0. -1.
         -3   -1    0    0    0  501 -0.00000000000E+00 -0.00000000000E+00 -0.79100961951E+02  0.79100961951E+02  0.00000000000E+00 0.  1.
         23    2    1    2    0    0 -0.28464573163E+02  0.58150386931E+01  0.23315438168E+02  0.99046970679E+02  0.91774975584E+02 0.  0.
         24    2    1    2    0    0 -0.22322039723E+02 -0.24735162523E+02  0.45637468253E+03  0.46497358424E+03  0.82537757799E+02 0.  0.
        -11    1    4    4    0    0 -0.37308735328E+02 -0.37645553254E+02  0.17366534367E+03  0.18157307346E+03  0.00000000000E+00 0.  1.
         12    1    4    4    0    0  0.14986695605E+02  0.12910390731E+02  0.28270933886E+03  0.28340051078E+03  0.00000000000E+00 0. -1.
        -11    1    3    3    0    0 -0.53963838264E+02  0.23478641480E+02  0.31794075882E+02  0.66889503714E+02  0.00000000000E+00 0.  1.
         11    1    3    3    0    0  0.25499265101E+02 -0.17663602787E+02 -0.84786377139E+01  0.32157466965E+02  0.00000000000E+00 0. -1.
         21    1    1    2  502  501  0.50786612885E+02  0.18920123830E+02 -0.17054927853E+02  0.56816561830E+02  0.00000000000E+00 0. -1.
<scales pt_clust_5="13000.00000" pt_clust_6="13000.00000" pt_clust_7="13000.00000" pt_clust_8="13000.00000" pt_clust_9="54.19641"></scales>
<clustering>
<clus scale="   54.196">  2  9  1 -1</clus>
<clus scale="   82.538">  5  6 -1 -1</clus>
<clus scale="   87.330">  1  5  2 -1</clus>
<clus scale="   91.775">  7  8 -1 -1</clus>
<clus scale="   87.330">  1  5  2 -1</clus>
</clustering>
</event>
<event>
 9    2  0.5608219E-005  0.1068743E+03  0.7546771E-02  0.1272273E+00
          2   -1    0    0  502    0  0.00000000000E+00  0.00000000000E+00  0.80905685351E+03  0.80905685351E+03  0.00000000000E+00 0. -1.
         -1   -1    0    0    0  501 -0.00000000000E+00 -0.00000000000E+00 -0.30187934260E+02  0.30187934260E+02  0.00000000000E+00 0.  1.
         23    2    1    2    0    0 -0.27336366726E+02  0.13148004438E+02  0.21659766674E+03  0.23707641836E+03  0.91490611201E+02 0.  0.
         24    2    1    2    0    0  0.64247083197E+02  0.42742581211E+02  0.49587549063E+03  0.50785741697E+03  0.77923281607E+02 0.  0.
        -13    1    4    4    0    0  0.26955925343E+02 -0.80412014947E+01  0.48500600689E+02  0.56067736710E+02  0.00000000000E+00 0.  1.
         14    1    4    4    0    0  0.37291157854E+02  0.50783782705E+02  0.44737488994E+03  0.45178968026E+03  0.00000000000E+00 0. -1.
        -11    1    3    3    0    0  0.19819557814E+02 -0.25217078634E+02  0.46897392697E+02  0.56816206918E+02  0.00000000000E+00 0. -1.
         11    1    3    3    0    0 -0.47155924539E+02  0.38365083072E+02  0.16970027404E+03  0.18026021144E+03  0.00000000000E+00 0.  1.
         21    1    1    2  502  501 -0.36910716471E+02 -0.55890585649E+02  0.66395761877E+02  0.94310952438E+02  0.00000000000E+00 0.  1.
<scales pt_clust_5="13000.00000" pt_clust_6="13000.00000" pt_clust_7="13000.00000" pt_clust_8="13000.00000" pt_clust_9="66.97879"></scales>
<clustering>
<clus scale="   66.979">  2  9  1 -1</clus>
<clus scale="   77.923">  5  6 -1 -1</clus>
<clus scale="   91.491">  7  8 -1 -1</clus>
<clus scale="   95.518">  1  5  2 -1</clus>
<clus scale="   95.518">  1  5  2 -1</clus>
</clustering>
</event>
<event>
 9    2  0.5608219E-005  0.1443417E+03  0.7546771E-02  0.1209201E+00
         -1   -1    0    0    0  501 -0.00000000000E+00  0.00000000000E+00  0.73034969345E+03  0.73034969345E+03  0.00000000000E+00 0.  1.
          2   -1    0    0  502    0  0.00000000000E+00 -0.00000000000E+00 -0.10554504893E+03  0.10554504893E+03  0.00000000000E+00 0. -1.
         23    2    1    2    0    0  0.72816049250E+02 -0.64897783573E+01  0.10480069724E+03  0.15610292875E+03  0.89669637949E+02 0.  0.
         24    2    1    2    0    0 -0.13343245746E+03 -0.60949901102E+02  0.17061044368E+02  0.16873993475E+03  0.81627049415E+02 0.  0.
        -11    1    4    4    0    0 -0.67834281253E+02 -0.11094821439E+02 -0.28705734577E+02  0.74488952023E+02  0.00000000000E+00 0.  1.
         12    1    4    4    0    0 -0.65598176210E+02 -0.49855079663E+02  0.45766778945E+02  0.94250982729E+02  0.00000000000E+00 0. -1.
        -11    1    3    3    0    0 -0.49455799712E+00  0.30519936086E+02  0.13719442169E+02  0.33465417668E+02  0.00000000000E+00 0. -1.
         11    1    3    3    0    0  0.73310607247E+02 -0.37009714443E+02  0.91081255073E+02  0.12263751108E+03  0.00000000000E+00 0.  1.
         21    1    1    2  502  501  0.60616408213E+02  0.67439679460E+02  0.50294290292E+03  0.51105187888E+03  0.00000000000E+00 0.  1.
<scales pt_clust_5="13000.00000" pt_clust_6="13000.00000" pt_clust_7="13000.00000" pt_clust_8="13000.00000" pt_clust_9="90.67778"></scales>
<clustering>
<clus scale="   81.627">  5  6 -1 -1</clus>
<clus scale="   89.670">  7  8 -1 -1</clus>
<clus scale="   90.678">  1  9  2 -1</clus>
<clus scale="  139.488">  2  5  1 -1</clus>
<clus scale="  139.488">  2  5  1 -1</clus>
</clustering>
</event>
<event>
 9    2  0.5608219E-005  0.9785332E+02  0.7546771E-02  0.1290826E+00
         -1   -1    0    0    0  501 -0.00000000000E+00  0.00000000000E+00  0.82039862570E+02  0.82039862570E+02  0.00000000000E+00 0.  1.
          2   -1    0    0  502    0  0.00000000000E+00 -0.00000000000E+00 -0.13991748635E+03  0.13991748635E+03  0.00000000000E+00 0. -1.
         23    2    1    2    0    0 -0.68915745764E+01  0.47919470669E+02 -0.14110008441E+02  0.10338152631E+03  0.90248978804E+02 0.  0.
         24    2    1    2    0    0  0.18169202897E+02 -0.27519746153E+02 -0.41790209408E+02  0.95182580097E+02  0.78904027714E+02 0.  0.
        -13    1    4    4    0    0 -0.16242071233E+02 -0.43091695212E+02 -0.32265405847E+02  0.56229489493E+02  0.00000000000E+00 0.  1.
         14    1    4    4    0    0  0.34411274131E+02  0.15571949059E+02 -0.95248035604E+01  0.38953090604E+02  0.00000000000E+00 0. -1.
        -11    1    3    3    0    0 -0.22804275022E+02  0.52154153958E+01 -0.43333156114E+02  0.49244268051E+02  0.00000000000E+00 0. -1.
         11    1    3    3    0    0  0.15912700445E+02  0.42704055273E+02  0.29223147673E+02  0.54137258262E+02  0.00000000000E+00 0.  1.
         21    1    1    2  502  501 -0.11277628321E+02 -0.20399724516E+02 -0.19774059299E+01  0.23393242509E+02  0.00000000000E+00 0.  1.
<scales pt_clust_5="13000.00000" pt_clust_6="13000.00000" pt_clust_7="13000.00000" pt_clust_8="13000.00000" pt_clust_9="23.30952"></scales>
<clustering>
<clus scale="   23.310">  1  9  2 -1</clus>
<clus scale="   78.904">  5  6 -1 -1</clus>
<clus scale="   87.500">  2  5  1 -1</clus>
<clus scale="   90.249">  7  8 -1 -1</clus>
<clus scale="   87.500">  2  5  1 -1</clus>
</clustering>
</event>
<event>
 9    2  0.5608219E-005  0.1044690E+03  0.7546771E-02  0.1276392E+00
         -1   -1    0    0    0  501 -0.00000000000E+00  0.00000000000E+00  0.28912441787E+02  0.28912441787E+02  0.00000000000E+00 0.  1.
          2   -1    0    0  502    0  0.00000000000E+00 -0.00000000000E+00 -0.56991066717E+03  0.56991066717E+03  0.00000000000E+00 0. -1.
         24    2    1    2    0    0  0.23618837719E+02  0.21847441579E+02 -0.10954744699E+03  0.14024833515E+03  0.81448094953E+02 0.  0.
         23    2    1    2    0    0 -0.49032602926E+02 -0.25846581639E+02 -0.41299046638E+03  0.42691035051E+03  0.92839001060E+02 0.  0.
        -13    1    3    3    0    0 -0.11433587061E+02  0.31667748455E+02 -0.95446250324E+02  0.10121047330E+03  0.00000000000E+00 0.  1.
         14    1    3    3    0    0  0.35052424779E+02 -0.98203068760E+01 -0.14101196662E+02  0.39037861844E+02  0.00000000000E+00 0. -1.
        -11    1    4    4    0    0 -0.60147880774E+02  0.10350136990E+02 -0.33125105476E+03  0.33682659363E+03  0.00000000000E+00 0.  1.
         11    1    4    4    0    0  0.11115277848E+02 -0.36196718629E+02 -0.81739411623E+02  0.90083756880E+02  0.00000000000E+00 0. -1.
         21    1    1    2  502  501  0.25413765208E+02  0.39991400599E+01 -0.18460312012E+02  0.31664423298E+02  0.00000000000E+00 0. -1.
<scales pt_clust_5="13000.00000" pt_clust_6="13000.00000" pt_clust_7="13000.00000" pt_clust_8="13000.00000" pt_clust_9="25.72650"></scales>
<clustering>
<clus scale="   25.726">  1  9  2 -1</clus>
<clus scale="   81.448">  5  6 -1 -1</clus>
<clus scale="   92.839">  7  8 -1 -1</clus>
<clus scale="   94.491">  1  5  2 -1</clus>
<clus scale="  104.469">  2  5  1 -1</clus>
</clustering>
</event>
<event>
 9    2  0.5608219E-005  0.9195715E+02  0.7546771E-02  0.1301270E+00
         -1   -1    0    0    0  501 -0.00000000000E+00  0.00000000000E+00  0.38516741763E+02  0.38516741763E+02  0.00000000000E+00 0.  1.
          2   -1    0    0  502    0  0.00000000000E+00 -0.00000000000E+00 -0.46580181748E+03  0.46580181748E+03  0.00000000000E+00 0. -1.
         23    2    1    2    0    0  0.58785695542E+00 -0.49053570982E+02 -0.52947899321E+02  0.11248493485E+03  0.86271560339E+02 0.  0.
         24    2    1    2    0    0  0.30490522048E+01  0.28697770284E+02 -0.34757921061E+03  0.35801684656E+03  0.80820146206E+02 0.  0.
        -13    1    4    4    0    0  0.53920224089E+01 -0.28278344229E+02 -0.11862112573E+03  0.12206436879E+03  0.00000000000E+00 0.  1.
         14    1    4    4    0    0 -0.23429702041E+01  0.56976114513E+02 -0.22895808488E+03  0.23595247777E+03  0.00000000000E+00 0. -1.
        -11    1    3    3    0    0  0.31490938060E+02  0.48434687863E+01 -0.36025675372E+02  0.48093530290E+02  0.00000000000E+00 0. -1.
         11    1    3    3    0    0 -0.30903081104E+02 -0.53897039768E+02 -0.16922223949E+02  0.64391404557E+02  0.00000000000E+00 0.  1.
         21    1    1    2  502  501 -0.36369091602E+01  0.20355800697E+02 -0.26757965787E+02  0.33816777838E+02  0.00000000000E+00 0.  1.
<scales pt_clust_5="13000.00000" pt_clust_6="13000.00000" pt_clust_7="13000.00000" pt_clust_8="13000.00000" pt_clust_9="20.67815"></scales>
<clustering>
<clus scale="   20.678">  1  9  2 -1</clus>
<clus scale="   80.820">  5  6 -1 -1</clus>
<clus scale="   86.272">  7  8 -1 -1</clus>
<clus scale="   86.863">  2  5  1 -1</clus>
<clus scale="   86.863">  2  5  1 -1</clus>
</clustering>
</event>
<event>
 9    2  0.5608219E-005  0.1035273E+03  0.7546771E-02  0.1278450E+00
         -1   -1    0    0    0  501 -0.00000000000E+00  0.00000000000E+00  0.10045173220E+03  0.10045173220E+03  0.00000000000E+00 0.  1.
          2   -1    0    0  502    0  0.00000000000E+00 -0.00000000000E+00 -0.60484442427E+03  0.60484442427E+03  0.00000000000E+00 0. -1.
         23    2    1    2    0    0  0.71570648291E+02  0.94922555857E+01  0.34348562592E+02  0.12042233218E+03  0.90051394897E+02 0.  0.
         24    2    1    2    0    0 -0.47072295328E+02 -0.17129088866E+02 -0.54932864837E+03  0.55711443982E+03  0.78136601329E+02 0.  0.
        -11    1    4    4    0    0 -0.48063068036E+02 -0.20009508259E+02 -0.17045056075E+03  0.17822410777E+03  0.00000000000E+00 0.  1.
         12    1    4    4    0    0  0.99077270803E+00  0.28804193931E+01 -0.37887808762E+03  0.37889033205E+03  0.00000000000E+00 0. -1.
        -11    1    3    3    0    0 -0.20602157366E+02 -0.59908705249E+01  0.21305394706E+01  0.21561043950E+02  0.00000000000E+00 0. -1.
         11    1    3    3    0    0  0.92172805657E+02  0.15483126111E+02  0.32218023122E+02  0.98861288231E+02  0.00000000000E+00 0.  1.
         21    1    1    2  502  501 -0.24498352963E+02  0.76368332805E+01  0.10587393710E+02  0.27759384468E+02  0.00000000000E+00 0. -1.
<scales pt_clust_5="13000.00000" pt_clust_6="13000.00000" pt_clust_7="13000.00000" pt_clust_8="13000.00000" pt_clust_9="25.66107"></scales>
<clustering>
<clus scale="   25.661">  1  9  2 -1</clus>
<clus scale="   78.137">  5  6 -1 -1</clus>
<clus scale="   90.051">  7  8 -1 -1</clus>
<clus scale="   93.349">  2  5  1 -1</clus>
<clus scale="   93.349">  2  5  1 -1</clus>
</clustering>
</event>
<event>
 9    2  0.5608219E-005  0.1394852E+03  0.7546771E-02  0.1216171E+00
          2   -1    0    0  502    0  0.00000000000E+00  0.00000000000E+00  0.40119138837E+03  0.40119138837E+03  0.00000000000E+00 0. -1.
         -1   -1    0    0    0  501 -0.00000000000E+00 -0.00000000000E+00 -0.14905690405E+03  0.14905690405E+03  0.00000000000E+00 0.  1.
         24    2    1    2    0    0  0.40195914610E+02 -0.88839671115E+02 -0.87144874624E+02  0.15346051293E+03  0.80297578663E+02 0.  0.
         23    2    1    2    0    0 -0.13007221499E+02  0.10711490176E+03  0.33552758963E+03  0.36381377669E+03  0.90215911664E+02 0.  0.
        -11    1    3    3    0    0  0.29610009767E+02 -0.95392512232E+02 -0.45065875896E+02  0.10957836118E+03  0.00000000000E+00 0.  1.
         12    1    3    3    0    0  0.10585904843E+02  0.65528411164E+01 -0.42078998728E+02  0.43882151748E+02  0.00000000000E+00 0. -1.
        -13    1    4    4    0    0 -0.39092285749E+02  0.10695925139E+03  0.28596047255E+03  0.30780168961E+03  0.00000000000E+00 0. -1.
         13    1    4    4    0    0  0.26085064249E+02  0.15565036528E+00  0.49567117077E+02  0.56012087082E+02  0.00000000000E+00 0.  1.
         21    1    1    2  502  501 -0.27188693111E+02 -0.18275230642E+02  0.37517693070E+01  0.32974002806E+02  0.00000000000E+00 0.  1.
<scales pt_clust_5="13000.00000" pt_clust_6="13000.00000" pt_clust_7="13000.00000" pt_clust_8="13000.00000" pt_clust_9="32.75987"></scales>
<clustering>
<clus scale="   32.760">  2  9  1 -1</clus>
<clus scale="   80.298">  5  6 -1 -1</clus>
<clus scale="   90.216">  7  8 -1 -1</clus>
<clus scale="  133.285">  2  5  1 -1</clus>
<clus scale="  139.485">  1  5  2 -1</clus>
</clustering>
</event>
<event>
 9    2  0.5608219E-005  0.1297538E+03  0.7546771E-02  0.1230582E+00
          2   -1    0    0  502    0  0.00000000000E+00  0.00000000000E+00  0.48692579083E+03  0.48692579083E+03  0.00000000000E+00 0. -1.
         -1   -1    0    0    0  501 -0.00000000000E+00 -0.00000000000E+00 -0.45635774004E+02  0.45635774004E+02  0.00000000000E+00 0.  1.
         24    2    1    2    0    0 -0.67797964278E+02  0.42540506141E+02  0.13520384616E+03  0.17589178519E+03  0.79066942887E+02 0.  0.
         23    2    1    2    0    0  0.96317445185E+02 -0.40140793293E+02  0.29577328358E+03  0.32624815817E+03  0.89820331204E+02 0.  0.
        -13    1    3    3    0    0 -0.28265946897E+02  0.31994735313E+02  0.95537556251E+01  0.43748155256E+02  0.00000000000E+00 0.  1.
         14    1    3    3    0    0 -0.39532017381E+02  0.10545770828E+02  0.12565009053E+03  0.13214362993E+03  0.00000000000E+00 0. -1.
        -13    1    4    4    0    0  0.22432595667E+02  0.28626017028E+02  0.68062809274E+02  0.77170047334E+02  0.00000000000E+00 0.  1.
         13    1    4    4    0    0  0.73884849518E+02 -0.68766810321E+02  0.22771047431E+03  0.24907811084E+03  0.00000000000E+00 0. -1.
         21    1    1    2  502  501 -0.28519480907E+02 -0.23997128479E+01  0.10312887084E+02  0.30421621471E+02  0.00000000000E+00 0. -1.
<scales pt_clust_5="13000.00000" pt_clust_6="13000.00000" pt_clust_7="13000.00000" pt_clust_8="13000.00000" pt_clust_9="28.62026"></scales>
<clustering>
<clus scale="   28.620">  2  9  1 -1</clus>
<clus scale="   79.067">  5  6 -1 -1</clus>
<clus scale="   89.820">  7  8 -1 -1</clus>
<clus scale="  122.556">  2  5  1 -1</clus>
<clus scale="  129.754">  1  5  2 -1</clus>
</clustering>
</event>
<event>
 9    2  0.5608219E-005  0.9543118E+02  0.7546771E-02  0.1298915E+00
          2   -1    0    0  502    0  0.00000000000E+00  0.00000000000E+00  0.20844109404E+03  0.20844109404E+03  0.00000000000E+00 0. -1.
         -1   -1    0    0    0  501 -0.00000000000E+00 -0.00000000000E+00 -0.10683520663E+03  0.10683520663E+03  0.00000000000E+00 0.  1.
         23    2    1    2    0    0 -0.10206429150E+02 -0.31369995787E+01 -0.15852809385E+02  0.92665676400E+02  0.90673061351E+02 0.  0.
         24    2    1    2    0    0  0.16803240114E+02 -0.30837468768E+02  0.15224884334E+03  0.17353785472E+03  0.75514093804E+02 0.  0.
        -11    1    4    4    0    0  0.26485131064E+02  0.51852026395E+01  0.12357960579E+03  0.12649216364E+03  0.00000000000E+00 0.  1.
         12    1    4    4    0    0 -0.96818909496E+01 -0.36022671408E+02  0.28669237552E+02  0.47045691084E+02  0.00000000000E+00 0. -1.
        -11    1    3    3    0    0  0.32044145541E+02 -0.14333005277E+02  0.16003807015E+02  0.38579581941E+02  0.00000000000E+00 0. -1.
         11    1    3    3    0    0 -0.42250574691E+02  0.11196005698E+02 -0.31856616400E+02  0.54086094459E+02  0.00000000000E+00 0.  1.
         21    1    1    2  502  501 -0.65968109641E+01  0.33974468347E+02 -0.34790146553E+02  0.49072769552E+02  0.00000000000E+00 0.  1.
<scales pt_clust_5="13000.00000" pt_clust_6="13000.00000" pt_clust_7="13000.00000" pt_clust_8="13000.00000" pt_clust_9="34.60899"></scales>
<clustering>
<clus scale="   34.609">  2  9  1 -1</clus>
<clus scale="   75.514">  5  6 -1 -1</clus>
<clus scale="   81.166">  1  5  2 -1</clus>
<clus scale="   90.673">  7  8 -1 -1</clus>
<clus scale="   81.166">  1  5  2 -1</clus>
</clustering>
</event>
<event>
 9    2  0.5608219E-005  0.1067125E+03  0.7546771E-02  0.1276069E+00
          2   -1    0    0  502    0  0.00000000000E+00  0.00000000000E+00  0.22588152167E+03  0.22588152167E+03  0.00000000000E+00 0. -1.
         -1   -1    0    0    0  501 -0.00000000000E+00 -0.00000000000E+00 -0.16152406109E+03  0.16152406109E+03  0.00000000000E+00 0.  1.
         24    2    1    2    0    0 -0.21446689191E+02 -0.22127755098E+01 -0.10141530853E+03  0.13145282199E+03  0.80807937436E+02 0.  0.
         23    2    1    2    0    0  0.37685212886E+02 -0.13312042037E+02  0.19283721196E+03  0.22077899670E+03  0.99798744165E+02 0.  0.
        -11    1    3    3    0    0 -0.25198222746E+02 -0.37954862435E+02 -0.71060700171E+02  0.84410574698E+02  0.00000000000E+00 0.  1.
         12    1    3    3    0    0  0.37515335546E+01  0.35742086925E+02 -0.30354608354E+02  0.47042247291E+02  0.00000000000E+00 0. -1.
        -13    1    4    4    0    0 -0.24314407173E+02 -0.33155682922E+02  0.58541560147E+02  0.71537430556E+02  0.00000000000E+00 0.  1.
         13    1    4    4    0    0  0.61999620060E+02  0.19843640884E+02  0.13429565181E+03  0.14924156615E+03  0.00000000000E+00 0. -1.
         21    1    1    2  502  501 -0.16238523695E+02  0.15524817547E+02 -0.27064442850E+02  0.35173764064E+02  0.00000000000E+00 0.  1.
<scales pt_clust_5="13000.00000" pt_clust_6="13000.00000" pt_clust_7="13000.00000" pt_clust_8="13000.00000" pt_clust_9="22.46574"></scales>
<clustering>
<clus scale="   22.466">  2  9  1 -1</clus>
<clus scale="   80.808">  5  6 -1 -1</clus>
<clus scale="   89.206">  2  5  1 -1</clus>
<clus scale="   99.799">  7  8 -1 -1</clus>
<clus scale="  106.713">  1  5  2 -1</clus>
</clustering>
</event>
<event>
 9    2  0.5608219E-005  0.9464313E+02  0.7546771E-02  0.1298673E+00
         -1   -1    0    0    0  501 -0.00000000000E+00  0.00000000000E+00  0.54213448451E+02  0.54213448451E+02  0.00000000000E+00 0.  1.
          2   -1    0    0  502    0  0.00000000000E+00 -0.00000000000E+00 -0.76153308741E+03  0.76153308741E+03  0.00000000000E+00 0. -1.
         23    2    1    2    0    0 -0.26196996249E+02  0.39697927272E+02 -0.25181945694E+02  0.10423397773E+03  0.89265803540E+02 0.  0.
         24    2    1    2    0    0  0.22043238189E+02  0.26817421066E+02 -0.59889543783E+03  0.60487851873E+03  0.77441581482E+02 0.  0.
        -13    1    4    4    0    0  0.87226365798E+01 -0.22611355928E+02 -0.83472527603E+02  0.86919621894E+02  0.00000000000E+00 0.  1.
         14    1    4    4    0    0  0.13320601610E+02  0.49428776993E+02 -0.51542291023E+03  0.51795889683E+03  0.00000000000E+00 0. -1.
        -11    1    3    3    0    0  0.32864300985E+02  0.20020974769E+02 -0.14206263066E+02  0.41020965618E+02  0.00000000000E+00 0. -1.
         11    1    3    3    0    0 -0.59061297233E+02  0.19676952503E+02 -0.10975682628E+02  0.63213012108E+02  0.00000000000E+00 0.  1.
         21    1    1    2  502  501  0.41537580592E+01 -0.66515348337E+02 -0.83242255438E+02  0.10663403941E+03  0.00000000000E+00 0.  1.
<scales pt_clust_5="13000.00000" pt_clust_6="13000.00000" pt_clust_7="13000.00000" pt_clust_8="13000.00000" pt_clust_9="66.64492"></scales>
<clustering>
<clus scale="   66.645">  1  9  2 -1</clus>
<clus scale="   77.442">  5  6 -1 -1</clus>
<clus scale="   83.583">  2  5  1 -1</clus>
<clus scale="   89.266">  7  8 -1 -1</clus>
<clus scale="   83.583">  2  5  1 -1</clus>
</clustering>
</event>
<event>
 9    2  0.5608219E-005  0.1007719E+03  0.7546771E-02  0.1284753E+00
         -1   -1    0    0    0  501 -0.00000000000E+00  0.00000000000E+00  0.26519293404E+03  0.26519293404E+03  0.00000000000E+00 0.  1.
          2   -1    0    0  502    0  0.00000000000E+00 -0.00000000000E+00 -0.21177233396E+03  0.21177233396E+03  0.00000000000E+00 0. -1.
         23    2    1    2    0    0  0.45531229261E+00  0.80883185527E+01  0.18164161112E+03  0.20424346598E+03  0.93038112075E+02 0.  0.
         24    2    1    2    0    0  0.38700514690E+02 -0.12675612935E+02 -0.18358116567E+03  0.20475880637E+03  0.81029151529E+02 0.  0.
        -13    1    4    4    0    0  0.54697531362E+02  0.16010183891E+01 -0.68382053085E+02  0.87581324385E+02  0.00000000000E+00 0.  1.
         14    1    4    4    0    0 -0.15997016672E+02 -0.14276631324E+02 -0.11519911258E+03  0.11717748198E+03  0.00000000000E+00 0. -1.
        -11    1    3    3    0    0  0.31982149612E+02  0.15530049250E+02  0.16307702739E+03  0.16690763070E+03  0.00000000000E+00 0.  1.
         11    1    3    3    0    0 -0.31526837320E+02 -0.74417306971E+01  0.18564583737E+02  0.37335835285E+02  0.00000000000E+00 0. -1.
         21    1    1    2  502  501 -0.39155826982E+02  0.45872943818E+01  0.55360154633E+02  0.67962995648E+02  0.00000000000E+00 0. -1.
<scales pt_clust_5="13000.00000" pt_clust_6="13000.00000" pt_clust_7="13000.00000" pt_clust_8="13000.00000" pt_clust_9="39.42362"></scales>
<clustering>
<clus scale="   39.424">  1  9  2 -1</clus>
<clus scale="   81.029">  5  6 -1 -1</clus>
<clus scale="   89.803">  2  5  1 -1</clus>
<clus scale="   93.038">  7  8 -1 -1</clus>
<clus scale="   89.803">  2  5  1 -1</clus>
</clustering>
</event>
<event>
 9    2  0.5608219E-005  0.3400659E+03  0.7546771E-02  0.1113338E+00
         -1   -1    0    0    0  501 -0.00000000000E+00  0.00000000000E+00  0.10449309836E+04  0.10449309836E+04  0.00000000000E+00 0.  1.
          2   -1    0    0  502    0  0.00000000000E+00 -0.00000000000E+00 -0.35289351742E+03  0.35289351742E+03  0.00000000000E+00 0. -1.
         24    2    1    2    0    0  0.46471675379E+02 -0.34648789606E+03 -0.16122314843E+03  0.40036178728E+03  0.10992351160E+03 0.  0.
         23    2    1    2    0    0 -0.28044496362E+02  0.28017655838E+02  0.14767968888E+02  0.10033798900E+03  0.90984264114E+02 0.  0.
        -11    1    3    3    0    0 -0.34867606505E+02 -0.10281746881E+03 -0.61646359017E+02  0.12484973150E+03  0.00000000000E+00 0.  1.
         12    1    3    3    0    0  0.81339281884E+02 -0.24367042725E+03 -0.99576789410E+02  0.27551205578E+03  0.00000000000E+00 0. -1.
        -13    1    4    4    0    0  0.22440417603E+02  0.41178719965E+02  0.40033808045E+01  0.47066828850E+02  0.00000000000E+00 0.  1.
         13    1    4    4    0    0 -0.50484913965E+02 -0.13161064127E+02  0.10764588084E+02  0.53271160149E+02  0.00000000000E+00 0. -1.
         21    1    1    2  502  501 -0.18427179017E+02  0.31847024022E+03  0.83849264576E+03  0.89712472479E+03  0.00000000000E+00 0.  1.
<scales pt_clust_5="13000.00000" pt_clust_6="13000.00000" pt_clust_7="13000.00000" pt_clust_8="13000.00000" pt_clust_9="321.80994"></scales>
<clustering>
<clus scale="   90.984">  7  8 -1 -1</clus>
<clus scale="   99.245">  2  7  1 -1</clus>
<clus scale="  109.924">  5  6 -1 -1</clus>
<clus scale="  321.810">  1  9  2 -1</clus>
<clus scale="   99.245">  2  5  1 -1</clus>
</clustering>
</event>
<event>
 9    2  0.5608219E-005  0.1007619E+03  0.7546771E-02  0.1280841E+00
          2   -1    0    0  502    0  0.00000000000E+00  0.00000000000E+00  0.28744924872E+03  0.28744924872E+03  0.00000000000E+00 0. -1.
         -1   -1    0    0    0  501 -0.00000000000E+00 -0.00000000000E+00 -0.55853191017E+02  0.55853191017E+02  0.00000000000E+00 0.  1.
         24    2    1    2    0    0 -0.49353699903E+02  0.24362852954E+01  0.50127652216E+02  0.11147719044E+03  0.86444544603E+02 0.  0.
         23    2    1    2    0    0  0.38999548055E+02  0.16458359226E+02  0.18456905667E+03  0.21005761070E+03  0.90920959069E+02 0.  0.
        -11    1    3    3    0    0 -0.24086907176E+02 -0.17845373445E+02 -0.18751009032E+02  0.35358687623E+02  0.00000000000E+00 0.  1.
         12    1    3    3    0    0 -0.25266792728E+02  0.20281658740E+02  0.68878661247E+02  0.76118502818E+02  0.00000000000E+00 0. -1.
        -11    1    4    4    0    0  0.74413075959E+01 -0.36624475729E+02  0.54633532490E+02  0.66193263657E+02  0.00000000000E+00 0. -1.
         11    1    4    4    0    0  0.31558240459E+02  0.53082834955E+02  0.12993552418E+03  0.14386434705E+03  0.00000000000E+00 0.  1.
         21    1    1    2  502  501  0.10354151848E+02 -0.18894644521E+02 -0.31006511824E+01  0.21767638591E+02  0.00000000000E+00 0. -1.
<scales pt_clust_5="13000.00000" pt_clust_6="13000.00000" pt_clust_7="13000.00000" pt_clust_8="13000.00000" pt_clust_9="21.54567"></scales>
<clustering>
<clus scale="   21.546">  2  9  1 -1</clus>
<clus scale="   86.445">  5  6 -1 -1</clus>
<clus scale="   90.921">  7  8 -1 -1</clus>
<clus scale="   96.742">  2  5  1 -1</clus>
<clus scale="  100.762">  1  5  2 -1</clus>
</clustering>
</event>
<event>
 9    2  0.5608219E-005  0.9969358E+02  0.7546771E-02  0.1282187E+00
         -1   -1    0    0    0  501 -0.00000000000E+00  0.00000000000E+00  0.10610310651E+03  0.10610310651E+03  0.00000000000E+00 0.  1.
          2   -1    0    0  502    0  0.00000000000E+00 -0.00000000000E+00 -0.25004441594E+03  0.25004441594E+03  0.00000000000E+00 0. -1.
         24    2    1    2    0    0 -0.48937627971E+01  0.29382340978E+02  0.39420664509E+02  0.99232986393E+02  0.86057689502E+02 0.  0.
         23    2    1    2    0    0 -0.42834961980E+01 -0.48185649760E+02 -0.20392690173E+03  0.22757679997E+03  0.88683783489E+02 0.  0.
        -13    1    3    3    0    0 -0.10003603899E+02 -0.27733623415E+02  0.28207129264E+02  0.40802795248E+02  0.00000000000E+00 0.  1.
         14    1    3    3    0    0  0.51098411017E+01  0.57115964393E+02  0.11213535245E+02  0.58430191145E+02  0.00000000000E+00 0. -1.
        -13    1    4    4    0    0 -0.25017006008E+02 -0.67742322540E+02 -0.15390644999E+03  0.17000608284E+03  0.00000000000E+00 0.  1.
         13    1    4    4    0    0  0.20733509810E+02  0.19556672780E+02 -0.50020451733E+02  0.57570717130E+02  0.00000000000E+00 0. -1.
         21    1    1    2  502  501  0.91772589951E+01  0.18803308782E+02  0.20564927793E+02  0.29337736091E+02  0.00000000000E+00 0. -1.
<scales pt_clust_5="13000.00000" pt_clust_6="13000.00000" pt_clust_7="13000.00000" pt_clust_8="13000.00000" pt_clust_9="20.92335"></scales>
<clustering>
<clus scale="   20.923">  1  9  2 -1</clus>
<clus scale="   86.058">  5  6 -1 -1</clus>
<clus scale="   88.684">  7  8 -1 -1</clus>
<clus scale="   97.365">  1  5  2 -1</clus>
<clus scale="   99.694">  2  5  1 -1</clus>
</clustering>
</event>
<event>
 9    2  0.5608219E-005  0.9271574E+02  0.7546771E-02  0.1302171E+00
          2   -1    0    0  502    0  0.00000000000E+00  0.00000000000E+00  0.42771662188E+03  0.42771662188E+03  0.00000000000E+00 0. -1.
         -1   -1    0    0    0  501 -0.00000000000E+00 -0.00000000000E+00 -0.33604535017E+02  0.33604535017E+02  0.00000000000E+00 0.  1.
         23    2    1    2    0    0 -0.26140418916E+02 -0.26483731886E+02  0.10605435068E+03  0.14446211879E+03  0.90758299399E+02 0.  0.
         24    2    1    2    0    0  0.10995480646E+02  0.76808282929E+01  0.27931682545E+03  0.29118177465E+03  0.81172909210E+02 0.  0.
        -11    1    4    4    0    0 -0.21470307546E+00  0.31888143429E+02  0.43907451821E+02  0.54265680814E+02  0.00000000000E+00 0.  1.
         12    1    4    4    0    0  0.11210183721E+02 -0.24207315136E+02  0.23540937363E+03  0.23691609383E+03  0.00000000000E+00 0. -1.
        -11    1    3    3    0    0  0.12210944556E+02 -0.33267905789E+02  0.98644157165E+02  0.10481665166E+03  0.00000000000E+00 0. -1.
         11    1    3    3    0    0 -0.38351363472E+02  0.67841739027E+01  0.74101935180E+01  0.39645467126E+02  0.00000000000E+00 0.  1.
         21    1    1    2  502  501  0.15144938270E+02  0.18802903593E+02  0.87409107345E+01  0.25677263468E+02  0.00000000000E+00 0.  1.
<scales pt_clust_5="13000.00000" pt_clust_6="13000.00000" pt_clust_7="13000.00000" pt_clust_8="13000.00000" pt_clust_9="24.14370"></scales>
<clustering>
<clus scale="   24.144">  2  9  1 -1</clus>
<clus scale="   81.173">  5  6 -1 -1</clus>
<clus scale="   83.356">  1  5  2 -1</clus>
<clus scale="   90.758">  7  8 -1 -1</clus>
<clus scale="   83.356">  1  5  2 -1</clus>
</clustering>
</event>
<event>
 9    2  0.5608219E-005  0.9445558E+02  0.7546771E-02  0.1298885E+00
          2   -1    0    0  502    0  0.00000000000E+00  0.00000000000E+00  0.77363429454E+03  0.77363429454E+03  0.00000000000E+00 0. -1.
         -1   -1    0    0    0  501 -0.00000000000E+00 -0.00000000000E+00 -0.16543724651E+02  0.16543724651E+02  0.00000000000E+00 0.  1.
         23    2    1    2    0    0  0.15003792697E+02  0.85995843425E+01  0.25678978059E+03  0.27283364708E+03  0.90543585749E+02 0.  0.
         24    2    1    2    0    0 -0.28923475226E+02  0.23772738974E+02  0.42823752270E+03  0.43712692219E+03  0.79314940049E+02 0.  0.
        -13    1    4    4    0    0 -0.15651681916E+02 -0.29095134146E+02  0.14896015489E+03  0.15257991258E+03  0.00000000000E+00 0.  1.
         14    1    4    4    0    0 -0.13271793310E+02  0.52867873121E+02  0.27927736781E+03  0.28454700961E+03  0.00000000000E+00 0. -1.
        -11    1    3    3    0    0 -0.30750230543E+02 -0.18923403159E+02  0.72941518580E+02  0.81388801431E+02  0.00000000000E+00 0.  1.
         11    1    3    3    0    0  0.45754023240E+02  0.27522987502E+02  0.18384826201E+03  0.19144484565E+03  0.00000000000E+00 0. -1.
         21    1    1    2  502  501  0.13919682529E+02 -0.32372323317E+02  0.72063266602E+02  0.80217449922E+02  0.00000000000E+00 0. -1.
<scales pt_clust_5="13000.00000" pt_clust_6="13000.00000" pt_clust_7="13000.00000" pt_clust_8="13000.00000" pt_clust_9="35.23812"></scales>
<clustering>
<clus scale="   35.238">  2  9  1 -1</clus>
<clus scale="   79.315">  5  6 -1 -1</clus>
<clus scale="   83.753">  1  5  2 -1</clus>
<clus scale="   90.544">  7  8 -1 -1</clus>
<clus scale="   83.753">  1  5  2 -1</clus>
</clustering>
</event>
<event>
 9    2  0.5608219E-005  0.1729609E+03  0.7546771E-02  0.1196040E+00
         -1   -1    0    0    0  501 -0.00000000000E+00  0.00000000000E+00  0.33048531938E+03  0.33048531938E+03  0.00000000000E+00 0.  1.
          2   -1    0    0  502    0  0.00000000000E+00 -0.00000000000E+00 -0.47940881827E+03  0.47940881827E+03  0.00000000000E+00 0. -1.
         23    2    1    2    0    0  0.27788803170E+02 -0.13939416745E+03  0.22522331910E+03  0.28215676016E+03  0.93187672671E+02 0.  0.
         24    2    1    2    0    0  0.62588033219E+02 -0.13947595046E+01 -0.34042327516E+03  0.35707170476E+03  0.87709684826E+02 0.  0.
        -11    1    4    4    0    0  0.16051949152E+02 -0.38693165334E+02 -0.20280952415E+03  0.20709063040E+03  0.00000000000E+00 0.  1.
         12    1    4    4    0    0  0.46536084066E+02  0.37298405830E+02 -0.13761375102E+03  0.14998107436E+03  0.00000000000E+00 0. -1.
        -13    1    3    3    0    0 -0.23127271751E+02 -0.21577446836E+02  0.91466857532E+02  0.96781418347E+02  0.00000000000E+00 0.  1.
         13    1    3    3    0    0  0.50916074921E+02 -0.11781672061E+03  0.13375646157E+03  0.18537534181E+03  0.00000000000E+00 0. -1.
         21    1    1    2  502  501 -0.90376836389E+02  0.14078892695E+03 -0.33723542828E+02  0.17066567273E+03  0.00000000000E+00 0. -1.
<scales pt_clust_5="13000.00000" pt_clust_6="13000.00000" pt_clust_7="13000.00000" pt_clust_8="13000.00000" pt_clust_9="145.71047"></scales>
<clustering>
<clus scale="   87.710">  5  6 -1 -1</clus>
<clus scale="   93.188">  7  8 -1 -1</clus>
<clus scale="  107.760">  2  5  1 -1</clus>
<clus scale="  145.710">  2  9  1 -1</clus>
<clus scale="  107.760">  2  5  1 -1</clus>
</clustering>
</event>
<event>
 9    2  0.5608219E-005  0.3854978E+03  0.7546771E-02  0.1094868E+00
         -1   -1    0    0    0  501 -0.00000000000E+00  0.00000000000E+00  0.65158738423E+03  0.65158738423E+03  0.00000000000E+00 0.  1.
          2   -1    0    0  502    0  0.00000000000E+00 -0.00000000000E+00 -0.51767354104E+03  0.51767354104E+03  0.00000000000E+00 0. -1.
         23    2    1    2    0    0  0.14130355120E+03  0.31034168158E+03 -0.25139322318E+03  0.43495699049E+03  0.98541250279E+02 0.  0.
         24    2    1    2    0    0 -0.41630991250E+02  0.56040574991E+02 -0.78548791090E+02  0.13486016458E+03  0.84520210191E+02 0.  0.
        -11    1    4    4    0    0  0.29805550006E+01  0.48181810010E+02 -0.50685439465E+01  0.48539269275E+02  0.00000000000E+00 0.  1.
         12    1    4    4    0    0 -0.44611546250E+02  0.78587649806E+01 -0.73480247143E+02  0.86320895304E+02  0.00000000000E+00 0. -1.
        -13    1    3    3    0    0  0.15469239176E+02  0.42511810830E+02 -0.82879173656E+02  0.94421972266E+02  0.00000000000E+00 0.  1.
         13    1    3    3    0    0  0.12583431202E+03  0.26782987075E+03 -0.16851404952E+03  0.34053501822E+03  0.00000000000E+00 0. -1.
         21    1    1    2  502  501 -0.99672559948E+02 -0.36638225657E+03  0.46385585746E+03  0.59944377020E+03  0.00000000000E+00 0.  1.
<scales pt_clust_5="13000.00000" pt_clust_6="13000.00000" pt_clust_7="13000.00000" pt_clust_8="13000.00000" pt_clust_9="372.69042"></scales>
<clustering>
<clus scale="   84.520">  5  6 -1 -1</clus>
<clus scale="   98.541">  7  8 -1 -1</clus>
<clus scale="  109.624">  2  5  1 -1</clus>
<clus scale="  372.690">  1  9  2 -1</clus>
<clus scale="  109.624">  2  5  1 -1</clus>
</clustering>
</event>
<event>
 9    2  0.5608219E-005  0.1348748E+03  0.7546771E-02  0.1224841E+00
         -1   -1    0    0    0  501 -0.00000000000E+00  0.00000000000E+00  0.87772793003E+02  0.87772793003E+02  0.00000000000E+00 0.  1.
          2   -1    0    0  502    0  0.00000000000E+00 -0.00000000000E+00 -0.34136768581E+03  0.34136768581E+03  0.00000000000E+00 0. -1.
         23    2    1    2    0    0 -0.12348970260E+03  0.36417310395E+02 -0.47770678254E+02  0.16514253055E+03  0.91728351936E+02 0.  0.
         24    2    1    2    0    0  0.90024262709E+02 -0.96219489226E+01 -0.17887656385E+03  0.21336097618E+03  0.73000899205E+02 0.  0.
        -13    1    4    4    0    0  0.37472781747E+02 -0.38578707879E+02 -0.62711369727E+02  0.82615022644E+02  0.00000000000E+00 0.  1.
         14    1    4    4    0    0  0.52551480961E+02  0.28956758957E+02 -0.11616519412E+03  0.13074595353E+03  0.00000000000E+00 0. -1.
        -11    1    3    3    0    0 -0.19863472560E+02  0.43173368384E+02 -0.37980232512E+02  0.60835806409E+02  0.00000000000E+00 0. -1.
         11    1    3    3    0    0 -0.10362623004E+03 -0.67560579887E+01 -0.97904457425E+01  0.10430672414E+03  0.00000000000E+00 0.  1.
         21    1    1    2  502  501  0.33465439893E+02 -0.26795361473E+02 -0.26947650704E+02  0.50636972087E+02  0.00000000000E+00 0.  1.
<scales pt_clust_5="13000.00000" pt_clust_6="13000.00000" pt_clust_7="13000.00000" pt_clust_8="13000.00000" pt_clust_9="42.87105"></scales>
<clustering>
<clus scale="   42.871">  1  9  2 -1</clus>
<clus scale="   73.001">  5  6 -1 -1</clus>
<clus scale="   91.728">  7  8 -1 -1</clus>
<clus scale="  122.907">  2  5  1 -1</clus>
<clus scale="  122.907">  2  5  1 -1</clus>
</clustering>
</event>
<event>
 9    2  0.5608219E-005  0.2285414E+03  0.7546771E-02  0.1161448E+00
         -1   -1    0    0    0  501 -0.00000000000E+00  0.00000000000E+00  0.30567556613E+03  0.30567556613E+03  0.00000000000E+00 0.  1.
          2   -1    0    0  502    0  0.00000000000E+00 -0.00000000000E+00 -0.50918734940E+03  0.50918734940E+03  0.00000000000E+00 0. -1.
         24    2    1    2    0    0  0.18997605764E+03  0.62857452736E+02  0.10828596621E+03  0.24080959264E+03  0.78876153477E+02 0.  0.
         23    2    1    2    0    0  0.45435357741E+02 -0.11765687723E+02 -0.31715164559E+03  0.33310194368E+03  0.90382163270E+02 0.  0.
        -11    1    3    3    0    0  0.16323400621E+03  0.20299558932E+02  0.88548303525E+02  0.18681063924E+03  0.00000000000E+00 0.  1.
         12    1    3    3    0    0  0.26742051429E+02  0.42557893804E+02  0.19737662686E+02  0.53998953397E+02  0.00000000000E+00 0. -1.
        -13    1    4    4    0    0  0.59448131985E+02  0.19833217180E+02 -0.15275673510E+03  0.16511225581E+03  0.00000000000E+00 0. -1.
         13    1    4    4    0    0 -0.14012774244E+02 -0.31598904903E+02 -0.16439491050E+03  0.16798968787E+03  0.00000000000E+00 0.  1.
         21    1    1    2  502  501 -0.23541141538E+03 -0.51091765013E+02  0.53538961162E+01  0.24095137922E+03  0.00000000000E+00 0. -1.
<scales pt_clust_5="13000.00000" pt_clust_6="13000.00000" pt_clust_7="13000.00000" pt_clust_8="13000.00000" pt_clust_9="214.49880"></scales>
<clustering>
<clus scale="   78.876">  5  6 -1 -1</clus>
<clus scale="   90.382">  7  8 -1 -1</clus>
<clus scale="  101.842">  2  7  1 -1</clus>
<clus scale="  214.499">  2  9  1 -1</clus>
<clus scale="  101.842">  2  5  1 -1</clus>
</clustering>
</event>
<event>
 9    2  0.5608219E-005  0.1108162E+03  0.7546771E-02  0.1262606E+00
         -3   -1    0    0    0  501 -0.00000000000E+00  0.00000000000E+00  0.14373854186E+03  0.14373854186E+03  0.00000000000E+00 0.  1.
          4   -1    0    0  502    0  0.00000000000E+00 -0.00000000000E+00 -0.12022384443E+03  0.12022384443E+03  0.00000000000E+00 0. -1.
         24    2    1    2    0    0  0.39897691191E+02  0.34747790414E+02  0.31020458330E+02  0.10130118605E+03  0.80625224082E+02 0.  0.
         23    2    1    2    0    0 -0.51473915393E+02 -0.69791919962E+02  0.21108797422E+00  0.12495642947E+03  0.89964374340E+02 0.  0.
        -11    1    3    3    0    0  0.13820011979E+02  0.23609830170E+02  0.56757343263E+02  0.63006450670E+02  0.00000000000E+00 0.  1.
         12    1    3    3    0    0  0.26077679212E+02  0.11137960243E+02 -0.25736884932E+02  0.38294735376E+02  0.00000000000E+00 0. -1.
        -11    1    4    4    0    0 -0.55318688515E+01 -0.60227169507E+02  0.31855196287E+02  0.68356909309E+02  0.00000000000E+00 0.  1.
         11    1    4    4    0    0 -0.45942046542E+02 -0.95647504547E+01 -0.31644108313E+02  0.56599520163E+02  0.00000000000E+00 0. -1.
         21    1    1    2  502  501  0.11576224202E+02  0.35044129548E+02 -0.77168488666E+01  0.37704770772E+02  0.00000000000E+00 0. -1.
<scales pt_clust_5="13000.00000" pt_clust_6="13000.00000" pt_clust_7="13000.00000" pt_clust_8="13000.00000" pt_clust_9="36.90664"></scales>
<clustering>
<clus scale="   36.907">  2  9  1 -1</clus>
<clus scale="   80.625">  5  6 -1 -1</clus>
<clus scale="   89.964">  7  8 -1 -1</clus>
<clus scale="  103.378">  1  5  2 -1</clus>
<clus scale="   36.907">  2  5  1 -1</clus>
</clustering>
</event>
<event>
 9    2  0.5608219E-005  0.1460326E+03  0.7546771E-02  0.1209011E+00
          2   -1    0    0  502    0  0.00000000000E+00  0.00000000000E+00  0.19997918446E+03  0.19997918446E+03  0.00000000000E+00 0. -1.
         -1   -1    0    0    0  501 -0.00000000000E+00 -0.00000000000E+00 -0.32253677905E+03  0.32253677905E+03  0.00000000000E+00 0.  1.
         23    2    1    2    0    0 -0.86051131295E+02  0.31626245499E+02 -0.76788843666E+02  0.15412291289E+03  0.97223089669E+02 0.  0.
         24    2    1    2    0    0  0.11209516204E+03 -0.19663788477E+02  0.12991307883E+03  0.19038884499E+03  0.80115630928E+02 0.  0.
        -13    1    4    4    0    0  0.11287889278E+03  0.14229492493E+01  0.86840569295E+02  0.14242525652E+03  0.00000000000E+00 0.  1.
         14    1    4    4    0    0 -0.78373074439E+00 -0.21086737726E+02  0.43072509530E+02  0.47963588472E+02  0.00000000000E+00 0. -1.
        -11    1    3    3    0    0 -0.66679665750E+02  0.76885593922E+01 -0.96509299854E+02  0.11755567502E+03  0.00000000000E+00 0. -1.
         11    1    3    3    0    0 -0.19371465545E+02  0.23937686107E+02  0.19720456188E+02  0.36567237875E+02  0.00000000000E+00 0.  1.
         21    1    1    2  502  501 -0.26044030740E+02 -0.11962457022E+02 -0.17568182975E+03  0.17800420563E+03  0.00000000000E+00 0. -1.
<scales pt_clust_5="13000.00000" pt_clust_6="13000.00000" pt_clust_7="13000.00000" pt_clust_8="13000.00000" pt_clust_9="28.65994"></scales>
<clustering>
<clus scale="   28.660">  2  9  1 -1</clus>
<clus scale="   80.116">  5  6 -1 -1</clus>
<clus scale="   97.223">  7  8 -1 -1</clus>
<clus scale="  135.247">  1  5  2 -1</clus>
<clus scale="  135.247">  1  5  2 -1</clus>
</clustering>
</event>
<event>
 9    2  0.5608219E-005  0.9925245E+02  0.7546771E-02  0.1285072E+00
          2   -1    0    0  502    0  0.00000000000E+00  0.00000000000E+00  0.13545150635E+04  0.13545150635E+04  0.00000000000E+00 0. -1.
         -1   -1    0    0    0  501 -0.00000000000E+00 -0.00000000000E+00 -0.18277919959E+02  0.18277919959E+02  0.00000000000E+00 0.  1.
         23    2    1    2    0    0  0.36327395513E+02 -0.16711903506E+02  0.28116224495E+03  0.29709728983E+03  0.87267544111E+02 0.  0.
         24    2    1    2    0    0 -0.37774769651E+02 -0.43769138215E+02  0.94415847205E+03  0.94935288626E+03  0.80579225724E+02 0.  0.
        -13    1    4    4    0    0 -0.45593903163E+02 -0.29811609742E+02  0.29440427750E+03  0.29940176133E+03  0.00000000000E+00 0.  1.
         14    1    4    4    0    0  0.78191335128E+01 -0.13957528473E+02  0.64975419455E+03  0.64995112492E+03  0.00000000000E+00 0. -1.
        -13    1    3    3    0    0  0.51970816190E+02  0.44850911255E+01  0.25383424134E+03  0.25913877335E+03  0.00000000000E+00 0.  1.
         13    1    3    3    0    0 -0.15643420677E+02 -0.21196994631E+02  0.27328003612E+02  0.37958516479E+02  0.00000000000E+00 0. -1.
         21    1    1    2  502  501  0.14473741378E+01  0.60481041720E+02  0.11091642658E+03  0.12634280741E+03  0.00000000000E+00 0.  1.
<scales pt_clust_5="13000.00000" pt_clust_6="13000.00000" pt_clust_7="13000.00000" pt_clust_8="13000.00000" pt_clust_9="60.49836"></scales>
<clustering>
<clus scale="   60.498">  2  9  1 -1</clus>
<clus scale="   80.579">  5  6 -1 -1</clus>
<clus scale="   87.268">  7  8 -1 -1</clus>
<clus scale="   93.426">  1  5  2 -1</clus>
<clus scale="   93.426">  1  5  2 -1</clus>
</clustering>
</event>
<event>
 9    2  0.5608219E-005  0.3169930E+03  0.7546771E-02  0.1077368E+00
         -1   -1    0    0    0  501 -0.00000000000E+00  0.00000000000E+00  0.87329724341E+03  0.87329724341E+03  0.00000000000E+00 0.  1.
          2   -1    0    0  502    0  0.00000000000E+00 -0.00000000000E+00 -0.60904707325E+03  0.60904707325E+03  0.00000000000E+00 0. -1.
         24    2    1    2    0    0  0.24858068187E+03 -0.83172406619E+02  0.71512109237E+03  0.76592949024E+03  0.80869046320E+02 0.  0.
         23    2    1    2    0    0 -0.29727876493E+03  0.73135769614E+02 -0.53243115039E+03  0.62089358166E+03  0.91117533812E+02 0.  0.
        -11    1    3    3    0    0  0.17562213521E+03 -0.94000426233E+02  0.55415984136E+03  0.58887379317E+03  0.00000000000E+00 0.  1.
         12    1    3    3    0    0  0.72958546664E+02  0.10828019613E+02  0.16096125101E+03  0.17705569708E+03  0.00000000000E+00 0. -1.
        -11    1    4    4    0    0 -0.16543739416E+03  0.85861622163E+02 -0.32935234046E+03  0.37843719917E+03  0.00000000000E+00 0. -1.
         11    1    4    4    0    0 -0.13184137078E+03 -0.12725852550E+02 -0.20307880993E+03  0.24245638250E+03  0.00000000000E+00 0.  1.
         21    1    1    2  502  501  0.48698083060E+02  0.10036637006E+02  0.81560228194E+02  0.95521244753E+02  0.00000000000E+00 0.  1.
<scales pt_clust_5="13000.00000" pt_clust_6="13000.00000" pt_clust_7="13000.00000" pt_clust_8="13000.00000" pt_clust_9="49.72160"></scales>
<clustering>
<clus scale="   49.722">  1  9  2 -1</clus>
<clus scale="   80.869">  5  6 -1 -1</clus>
<clus scale="   91.118">  7  8 -1 -1</clus>
<clus scale="  314.201">  1  5  2 -1</clus>
<clus scale="  316.993">  2  5  1 -1</clus>
</clustering>
</event>
<event>
 9    2  0.5608219E-005  0.1703414E+03  0.7546771E-02  0.1199834E+00
         -1   -1    0    0    0  501 -0.00000000000E+00  0.00000000000E+00  0.47193342955E+03  0.47193342955E+03  0.00000000000E+00 0.  1.
          2   -1    0    0  502    0  0.00000000000E+00 -0.00000000000E+00 -0.12907997908E+04  0.12907997908E+04  0.00000000000E+00 0. -1.
         23    2    1    2    0    0 -0.12381885173E+03 -0.34119015907E+02  0.25680981968E+03  0.30141420340E+03  0.91673459851E+02 0.  0.
         24    2    1    2    0    0 -0.52172847365E+02  0.42268393433E+02 -0.12255938777E+04  0.12299863425E+04  0.79230211672E+02 0.  0.
        -11    1    4    4    0    0 -0.33064607451E+02  0.21986005753E+02 -0.19428494490E+03  0.19830101495E+03  0.00000000000E+00 0.  1.
         12    1    4    4    0    0 -0.19108239914E+02  0.20282387680E+02 -0.10313089328E+04  0.10316853275E+04  0.00000000000E+00 0. -1.
        -11    1    3    3    0    0 -0.12885401348E+03 -0.57995952959E+01  0.20709705915E+03  0.24397988443E+03  0.00000000000E+00 0. -1.
         11    1    3    3    0    0  0.50351617476E+01 -0.28319420611E+02  0.49712760523E+02  0.57434318977E+02  0.00000000000E+00 0.  1.
         21    1    1    2  502  501  0.17599169909E+03 -0.81493775260E+01  0.14991769675E+03  0.23133267453E+03  0.00000000000E+00 0.  1.
<scales pt_clust_5="13000.00000" pt_clust_6="13000.00000" pt_clust_7="13000.00000" pt_clust_8="13000.00000" pt_clust_9="143.56935"></scales>
<clustering>
<clus scale="   79.230">  5  6 -1 -1</clus>
<clus scale="   91.673">  7  8 -1 -1</clus>
<clus scale="  103.856">  2  5  1 -1</clus>
<clus scale="  143.569">  2  9  1 -1</clus>
<clus scale="  103.856">  2  5  1 -1</clus>
</clustering>
</event>
<event>
 9    2  0.5608219E-005  0.1889558E+03  0.7546771E-02  0.1160667E+00
         -3   -1    0    0    0  501 -0.00000000000E+00  0.00000000000E+00  0.93637756189E+02  0.93637756189E+02  0.00000000000E+00 0.  1.
          4   -1    0    0  502    0  0.00000000000E+00 -0.00000000000E+00 -0.75092233607E+03  0.75092233607E+03  0.00000000000E+00 0. -1.
         24    2    1    2    0    0 -0.12967717900E+03 -0.65107797288E+02 -0.48697744133E+02  0.18329453836E+03  0.10084751602E+03 0.  0.
         23    2    1    2    0    0  0.15010173740E+03  0.63212058216E+02 -0.61268513393E+03  0.64034779922E+03  0.90199416639E+02 0.  0.
        -13    1    3    3    0    0 -0.13541682496E+02 -0.52745200900E+02 -0.37176998785E+02  0.65936049483E+02  0.00000000000E+00 0.  1.
         14    1    3    3    0    0 -0.11613549651E+03 -0.12362596388E+02 -0.11520745348E+02  0.11735848888E+03  0.00000000000E+00 0. -1.
        -13    1    4    4    0    0  0.17362715358E+02  0.49392108009E+02 -0.19123214190E+03  0.19826945381E+03  0.00000000000E+00 0.  1.
         13    1    4    4    0    0  0.13273902204E+03  0.13819950207E+02 -0.42145299203E+03  0.44207834541E+03  0.00000000000E+00 0. -1.
         21    1    1    2  502  501 -0.20424558400E+02  0.18957390713E+01  0.40982981838E+01  0.20917754671E+02  0.00000000000E+00 0.  1.
<scales pt_clust_5="13000.00000" pt_clust_6="13000.00000" pt_clust_7="13000.00000" pt_clust_8="13000.00000" pt_clust_9="20.51235"></scales>
<clustering>
<clus scale="   20.512">  1  9  2 -1</clus>
<clus scale="   90.199">  7  8 -1 -1</clus>
<clus scale="  100.848">  5  6 -1 -1</clus>
<clus scale="  183.494">  2  7  1 -1</clus>
<clus scale="  183.494">  2  5  1 -1</clus>
</clustering>
</event>
<event>
 9    2  0.5608219E-005  0.1352803E+03  0.7546771E-02  0.1236896E+00
          2   -1    0    0  502    0  0.00000000000E+00  0.00000000000E+00  0.31841653836E+03  0.31841653836E+03  0.00000000000E+00 0. -1.
         -1   -1    0    0    0  501 -0.00000000000E+00 -0.00000000000E+00 -0.40431084961E+03  0.40431084961E+03  0.00000000000E+00 0.  1.
         23    2    1    2    0    0 -0.22995568757E+02 -0.17688198586E+02 -0.52400383592E+02  0.10849271343E+03  0.90461041979E+02 0.  0.
         24    2    1    2    0    0  0.33217039026E+02 -0.10218358523E+03  0.26227913353E+03  0.29493007586E+03  0.81538634942E+02 0.  0.
        -11    1    4    4    0    0 -0.22433452364E+02 -0.24107309504E+02  0.11138642589E+03  0.11615230531E+03  0.00000000000E+00 0.  1.
         12    1    4    4    0    0  0.55650491390E+02 -0.78076275722E+02  0.15089270765E+03  0.17877777055E+03  0.00000000000E+00 0. -1.
        -11    1    3    3    0    0 -0.23947298678E+02 -0.53529375054E+02 -0.27036123128E+02  0.64574136165E+02  0.00000000000E+00 0. -1.
         11    1    3    3    0    0  0.95172992126E+00  0.35841176468E+02 -0.25364260463E+02  0.43918577269E+02  0.00000000000E+00 0.  1.
         21    1    1    2  502  501 -0.10221470269E+02  0.11987178381E+03 -0.29577306120E+03  0.31930459868E+03  0.00000000000E+00 0.  1.
<scales pt_clust_5="13000.00000" pt_clust_6="13000.00000" pt_clust_7="13000.00000" pt_clust_8="13000.00000" pt_clust_9="107.94539"></scales>
<clustering>
<clus scale="   81.539">  5  6 -1 -1</clus>
<clus scale="   90.461">  7  8 -1 -1</clus>
<clus scale="   94.999">  2  7  1 -1</clus>
<clus scale="  107.945">  2  9  1 -1</clus>
<clus scale="  135.280">  1  5  2 -1</clus>
</clustering>
</event>
<event>
 9    2  0.5608219E-005  0.8872534E+02  0.7546771E-02  0.1308416E+00
         -1   -1    0    0    0  501 -0.00000000000E+00  0.00000000000E+00  0.88027702570E+02  0.88027702570E+02  0.00000000000E+00 0.  1.
          2   -1    0    0  502    0  0.00000000000E+00 -0.00000000000E+00 -0.31137067830E+03  0.31137067830E+03  0.00000000000E+00 0. -1.
         24    2    1    2    0    0 -0.15089542833E+02 -0.48245441768E+02  0.10148090294E+02  0.95788380073E+02  0.80728638450E+02 0.  0.
         23    2    1    2    0    0 -0.24995925829E+02  0.12470795918E+02 -0.23339140128E+03  0.24988216800E+03  0.84789354484E+02 0.  0.
        -13    1    3    3    0    0  0.72985639967E+01 -0.66004707827E+02  0.38025517544E+01  0.66515786785E+02  0.00000000000E+00 0.  1.
         14    1    3    3    0    0 -0.22388106830E+02  0.17759266060E+02  0.63455385399E+01  0.29272593287E+02  0.00000000000E+00 0. -1.
        -13    1    4    4    0    0 -0.77638388757E+01  0.48581480710E+02 -0.12403386162E+03  0.13343476417E+03  0.00000000000E+00 0. -1.
         13    1    4    4    0    0 -0.17232086953E+02 -0.36110684792E+02 -0.10935753966E+03  0.11644740383E+03  0.00000000000E+00 0.  1.
         21    1    1    2  502  501  0.40085468662E+02  0.35774645850E+02 -0.99664737566E-01  0.53727832792E+02  0.00000000000E+00 0.  1.
<scales pt_clust_5="13000.00000" pt_clust_6="13000.00000" pt_clust_7="13000.00000" pt_clust_8="13000.00000" pt_clust_9="53.72774"></scales>
<clustering>
<clus scale="   53.728">  1  9  2 -1</clus>
<clus scale="   80.729">  5  6 -1 -1</clus>
<clus scale="   84.789">  7  8 -1 -1</clus>
<clus scale="   84.853">  1  5  2 -1</clus>
<clus scale="   88.725">  2  5  1 -1</clus>
</clustering>
</event>
<event>
 9    2  0.5608219E-005  0.1493837E+03  0.7546771E-02  0.1203123E+00
          2   -1    0    0  502    0  0.00000000000E+00  0.00000000000E+00  0.34985922060E+03  0.34985922060E+03  0.00000000000E+00 0. -1.
         -1   -1    0    0    0  501 -0.00000000000E+00 -0.00000000000E+00 -0.24042528674E+03  0.24042528674E+03  0.00000000000E+00 0.  1.
         23    2    1    2    0    0  0.94418148639E+02 -0.33092917333E+02 -0.18388129028E+03  0.22824129541E+03  0.90949612691E+02 0.  0.
         24    2    1    2    0    0 -0.11548069144E+03  0.32536361958E+02  0.30528959454E+03  0.33780840204E+03  0.80736454031E+02 0.  0.
        -13    1    4    4    0    0 -0.72795567575E+02 -0.13868048999E+02  0.11032959364E+03  0.13290649599E+03  0.00000000000E+00 0.  1.
         14    1    4    4    0    0 -0.42685123870E+02  0.46404410956E+02  0.19496000089E+03  0.20490190605E+03  0.00000000000E+00 0. -1.
        -11    1    3    3    0    0  0.29547236081E+02 -0.40648836203E+02 -0.24313993629E+02  0.55825955710E+02  0.00000000000E+00 0. -1.
         11    1    3    3    0    0  0.64870912558E+02  0.75559188703E+01 -0.15956729665E+03  0.17241533971E+03  0.00000000000E+00 0.  1.
         21    1    1    2  502  501  0.21062542806E+02  0.55655537538E+00 -0.11974370412E+02  0.24234809884E+02  0.00000000000E+00 0. -1.
<scales pt_clust_5="13000.00000" pt_clust_6="13000.00000" pt_clust_7="13000.00000" pt_clust_8="13000.00000" pt_clust_9="21.06989"></scales>
<clustering>
<clus scale="   21.070">  2  9  1 -1</clus>
<clus scale="   80.736">  5  6 -1 -1</clus>
<clus scale="   90.950">  7  8 -1 -1</clus>
<clus scale="  143.395">  1  5  2 -1</clus>
<clus scale="  143.395">  1  5  2 -1</clus>
</clustering>
</event>
<event>
 9    2  0.5608219E-005  0.1390448E+03  0.7546771E-02  0.1217231E+00
         -1   -1    0    0    0  501 -0.00000000000E+00  0.00000000000E+00  0.61288349949E+02  0.61288349949E+02  0.00000000000E+00 0.  1.
          2   -1    0    0  502    0  0.00000000000E+00 -0.00000000000E+00 -0.83892774106E+03  0.83892774106E+03  0.00000000000E+00 0. -1.
         23    2    1    2    0    0  0.13444135610E+03  0.86025726729E+02 -0.20637378698E+03  0.27600347962E+03  0.90071510017E+02 0.  0.
         24    2    1    2    0    0 -0.23547714895E+02 -0.96930070320E+02 -0.40268230694E+03  0.42213185412E+03  0.78053369755E+02 0.  0.
        -11    1    4    4    0    0  0.21734158015E+02 -0.70707370616E+02 -0.22000437452E+03  0.23210736889E+03  0.00000000000E+00 0.  1.
         12    1    4    4    0    0 -0.45281872910E+02 -0.26222699703E+02 -0.18267793242E+03  0.19002448523E+03  0.00000000000E+00 0. -1.
        -13    1    3    3    0    0  0.93220914036E+02  0.10143271116E+03 -0.14040001056E+03  0.19670001696E+03  0.00000000000E+00 0.  1.
         13    1    3    3    0    0  0.41220442067E+02 -0.15406984434E+02 -0.65973776424E+02  0.79303462656E+02  0.00000000000E+00 0. -1.
         21    1    1    2  502  501 -0.11089364121E+03  0.10904343591E+02 -0.16858329718E+03  0.20208075727E+03  0.00000000000E+00 0.  1.
<scales pt_clust_5="13000.00000" pt_clust_6="13000.00000" pt_clust_7="13000.00000" pt_clust_8="13000.00000" pt_clust_9="111.42847"></scales>
<clustering>
<clus scale="   78.053">  5  6 -1 -1</clus>
<clus scale="   90.072">  7  8 -1 -1</clus>
<clus scale="  111.428">  1  9  2 -1</clus>
<clus scale="  131.579">  2  5  1 -1</clus>
<clus scale="  131.579">  2  5  1 -1</clus>
</clustering>
</event>
<event>
 9    2  0.5608219E-005  0.1307094E+03  0.7546771E-02  0.1229582E+00
         -1   -1    0    0    0  501 -0.00000000000E+00  0.00000000000E+00  0.31168425984E+03  0.31168425984E+03  0.00000000000E+00 0.  1.
          2   -1    0    0  502    0  0.00000000000E+00 -0.00000000000E+00 -0.15260516966E+03  0.15260516966E+03  0.00000000000E+00 0. -1.
         23    2    1    2    0    0 -0.31258921188E+00  0.90476666359E+02  0.24618927516E+03  0.27801780037E+03  0.92187923564E+02 0.  0.
         24    2    1    2    0    0  0.75398696790E+01 -0.11023900152E+03 -0.92191336162E+02  0.16462442213E+03  0.79952928692E+02 0.  0.
        -11    1    4    4    0    0  0.38280120324E+02 -0.36964862816E+02 -0.18746204858E+02  0.56419756217E+02  0.00000000000E+00 0.  1.
         12    1    4    4    0    0 -0.30740250644E+02 -0.73274138704E+02 -0.73445131305E+02  0.10820466591E+03  0.00000000000E+00 0. -1.
        -11    1    3    3    0    0 -0.41795666487E+02  0.60046569302E+02  0.17914999382E+03  0.19351276058E+03  0.00000000000E+00 0. -1.
         11    1    3    3    0    0  0.41483077275E+02  0.30430097057E+02  0.67039281343E+02  0.84505039791E+02  0.00000000000E+00 0.  1.
         21    1    1    2  502  501 -0.72272804671E+01  0.19762335161E+02  0.50811511839E+01  0.21647207010E+02  0.00000000000E+00 0.  1.
<scales pt_clust_5="13000.00000" pt_clust_6="13000.00000" pt_clust_7="13000.00000" pt_clust_8="13000.00000" pt_clust_9="21.04242"></scales>
<clustering>
<clus scale="   21.042">  2  9  1 -1</clus>
<clus scale="   79.953">  5  6 -1 -1</clus>
<clus scale="   92.188">  7  8 -1 -1</clus>
<clus scale="  122.388">  2  5  1 -1</clus>
<clus scale="   21.042">  2  5  1 -1</clus>
</clustering>
</event>
<event>
 9    2  0.5608219E-005  0.2128573E+03  0.7546771E-02  0.1140159E+00
         -1   -1    0    0    0  501 -0.00000000000E+00  0.00000000000E+00  0.12115561044E+03  0.12115561044E+03  0.00000000000E+00 0.  1.
          2   -1    0    0  502    0  0.00000000000E+00 -0.00000000000E+00 -0.13550333241E+04  0.13550333241E+04  0.00000000000E+00 0. -1.
         23    2    1    2    0    0 -0.14197996358E+02  0.95954763606E+02  0.35878590740E+02  0.13743091383E+03  0.90504602327E+02 0.  0.
         24    2    1    2    0    0  0.11845324382E+03 -0.16819661295E+03 -0.11243184656E+04  0.11457808034E+04  0.80002287028E+02 0.  0.
        -11    1    4    4    0    0 -0.12067510664E+02 -0.16316394455E+02 -0.90884407580E+02  0.93122634643E+02  0.00000000000E+00 0.  1.
         12    1    4    4    0    0  0.13052075449E+03 -0.15188021850E+03 -0.10334340580E+04  0.10526581688E+04  0.00000000000E+00 0. -1.
        -11    1    3    3    0    0 -0.48028326138E+02  0.43955298806E+02  0.37952794513E+02  0.75360487101E+02  0.00000000000E+00 0.  1.
         11    1    3    3    0    0  0.33830329780E+02  0.51999464800E+02 -0.20742037731E+01  0.62070426725E+02  0.00000000000E+00 0. -1.
         21    1    1    2  502  501 -0.10425524747E+03  0.72241849346E+02 -0.14543783880E+03  0.19297721725E+03  0.00000000000E+00 0. -1.
<scales pt_clust_5="13000.00000" pt_clust_6="13000.00000" pt_clust_7="13000.00000" pt_clust_8="13000.00000" pt_clust_9="126.83864"></scales>
<clustering>
<clus scale="   80.002">  5  6 -1 -1</clus>
<clus scale="   90.505">  7  8 -1 -1</clus>
<clus scale="  126.839">  1  9  2 -1</clus>
<clus scale="  208.609">  2  5  1 -1</clus>
<clus scale="  208.609">  2  5  1 -1</clus>
</clustering>
</event>
<event>
 9    2  0.5608219E-005  0.1196946E+03  0.7546771E-02  0.1246888E+00
          2   -1    0    0  502    0  0.00000000000E+00  0.00000000000E+00  0.44193313856E+02  0.44193313856E+02  0.00000000000E+00 0. -1.
         -1   -1    0    0    0  501 -0.00000000000E+00 -0.00000000000E+00 -0.43399020249E+03  0.43399020249E+03  0.00000000000E+00 0.  1.
         24    2    1    2    0    0  0.62141330105E+02  0.67340870323E+02 -0.17420149232E+03  0.21285131424E+03  0.81013482340E+02 0.  0.
         23    2    1    2    0    0 -0.55056323618E+02 -0.39291782477E+02 -0.11920403634E+03  0.16469303020E+03  0.91318940949E+02 0.  0.
        -11    1    3    3    0    0  0.33089996396E+02 -0.31174241401E+01 -0.10418846085E+03  0.10936133489E+03  0.00000000000E+00 0.  1.
         12    1    3    3    0    0  0.29051333709E+02  0.70458294463E+02 -0.70013031478E+02  0.10348997935E+03  0.00000000000E+00 0. -1.
        -11    1    4    4    0    0  0.23550188852E+02 -0.17908130976E+02 -0.17455841089E+02  0.34351403729E+02  0.00000000000E+00 0. -1.
         11    1    4    4    0    0 -0.78606512470E+02 -0.21383651501E+02 -0.10174819525E+03  0.13034162647E+03  0.00000000000E+00 0.  1.
         21    1    1    2  502  501 -0.70850064872E+01 -0.28049087845E+02 -0.96391359969E+02  0.10063917191E+03  0.00000000000E+00 0.  1.
<scales pt_clust_5="13000.00000" pt_clust_6="13000.00000" pt_clust_7="13000.00000" pt_clust_8="13000.00000" pt_clust_9="28.93006"></scales>
<clustering>
<clus scale="   28.930">  2  9  1 -1</clus>
<clus scale="   81.013">  5  6 -1 -1</clus>
<clus scale="   91.319">  7  8 -1 -1</clus>
<clus scale="  112.030">  2  5  1 -1</clus>
<clus scale="  119.695">  1  5  2 -1</clus>
</clustering>
</event>
<event>
 9    2  0.5608219E-005  0.1235813E+03  0.7546771E-02  0.1240331E+00
          4   -1    0    0  502    0  0.00000000000E+00  0.00000000000E+00  0.94055950965E+02  0.94055950965E+02  0.00000000000E+00 0. -1.
         -3   -1    0    0    0  501 -0.00000000000E+00 -0.00000000000E+00 -0.28150047064E+03  0.28150047064E+03  0.00000000000E+00 0.  1.
         23    2    1    2    0    0 -0.41589802935E+02 -0.33113590509E+02 -0.70198079869E+02  0.12682817007E+03  0.91276463134E+02 0.  0.
         24    2    1    2    0    0  0.58466589034E+02  0.95434668572E+02 -0.32040248996E+02  0.14182250972E+03  0.80999559930E+02 0.  0.
        -13    1    4    4    0    0  0.12083812078E+02  0.59238623501E+02 -0.51948146683E+02  0.79710996559E+02  0.00000000000E+00 0.  1.
         14    1    4    4    0    0  0.46382776956E+02  0.36196045071E+02  0.19907897686E+02  0.62111513162E+02  0.00000000000E+00 0. -1.
        -11    1    3    3    0    0 -0.64338679377E+02 -0.16841696029E+02 -0.72959474678E+02  0.98722810608E+02  0.00000000000E+00 0. -1.
         11    1    3    3    0    0  0.22748876442E+02 -0.16271894481E+02  0.27613948090E+01  0.28105359465E+02  0.00000000000E+00 0.  1.
         21    1    1    2  502  501 -0.16876786099E+02 -0.62321078063E+02 -0.85206190809E+02  0.10690574181E+03  0.00000000000E+00 0.  1.
<scales pt_clust_5="13000.00000" pt_clust_6="13000.00000" pt_clust_7="13000.00000" pt_clust_8="13000.00000" pt_clust_9="64.56580"></scales>
<clustering>
<clus scale="   64.566">  2  9  1 -1</clus>
<clus scale="   81.000">  5  6 -1 -1</clus>
<clus scale="   91.276">  7  8 -1 -1</clus>
<clus scale="  116.198">  1  5  2 -1</clus>
<clus scale="  116.198">  1  5  2 -1</clus>
</clustering>
</event>
<event>
 9    2  0.5608219E-005  0.1017129E+03  0.7546771E-02  0.1278852E+00
         -1   -1    0    0    0  501 -0.00000000000E+00  0.00000000000E+00  0.22941333297E+03  0.22941333297E+03  0.00000000000E+00 0.  1.
          2   -1    0    0  502    0  0.00000000000E+00 -0.00000000000E+00 -0.32535369634E+03  0.32535369634E+03  0.00000000000E+00 0. -1.
         23    2    1    2    0    0 -0.26595699562E+02  0.21380735113E+02  0.16417496547E+03  0.18918302053E+03  0.87591831235E+02 0.  0.
         24    2    1    2    0    0 -0.21726958042E+02 -0.49092216078E+02 -0.28715842901E+03  0.30366200395E+03  0.82876672891E+02 0.  0.
        -13    1    4    4    0    0 -0.27272248005E+02  0.15081245969E+02 -0.60861533922E+02  0.68376500368E+02  0.00000000000E+00 0.  1.
         14    1    4    4    0    0  0.55452899631E+01 -0.64173462048E+02 -0.22629689508E+03  0.23528550358E+03  0.00000000000E+00 0. -1.
        -13    1    3    3    0    0 -0.40959975470E+02  0.36318232153E+02  0.15851384706E+03  0.16770024832E+03  0.00000000000E+00 0.  1.
         13    1    3    3    0    0  0.14364275907E+02 -0.14937497039E+02  0.56611184164E+01  0.21482772211E+02  0.00000000000E+00 0. -1.
         21    1    1    2  502  501  0.48322657604E+02  0.27711480965E+02  0.27043100169E+02  0.61922004828E+02  0.00000000000E+00 0.  1.
<scales pt_clust_5="13000.00000" pt_clust_6="13000.00000" pt_clust_7="13000.00000" pt_clust_8="13000.00000" pt_clust_9="55.70463"></scales>
<clustering>
<clus scale="   55.705">  1  9  2 -1</clus>
<clus scale="   82.877">  5  6 -1 -1</clus>
<clus scale="   87.592">  7  8 -1 -1</clus>
<clus scale="   97.682">  2  5  1 -1</clus>
<clus scale="   97.682">  2  5  1 -1</clus>
</clustering>
</event>
<event>
 9    2  0.5608219E-005  0.1453680E+03  0.7546771E-02  0.1207753E+00
         -1   -1    0    0    0  501 -0.00000000000E+00  0.00000000000E+00  0.21455627756E+03  0.21455627756E+03  0.00000000000E+00 0.  1.
          2   -1    0    0  502    0  0.00000000000E+00 -0.00000000000E+00 -0.25503126328E+03  0.25503126328E+03  0.00000000000E+00 0. -1.
         23    2    1    2    0    0 -0.24616002073E+02  0.81503215526E+02  0.14011149924E+03  0.18644540497E+03  0.88780263101E+02 0.  0.
         24    2    1    2    0    0 -0.99878762827E+00 -0.12019865159E+03 -0.18660590476E+03  0.23634803754E+03  0.81178308311E+02 0.  0.
        -11    1    4    4    0    0 -0.38818764670E+02 -0.76174744003E+02 -0.94064087688E+02  0.12711231532E+03  0.00000000000E+00 0.  1.
         12    1    4    4    0    0  0.37819977041E+02 -0.44023907585E+02 -0.92541817068E+02  0.10923572222E+03  0.00000000000E+00 0. -1.
        -13    1    3    3    0    0  0.19935335827E+02  0.39096210000E+01  0.13454769936E+00  0.20315532333E+02  0.00000000000E+00 0. -1.
         13    1    3    3    0    0 -0.44551337899E+02  0.77593594526E+02  0.13997695154E+03  0.16612987264E+03  0.00000000000E+00 0.  1.
         21    1    1    2  502  501  0.25614789701E+02  0.38695436063E+02  0.60194197905E+01  0.46794098326E+02  0.00000000000E+00 0. -1.
<scales pt_clust_5="13000.00000" pt_clust_6="13000.00000" pt_clust_7="13000.00000" pt_clust_8="13000.00000" pt_clust_9="46.40533"></scales>
<clustering>
<clus scale="   46.405">  1  9  2 -1</clus>
<clus scale="   81.178">  5  6 -1 -1</clus>
<clus scale="   88.780">  7  8 -1 -1</clus>
<clus scale="  140.854">  2  5  1 -1</clus>
<clus scale="  140.854">  2  5  1 -1</clus>
</clustering>
</event>
<event>
 9    2  0.5608219E-005  0.1195693E+03  0.7546771E-02  0.1244826E+00
          2   -1    0    0  502    0  0.00000000000E+00  0.00000000000E+00  0.35160475934E+03  0.35160475934E+03  0.00000000000E+00 0. -1.
         -1   -1    0    0    0  501 -0.00000000000E+00 -0.00000000000E+00 -0.13947043215E+03  0.13947043215E+03  0.00000000000E+00 0.  1.
         23    2    1    2    0    0  0.10588458752E+03  0.79762119823E+01  0.23236508173E+02  0.13836375428E+03  0.85612074811E+02 0.  0.
         24    2    1    2    0    0 -0.76523346062E+02 -0.19373340864E+02  0.25510155905E+03  0.27939764423E+03  0.82189350558E+02 0.  0.
        -11    1    4    4    0    0 -0.30365801227E+02  0.25384228738E+02  0.46245861232E+02  0.60869702101E+02  0.00000000000E+00 0.  1.
         12    1    4    4    0    0 -0.46157544835E+02 -0.44757569602E+02  0.20885569782E+03  0.21852794213E+03  0.00000000000E+00 0. -1.
        -11    1    3    3    0    0  0.92607702840E+02 -0.25336065516E+02  0.32435943276E+02  0.10134196198E+03  0.00000000000E+00 0.  1.
         11    1    3    3    0    0  0.13276884681E+02  0.33312277498E+02 -0.91994351027E+01  0.37021792300E+02  0.00000000000E+00 0. -1.
         21    1    1    2  502  501 -0.29361241460E+02  0.11397128882E+02 -0.66203740030E+02  0.73313792978E+02  0.00000000000E+00 0.  1.
<scales pt_clust_5="13000.00000" pt_clust_6="13000.00000" pt_clust_7="13000.00000" pt_clust_8="13000.00000" pt_clust_9="31.49567"></scales>
<clustering>
<clus scale="   31.496">  2  9  1 -1</clus>
<clus scale="   82.189">  5  6 -1 -1</clus>
<clus scale="   85.612">  7  8 -1 -1</clus>
<clus scale="  117.143">  1  5  2 -1</clus>
<clus scale="  117.143">  1  5  2 -1</clus>
</clustering>
</event>
<event>
 9    2  0.5608219E-005  0.2878125E+03  0.7546771E-02  0.1091497E+00
         -1   -1    0    0    0  501 -0.00000000000E+00  0.00000000000E+00  0.15608017368E+03  0.15608017368E+03  0.00000000000E+00 0.  1.
          2   -1    0    0  502    0  0.00000000000E+00 -0.00000000000E+00 -0.48557824149E+03  0.48557824149E+03  0.00000000000E+00 0. -1.
         24    2    1    2    0    0  0.65856361299E+02  0.99128457159E+02 -0.17279666292E+03  0.22456355808E+03  0.80041199137E+02 0.  0.
         23    2    1    2    0    0  0.11265733579E+03  0.11866123547E+02 -0.14840939324E+03  0.20672448263E+03  0.88753498632E+02 0.  0.
        -13    1    3    3    0    0  0.54483345953E+02  0.11276102543E+03 -0.14515922644E+03  0.19171511381E+03  0.00000000000E+00 0.  1.
         14    1    3    3    0    0  0.11373015346E+02 -0.13632568273E+02 -0.27637436479E+02  0.32848444270E+02  0.00000000000E+00 0. -1.
        -11    1    4    4    0    0  0.74313241513E+02 -0.27706589863E+02 -0.12226209167E+03  0.14573308494E+03  0.00000000000E+00 0.  1.
         11    1    4    4    0    0  0.38344094275E+02  0.39572713411E+02 -0.26147301574E+02  0.60991397689E+02  0.00000000000E+00 0. -1.
         21    1    1    2  502  501 -0.17851369709E+03 -0.11099458071E+03 -0.82920116529E+01  0.21037037446E+03  0.00000000000E+00 0. -1.
<scales pt_clust_5="13000.00000" pt_clust_6="13000.00000" pt_clust_7="13000.00000" pt_clust_8="13000.00000" pt_clust_9="210.20689"></scales>
<clustering>
<clus scale="   80.041">  5  6 -1 -1</clus>
<clus scale="   88.753">  7  8 -1 -1</clus>
<clus scale="  131.711">  5  7 -1 -1</clus>
<clus scale="  210.207">  1  9  2 -1</clus>
<clus scale="  287.813">  2  5  1 -1</clus>
</clustering>
</event>
<event>
 9    2  0.5608219E-005  0.1353446E+03  0.7546771E-02  0.1221848E+00
          2   -1    0    0  502    0  0.00000000000E+00  0.00000000000E+00  0.59243175472E+03  0.59243175472E+03  0.00000000000E+00 0. -1.
         -1   -1    0    0    0  501 -0.00000000000E+00 -0.00000000000E+00 -0.13536206115E+03  0.13536206115E+03  0.00000000000E+00 0.  1.
         24    2    1    2    0    0  0.96424001406E+02 -0.11897742082E+02 -0.80721796842E+02  0.15060025508E+03  0.82007829086E+02 0.  0.
         23    2    1    2    0    0 -0.13724677919E+03  0.25176440186E+02  0.43432160183E+03  0.46517195194E+03  0.90989886867E+02 0.  0.
        -13    1    3    3    0    0  0.72103040406E+02 -0.45787610756E+02 -0.55237974345E+02  0.10171817706E+03  0.00000000000E+00 0.  1.
         14    1    3    3    0    0  0.24320961000E+02  0.33889868674E+02 -0.25483822497E+02  0.48882078022E+02  0.00000000000E+00 0. -1.
        -13    1    4    4    0    0 -0.19867546038E+02  0.34862432316E+02  0.55656694765E+02  0.68613236659E+02  0.00000000000E+00 0.  1.
         13    1    4    4    0    0 -0.11737923315E+03 -0.96859921308E+01  0.37866490707E+03  0.39655871528E+03  0.00000000000E+00 0. -1.
         21    1    1    2  502  501  0.40822777782E+02 -0.13278698104E+02  0.10346988858E+03  0.11202160886E+03  0.00000000000E+00 0.  1.
<scales pt_clust_5="13000.00000" pt_clust_6="13000.00000" pt_clust_7="13000.00000" pt_clust_8="13000.00000" pt_clust_9="42.92811"></scales>
<clustering>
<clus scale="   42.928">  1  9  2 -1</clus>
<clus scale="   82.008">  5  6 -1 -1</clus>
<clus scale="   90.990">  7  8 -1 -1</clus>
<clus scale="  129.477">  2  5  1 -1</clus>
<clus scale="   42.928">  1  5  2 -1</clus>
</clustering>
</event>
<event>
 9    2  0.5608219E-005  0.3605298E+03  0.7546771E-02  0.1058775E+00
         -1   -1    0    0    0  501 -0.00000000000E+00  0.00000000000E+00  0.35234300487E+03  0.35234300487E+03  0.00000000000E+00 0.  1.
          2   -1    0    0  502    0  0.00000000000E+00 -0.00000000000E+00 -0.94221254970E+03  0.94221254970E+03  0.00000000000E+00 0. -1.
         24    2    1    2    0    0  0.36609643045E+03  0.78519940688E+02  0.94945678242E+02  0.39377093785E+03  0.76478050466E+02 0.  0.
         23    2    1    2    0    0 -0.33894225313E+03 -0.58290422801E+02 -0.74829730321E+03  0.82883632113E+03  0.93494218487E+02 0.  0.
        -11    1    3    3    0    0  0.26601457022E+03  0.21494700119E+02  0.70089093925E+02  0.27593161252E+03  0.00000000000E+00 0.  1.
         12    1    3    3    0    0  0.10008186023E+03  0.57025240569E+02  0.24856584317E+02  0.11783932532E+03  0.00000000000E+00 0. -1.
        -13    1    4    4    0    0 -0.19973899359E+03 -0.51840078309E+02 -0.54132342052E+03  0.57932210805E+03  0.00000000000E+00 0.  1.
         13    1    4    4    0    0 -0.13920325955E+03 -0.64503444918E+01 -0.20697388269E+03  0.24951421308E+03  0.00000000000E+00 0. -1.
         21    1    1    2  502  501 -0.27154177314E+02 -0.20229517888E+02  0.63482080138E+02  0.71948295590E+02  0.00000000000E+00 0.  1.
<scales pt_clust_5="13000.00000" pt_clust_6="13000.00000" pt_clust_7="13000.00000" pt_clust_8="13000.00000" pt_clust_9="33.86123"></scales>
<clustering>
<clus scale="   33.861">  1  9  2 -1</clus>
<clus scale="   76.478">  5  6 -1 -1</clus>
<clus scale="   93.494">  7  8 -1 -1</clus>
<clus scale="  356.496">  1  5  2 -1</clus>
<clus scale="  360.530">  2  5  1 -1</clus>
</clustering>
</event>
<event>
 9    2  0.5608219E-005  0.9259767E+02  0.7546771E-02  0.1303862E+00
         -1   -1    0    0    0  501 -0.00000000000E+00  0.00000000000E+00  0.32935061362E+02  0.32935061362E+02  0.00000000000E+00 0.  1.
          2   -1    0    0  502    0  0.00000000000E+00 -0.00000000000E+00 -0.55250088373E+03  0.55250088373E+03  0.00000000000E+00 0. -1.
         24    2    1    2    0    0  0.16187821006E+02  0.14520232600E+01 -0.10837514186E+03  0.13625653358E+03  0.80972326443E+02 0.  0.
         23    2    1    2    0    0  0.10189386557E+02  0.58212557416E+01 -0.41138962567E+03  0.42181707891E+03  0.92468985810E+02 0.  0.
        -11    1    3    3    0    0 -0.27763326305E+02 -0.18075157877E+02 -0.32400634585E+02  0.46339127541E+02  0.00000000000E+00 0.  1.
         12    1    3    3    0    0  0.43951147311E+02  0.19527181137E+02 -0.75974507270E+02  0.89917406035E+02  0.00000000000E+00 0. -1.
        -13    1    4    4    0    0 -0.27641107881E+02 -0.30179245919E+02 -0.17304302042E+03  0.17781649149E+03  0.00000000000E+00 0.  1.
         13    1    4    4    0    0  0.37830494439E+02  0.36000501660E+02 -0.23834660525E+03  0.24400058742E+03  0.00000000000E+00 0. -1.
         21    1    1    2  502  501 -0.26377207563E+02 -0.72732790016E+01  0.19894515822E+00  0.27362332602E+02  0.00000000000E+00 0.  1.
<scales pt_clust_5="13000.00000" pt_clust_6="13000.00000" pt_clust_7="13000.00000" pt_clust_8="13000.00000" pt_clust_9="27.36161"></scales>
<clustering>
<clus scale="   27.362">  1  9  2 -1</clus>
<clus scale="   80.972">  5  6 -1 -1</clus>
<clus scale="   81.119">  1  5  2 -1</clus>
<clus scale="   92.469">  7  8 -1 -1</clus>
<clus scale="   92.598">  2  5  1 -1</clus>
</clustering>
</event>
<event>
 9    2  0.5608219E-005  0.9640098E+02  0.7546771E-02  0.1294597E+00
          4   -1    0    0  502    0  0.00000000000E+00  0.00000000000E+00  0.60318832254E+02  0.60318832254E+02  0.00000000000E+00 0. -1.
         -3   -1    0    0    0  501 -0.00000000000E+00 -0.00000000000E+00 -0.19496240613E+03  0.19496240613E+03  0.00000000000E+00 0.  1.
         24    2    1    2    0    0  0.32232781069E+02  0.46573923768E+02 -0.52355291146E+02  0.10736359279E+03  0.74684549908E+02 0.  0.
         23    2    1    2    0    0 -0.10318760661E+02 -0.23599291824E+02 -0.56431998823E+02  0.10697127310E+03  0.87148605154E+02 0.  0.
        -13    1    3    3    0    0  0.28632317879E+02  0.46893932071E+02 -0.70206299507E+02  0.89150294350E+02  0.00000000000E+00 0.  1.
         14    1    3    3    0    0  0.36004631897E+01 -0.32000830313E+00  0.17851008362E+02  0.18213298439E+02  0.00000000000E+00 0. -1.
        -11    1    4    4    0    0 -0.22937087700E+02  0.97809198108E+01 -0.65555632603E+02  0.70137845351E+02  0.00000000000E+00 0.  1.
         11    1    4    4    0    0  0.12618327039E+02 -0.33380211635E+02  0.91236337801E+01  0.36833427744E+02  0.00000000000E+00 0. -1.
         21    1    1    2  502  501 -0.21914020407E+02 -0.22974631944E+02 -0.25856283906E+02  0.40946372499E+02  0.00000000000E+00 0. -1.
<scales pt_clust_5="13000.00000" pt_clust_6="13000.00000" pt_clust_7="13000.00000" pt_clust_8="13000.00000" pt_clust_9="31.74993"></scales>
<clustering>
<clus scale="   31.750">  2  9  1 -1</clus>
<clus scale="   74.685">  5  6 -1 -1</clus>
<clus scale="   85.300">  2  5  1 -1</clus>
<clus scale="   87.149">  7  8 -1 -1</clus>
<clus scale="   96.401">  1  5  2 -1</clus>
</clustering>
</event>
<event>
 9    2  0.5608219E-005  0.1074668E+03  0.7546771E-02  0.1270380E+00
         -1   -1    0    0    0  501 -0.00000000000E+00  0.00000000000E+00  0.21506481856E+03  0.21506481856E+03  0.00000000000E+00 0.  1.
          2   -1    0    0  502    0  0.00000000000E+00 -0.00000000000E+00 -0.24213915031E+03  0.24213915031E+03  0.00000000000E+00 0. -1.
         23    2    1    2    0    0  0.63395557678E+02 -0.42342029633E+02  0.72554492786E+02  0.13978866607E+03  0.92004741893E+02 0.  0.
         24    2    1    2    0    0 -0.53945636038E+02  0.49953434299E+01 -0.19330268501E+03  0.21612923207E+03  0.80067670246E+02 0.  0.
        -13    1    4    4    0    0  0.11671791491E+02 -0.21285637347E+02 -0.68846735325E+02  0.73001246830E+02  0.00000000000E+00 0.  1.
         14    1    4    4    0    0 -0.65617427529E+02  0.26280980777E+02 -0.12445594969E+03  0.14312798524E+03  0.00000000000E+00 0. -1.
        -13    1    3    3    0    0  0.37595999005E+02 -0.37062590994E+02  0.92668579585E+02  0.10665158430E+03  0.00000000000E+00 0.  1.
         13    1    3    3    0    0  0.25799558672E+02 -0.52794386387E+01 -0.20114086799E+02  0.33137081763E+02  0.00000000000E+00 0. -1.
         21    1    1    2  502  501 -0.94499216400E+01  0.37346686203E+02  0.93673860473E+02  0.10128607074E+03  0.00000000000E+00 0.  1.
<scales pt_clust_5="13000.00000" pt_clust_6="13000.00000" pt_clust_7="13000.00000" pt_clust_8="13000.00000" pt_clust_9="38.52371"></scales>
<clustering>
<clus scale="   38.524">  1  9  2 -1</clus>
<clus scale="   80.068">  5  6 -1 -1</clus>
<clus scale="   92.005">  7  8 -1 -1</clus>
<clus scale="   97.443">  2  5  1 -1</clus>
<clus scale="   97.443">  2  5  1 -1</clus>
</clustering>
</event>
<event>
 9    2  0.5608219E-005  0.1010773E+03  0.7546771E-02  0.1281989E+00
         -1   -1    0    0    0  501 -0.00000000000E+00  0.00000000000E+00  0.15540272786E+03  0.15540272786E+03  0.00000000000E+00 0.  1.
          2   -1    0    0  502    0  0.00000000000E+00 -0.00000000000E+00 -0.41439658696E+03  0.41439658696E+03  0.00000000000E+00 0. -1.
         23    2    1    2    0    0 -0.31288420174E+02  0.50737915992E+01  0.26921346416E+01  0.90818241304E+02  0.85064662266E+02 0.  0.
         24    2    1    2    0    0  0.48186672171E+02  0.33773560443E+02 -0.35961176883E+03  0.37228465788E+03  0.76240628626E+02 0.  0.
        -11    1    4    4    0    0  0.64861068116E+02  0.42044191759E+02 -0.27548798787E+03  0.28612637711E+03  0.00000000000E+00 0.  1.
         12    1    4    4    0    0 -0.16674395945E+02 -0.82706313157E+01 -0.84123780959E+02  0.86158280770E+02  0.00000000000E+00 0. -1.
        -11    1    3    3    0    0  0.28018133684E+02 -0.56676784968E+01  0.95945694317E+01  0.30152846586E+02  0.00000000000E+00 0. -1.
         11    1    3    3    0    0 -0.59306553857E+02  0.10741470096E+02 -0.69024347901E+01  0.60665394718E+02  0.00000000000E+00 0.  1.
         21    1    1    2  502  501 -0.16898251997E+02 -0.38847352043E+02  0.97925775090E+02  0.10669641563E+03  0.00000000000E+00 0.  1.
<scales pt_clust_5="13000.00000" pt_clust_6="13000.00000" pt_clust_7="13000.00000" pt_clust_8="13000.00000" pt_clust_9="42.36352"></scales>
<clustering>
<clus scale="   42.364">  1  9  2 -1</clus>
<clus scale="   76.241">  5  6 -1 -1</clus>
<clus scale="   85.065">  7  8 -1 -1</clus>
<clus scale="   93.772">  2  5  1 -1</clus>
<clus scale="   93.772">  2  5  1 -1</clus>
</clustering>
</event>
<event>
 9    2  0.5608219E-005  0.1170454E+03  0.7546771E-02  0.1255937E+00
          2   -1    0    0  502    0  0.00000000000E+00  0.00000000000E+00  0.41893045745E+03  0.41893045745E+03  0.00000000000E+00 0. -1.
         -1   -1    0    0    0  501 -0.00000000000E+00 -0.00000000000E+00 -0.12953871648E+03  0.12953871648E+03  0.00000000000E+00 0.  1.
         23    2    1    2    0    0 -0.11647331235E+02  0.28681398914E+02 -0.75808621889E+02  0.13041081768E+03  0.10149754306E+03 0.  0.
         24    2    1    2    0    0  0.46299738077E+02 -0.38687646942E+02  0.36819994059E+03  0.38186565303E+03  0.81300559311E+02 0.  0.
        -13    1    4    4    0    0  0.51767740987E+02 -0.76381902704E+01  0.11072204798E+03  0.12246474132E+03  0.00000000000E+00 0.  1.
         14    1    4    4    0    0 -0.54680029103E+01 -0.31049456672E+02  0.25747789260E+03  0.25940091171E+03  0.00000000000E+00 0. -1.
        -11    1    3    3    0    0  0.16442274471E+02  0.60752961231E+02 -0.51576255230E+02  0.81371867323E+02  0.00000000000E+00 0.  1.
         11    1    3    3    0    0 -0.28089605706E+02 -0.32071562317E+02 -0.24232366660E+02  0.49038950357E+02  0.00000000000E+00 0. -1.
         21    1    1    2  502  501 -0.34652406842E+02  0.10006248028E+02 -0.29995777300E+01  0.36192703216E+02  0.00000000000E+00 0.  1.
<scales pt_clust_5="13000.00000" pt_clust_6="13000.00000" pt_clust_7="13000.00000" pt_clust_8="13000.00000" pt_clust_9="36.06819"></scales>
<clustering>
<clus scale="   36.068">  2  9  1 -1</clus>
<clus scale="   81.301">  5  6 -1 -1</clus>
<clus scale="  100.038">  1  5  2 -1</clus>
<clus scale="  101.498">  7  8 -1 -1</clus>
<clus scale="  100.038">  1  5  2 -1</clus>
</clustering>
</event>
<event>
 9    2  0.5608219E-005  0.2214693E+03  0.7546771E-02  0.1175241E+00
         -1   -1    0    0    0  501 -0.00000000000E+00  0.00000000000E+00  0.59113151996E+02  0.59113151996E+02  0.00000000000E+00 0.  1.
          2   -1    0    0  502    0  0.00000000000E+00 -0.00000000000E+00 -0.12158013255E+04  0.12158013255E+04  0.00000000000E+00 0. -1.
         23    2    1    2    0    0 -0.13140453159E+03 -0.15990837331E+03 -0.35750444506E+03  0.42181337091E+03  0.85318537635E+02 0.  0.
         24    2    1    2    0    0 -0.13916471381E+02  0.19496675297E+02 -0.36780554586E+03  0.37673908538E+03  0.77959158273E+02 0.  0.
        -13    1    4    4    0    0 -0.45550152980E+02  0.59615840003E+01 -0.17751649072E+03  0.18336428605E+03  0.00000000000E+00 0.  1.
         14    1    4    4    0    0  0.31633681598E+02  0.13535091296E+02 -0.19028905514E+03  0.19337479933E+03  0.00000000000E+00 0. -1.
        -13    1    3    3    0    0 -0.10420673079E+03 -0.78107750812E+02 -0.26558826961E+03  0.29579890540E+03  0.00000000000E+00 0. -1.
         13    1    3    3    0    0 -0.27197800795E+02 -0.81800622497E+02 -0.91916175444E+02  0.12601446551E+03  0.00000000000E+00 0.  1.
         21    1    1    2  502  501  0.14532100297E+03  0.14041169801E+03 -0.43137818255E+03  0.47636202118E+03  0.00000000000E+00 0.  1.
<scales pt_clust_5="13000.00000" pt_clust_6="13000.00000" pt_clust_7="13000.00000" pt_clust_8="13000.00000" pt_clust_9="204.37565"></scales>
<clustering>
<clus scale="   77.959">  5  6 -1 -1</clus>
<clus scale="   81.556">  2  5  1 -1</clus>
<clus scale="   85.319">  7  8 -1 -1</clus>
<clus scale="  204.376">  2  9  1 -1</clus>
<clus scale="   81.556">  2  5  1 -1</clus>
</clustering>
</event>
<event>
 9    2  0.5608219E-005  0.9316535E+02  0.7546771E-02  0.1298421E+00
          2   -1    0    0  502    0  0.00000000000E+00  0.00000000000E+00  0.38980574464E+03  0.38980574464E+03  0.00000000000E+00 0. -1.
         -1   -1    0    0    0  501 -0.00000000000E+00 -0.00000000000E+00 -0.25067543855E+03  0.25067543855E+03  0.00000000000E+00 0.  1.
         23    2    1    2    0    0  0.76452387528E+01  0.46501171079E+02 -0.12941726407E+03  0.16500178906E+03  0.90862278024E+02 0.  0.
         24    2    1    2    0    0 -0.15362245328E+02 -0.12840522943E+02  0.36374290021E+03  0.37421369269E+03  0.85592714271E+02 0.  0.
        -13    1    4    4    0    0  0.27756899396E+02 -0.11225826336E+02  0.56382412848E+02  0.63839181696E+02  0.00000000000E+00 0.  1.
         14    1    4    4    0    0 -0.43119144723E+02 -0.16146966073E+01  0.30736048736E+03  0.31037451100E+03  0.00000000000E+00 0. -1.
        -11    1    3    3    0    0  0.40997502598E+02 -0.98827798077E+00 -0.33758473399E+02  0.53116912927E+02  0.00000000000E+00 0.  1.
         11    1    3    3    0    0 -0.33352263845E+02  0.47489449060E+02 -0.95658790671E+02  0.11188487614E+03  0.00000000000E+00 0. -1.
         21    1    1    2  502  501  0.77170065748E+01 -0.33660648136E+02 -0.95195330051E+02  0.10126570143E+03  0.00000000000E+00 0.  1.
<scales pt_clust_5="13000.00000" pt_clust_6="13000.00000" pt_clust_7="13000.00000" pt_clust_8="13000.00000" pt_clust_9="34.53392"></scales>
<clustering>
<clus scale="   34.534">  2  9  1 -1</clus>
<clus scale="   85.593">  5  6 -1 -1</clus>
<clus scale="   88.034">  1  5  2 -1</clus>
<clus scale="   90.862">  7  8 -1 -1</clus>
<clus scale="   88.034">  1  5  2 -1</clus>
</clustering>
</event>
<event>
 9    2  0.5608219E-005  0.1149253E+03  0.7546771E-02  0.1256371E+00
          2   -1    0    0  502    0  0.00000000000E+00  0.00000000000E+00  0.37957674525E+03  0.37957674525E+03  0.00000000000E+00 0. -1.
         -1   -1    0    0    0  501 -0.00000000000E+00 -0.00000000000E+00 -0.64173195975E+02  0.64173195975E+02  0.00000000000E+00 0.  1.
         24    2    1    2    0    0  0.76743397226E+01  0.82086364396E+02  0.12653347900E+03  0.17097575700E+03  0.80155607813E+02 0.  0.
         23    2    1    2    0    0 -0.47991464996E+01 -0.58273604896E+02  0.21242191297E+03  0.23915865886E+03  0.93031984628E+02 0.  0.
        -13    1    3    3    0    0  0.41582395990E+02  0.28449344818E+02  0.44176105954E+02  0.67007381789E+02  0.00000000000E+00 0.  1.
         14    1    3    3    0    0 -0.33908056268E+02  0.53637019578E+02  0.82357373044E+02  0.10396837521E+03  0.00000000000E+00 0. -1.
        -13    1    4    4    0    0  0.33144671339E+02 -0.24555734848E+02  0.33391106080E+02  0.53070889547E+02  0.00000000000E+00 0.  1.
         13    1    4    4    0    0 -0.37943817838E+02 -0.33717870048E+02  0.17903080689E+03  0.18608776932E+03  0.00000000000E+00 0. -1.
         21    1    1    2  502  501 -0.28751932231E+01 -0.23812759501E+02 -0.23551842696E+02  0.33615525363E+02  0.00000000000E+00 0.  1.
<scales pt_clust_5="13000.00000" pt_clust_6="13000.00000" pt_clust_7="13000.00000" pt_clust_8="13000.00000" pt_clust_9="23.98571"></scales>
<clustering>
<clus scale="   23.986">  2  9  1 -1</clus>
<clus scale="   80.156">  5  6 -1 -1</clus>
<clus scale="   93.032">  7  8 -1 -1</clus>
<clus scale="  104.775">  2  5  1 -1</clus>
<clus scale="  114.925">  1  5  2 -1</clus>
</clustering>
</event>
<event>
 9    2  0.5608219E-005  0.9872889E+02  0.7546771E-02  0.1288579E+00
         -1   -1    0    0    0  501 -0.00000000000E+00  0.00000000000E+00  0.45752314040E+03  0.45752314040E+03  0.00000000000E+00 0.  1.
          2   -1    0    0  502    0  0.00000000000E+00 -0.00000000000E+00 -0.77421241283E+02  0.77421241283E+02  0.00000000000E+00 0. -1.
         24    2    1    2    0    0 -0.42250523253E+02 -0.50896425470E+02  0.34333141501E+03  0.35887237491E+03  0.80853992507E+02 0.  0.
         23    2    1    2    0    0  0.17071881005E+02  0.29291935678E+02 -0.29446293523E+02  0.10200865791E+03  0.91592660562E+02 0.  0.
        -11    1    3    3    0    0  0.12796259481E+02 -0.40242442654E+02  0.21047697052E+03  0.21467126861E+03  0.00000000000E+00 0.  1.
         12    1    3    3    0    0 -0.55046782733E+02 -0.10653982817E+02  0.13285444449E+03  0.14420110631E+03  0.00000000000E+00 0. -1.
        -13    1    4    4    0    0  0.42044570385E+02  0.10617359846E+02  0.16569680460E+02  0.46422284945E+02  0.00000000000E+00 0.  1.
         13    1    4    4    0    0 -0.24972689380E+02  0.18674575833E+02 -0.46015973983E+02  0.55586372962E+02  0.00000000000E+00 0. -1.
         21    1    1    2  502  501  0.25178642248E+02  0.21604489792E+02  0.66216777631E+02  0.74063348861E+02  0.00000000000E+00 0. -1.
<scales pt_clust_5="13000.00000" pt_clust_6="13000.00000" pt_clust_7="13000.00000" pt_clust_8="13000.00000" pt_clust_9="33.17707"></scales>
<clustering>
<clus scale="   33.177">  1  9  2 -1</clus>
<clus scale="   80.854">  5  6 -1 -1</clus>
<clus scale="   88.857">  1  5  2 -1</clus>
<clus scale="   91.593">  7  8 -1 -1</clus>
<clus scale="   98.729">  2  5  1 -1</clus>
</clustering>
</event>
<event>
 9    2  0.5608219E-005  0.2483879E+03  0.7546771E-02  0.1114927E+00
          2   -1    0    0  502    0  0.00000000000E+00  0.00000000000E+00  0.15284978598E+03  0.15284978598E+03  0.00000000000E+00 0. -1.
         -1   -1    0    0    0  501 -0.00000000000E+00 -0.00000000000E+00 -0.53671089330E+03  0.53671089330E+03  0.00000000000E+00 0.  1.
         23    2    1    2    0    0  0.79189500331E+02  0.21257574341E+03 -0.31836115862E+03  0.40121619565E+03  0.90339275410E+02 0.  0.
         24    2    1    2    0    0 -0.59034123370E+02 -0.22590601882E+03 -0.34530039083E+02  0.24906254422E+03  0.79506416543E+02 0.  0.
        -13    1    4    4    0    0 -0.18458167135E+02 -0.19054060142E+03 -0.37837504331E+02  0.19513611008E+03  0.00000000000E+00 0.  1.
         14    1    4    4    0    0 -0.40575956235E+02 -0.35365417400E+02  0.33074652482E+01  0.53926434136E+02  0.00000000000E+00 0. -1.
        -13    1    3    3    0    0  0.40194893062E+02  0.81356218641E+02 -0.20240007024E+03  0.22181129857E+03  0.00000000000E+00 0.  1.
         13    1    3    3    0    0  0.38994607269E+02  0.13121952477E+03 -0.11596108838E+03  0.17940489708E+03  0.00000000000E+00 0. -1.
         21    1    1    2  502  501 -0.20155376961E+02  0.13330275415E+02 -0.30969909612E+02  0.39281939418E+02  0.00000000000E+00 0.  1.
<scales pt_clust_5="13000.00000" pt_clust_6="13000.00000" pt_clust_7="13000.00000" pt_clust_8="13000.00000" pt_clust_9="24.16476"></scales>
<clustering>
<clus scale="   24.165">  2  9  1 -1</clus>
<clus scale="   79.506">  5  6 -1 -1</clus>
<clus scale="   90.339">  7  8 -1 -1</clus>
<clus scale="  244.656">  1  5  2 -1</clus>
<clus scale="  244.656">  1  5  2 -1</clus>
</clustering>
</event>
<event>
 9    2  0.5608219E-005  0.1580353E+03  0.7546771E-02  0.1198048E+00
         -1   -1    0    0    0  501 -0.00000000000E+00  0.00000000000E+00  0.13409504057E+03  0.13409504057E+03  0.00000000000E+00 0.  1.
          2   -1    0    0  502    0  0.00000000000E+00 -0.00000000000E+00 -0.23950224097E+03  0.23950224097E+03  0.00000000000E+00 0. -1.
         24    2    1    2    0    0 -0.80185925343E+02  0.55099542070E+02  0.29171551467E+02  0.12986738695E+03  0.80924759005E+02 0.  0.
         23    2    1    2    0    0  0.71255576390E+02 -0.90845111093E+02 -0.12565573792E+03  0.20582056836E+03  0.11507628127E+03 0.  0.
        -13    1    3    3    0    0 -0.58178438355E+02  0.40465508026E+02  0.57400434389E+02  0.91197576159E+02  0.00000000000E+00 0.  1.
         14    1    3    3    0    0 -0.22007486988E+02  0.14634034044E+02 -0.28228882923E+02  0.38669810796E+02  0.00000000000E+00 0. -1.
        -13    1    4    4    0    0  0.14459281619E+02  0.25547032859E+02 -0.70120767452E+01  0.30180969718E+02  0.00000000000E+00 0.  1.
         13    1    4    4    0    0  0.56796294771E+02 -0.11639214395E+03 -0.11864366117E+03  0.17563959864E+03  0.00000000000E+00 0. -1.
         21    1    1    2  502  501  0.89303489531E+01  0.35745569023E+02 -0.89230139529E+01  0.37909326230E+02  0.00000000000E+00 0. -1.
<scales pt_clust_5="13000.00000" pt_clust_6="13000.00000" pt_clust_7="13000.00000" pt_clust_8="13000.00000" pt_clust_9="36.84422"></scales>
<clustering>
<clus scale="   36.844">  1  9  2 -1</clus>
<clus scale="   80.925">  5  6 -1 -1</clus>
<clus scale="  115.076">  7  8 -1 -1</clus>
<clus scale="  135.209">  1  5  2 -1</clus>
<clus scale="  158.035">  2  5  1 -1</clus>
</clustering>
</event>
<event>
 9    2  0.5608219E-005  0.1514741E+03  0.7546771E-02  0.1224398E+00
         -1   -1    0    0    0  501 -0.00000000000E+00  0.00000000000E+00  0.16845428822E+02  0.16845428822E+02  0.00000000000E+00 0.  1.
          2   -1    0    0  502    0  0.00000000000E+00 -0.00000000000E+00 -0.24054236674E+04  0.24054236674E+04  0.00000000000E+00 0. -1.
         23    2    1    2    0    0 -0.10180412067E+03  0.86667969290E+02 -0.62420846878E+03  0.64486021353E+03  0.91285632024E+02 0.  0.
         24    2    1    2    0    0  0.12575943144E+02 -0.24316068642E+02 -0.11610241533E+04  0.11643221350E+04  0.83183676869E+02 0.  0.
        -13    1    4    4    0    0  0.20925529440E+02  0.13653221656E+02 -0.12006309304E+03  0.12263537236E+03  0.00000000000E+00 0.  1.
         14    1    4    4    0    0 -0.83495862966E+01 -0.37969290298E+02 -0.10409610602E+04  0.10416867627E+04  0.00000000000E+00 0. -1.
        -11    1    3    3    0    0  0.75204682463E+01  0.41545478084E+02 -0.20409911428E+03  0.20842032685E+03  0.00000000000E+00 0. -1.
         11    1    3    3    0    0 -0.10932458891E+03  0.45122491206E+02 -0.42010935450E+03  0.43643988669E+03  0.00000000000E+00 0.  1.
         21    1    1    2  502  501  0.89228177522E+02 -0.62351900648E+02 -0.60334561653E+03  0.61308674766E+03  0.00000000000E+00 0. -1.
<scales pt_clust_5="13000.00000" pt_clust_6="13000.00000" pt_clust_7="13000.00000" pt_clust_8="13000.00000" pt_clust_9="120.87738"></scales>
<clustering>
<clus scale="   83.184">  5  6 -1 -1</clus>
<clus scale="   87.573">  2  5  1 -1</clus>
<clus scale="   91.286">  7  8 -1 -1</clus>
<clus scale="  120.877">  2  9  1 -1</clus>
<clus scale="   87.573">  2  5  1 -1</clus>
</clustering>
</event>
<event>
 9    2  0.5608219E-005  0.1292575E+03  0.7546771E-02  0.1230022E+00
         -1   -1    0    0    0  501 -0.00000000000E+00  0.00000000000E+00  0.15464535165E+03  0.15464535165E+03  0.00000000000E+00 0.  1.
          2   -1    0    0  502    0  0.00000000000E+00 -0.00000000000E+00 -0.38952089436E+03  0.38952089436E+03  0.00000000000E+00 0. -1.
         23    2    1    2    0    0 -0.19559685773E+02  0.28435718921E+02  0.78089464568E+02  0.12524880010E+03  0.91641289989E+02 0.  0.
         24    2    1    2    0    0  0.99242625154E+02  0.25630849127E+02 -0.29074899446E+03  0.32009378562E+03  0.86133702673E+02 0.  0.
        -13    1    4    4    0    0  0.14575322015E+02  0.30882880082E+02 -0.28544052921E+02  0.44507923465E+02  0.00000000000E+00 0.  1.
         14    1    4    4    0    0  0.84667303139E+02 -0.52520309552E+01 -0.26220494154E+03  0.27558586215E+03  0.00000000000E+00 0. -1.
        -13    1    3    3    0    0 -0.12689254409E+02  0.56681264162E+02  0.76612929219E+02  0.96142206174E+02  0.00000000000E+00 0.  1.
         13    1    3    3    0    0 -0.68704313649E+01 -0.28245545241E+02  0.14765353487E+01  0.29106593922E+02  0.00000000000E+00 0. -1.
         21    1    1    2  502  501 -0.79682939381E+02 -0.54066568048E+02 -0.22216012816E+02  0.98823660296E+02  0.00000000000E+00 0. -1.
<scales pt_clust_5="13000.00000" pt_clust_6="13000.00000" pt_clust_7="13000.00000" pt_clust_8="13000.00000" pt_clust_9="96.29416"></scales>
<clustering>
<clus scale="   86.134">  5  6 -1 -1</clus>
<clus scale="   91.641">  7  8 -1 -1</clus>
<clus scale="   96.294">  1  9  2 -1</clus>
<clus scale="  125.413">  2  5  1 -1</clus>
<clus scale="  125.413">  2  5  1 -1</clus>
</clustering>
</event>
<event>
 9    2  0.5608219E-005  0.1743065E+03  0.7546771E-02  0.1173601E+00
         -1   -1    0    0    0  501 -0.00000000000E+00  0.00000000000E+00  0.59618291875E+02  0.59618291875E+02  0.00000000000E+00 0.  1.
          2   -1    0    0  502    0  0.00000000000E+00 -0.00000000000E+00 -0.64723140337E+03  0.64723140337E+03  0.00000000000E+00 0. -1.
         24    2    1    2    0    0  0.16119321291E+03  0.27392796337E+02 -0.28915296203E+03  0.34427033442E+03  0.90437882146E+02 0.  0.
         23    2    1    2    0    0 -0.13581862360E+03 -0.11590877067E+02 -0.28672603009E+03  0.33046612379E+03  0.91733285632E+02 0.  0.
        -11    1    3    3    0    0  0.96757905664E+02 -0.22732580204E+02 -0.11545071842E+03  0.15234083791E+03  0.00000000000E+00 0.  1.
         12    1    3    3    0    0  0.64435307251E+02  0.50125376541E+02 -0.17370224361E+03  0.19192949651E+03  0.00000000000E+00 0. -1.
        -11    1    4    4    0    0 -0.33877648123E+01 -0.24530062905E+02 -0.87148515058E+02  0.90598369816E+02  0.00000000000E+00 0. -1.
         11    1    4    4    0    0 -0.13243085879E+03  0.12939185838E+02 -0.19957751503E+03  0.23986775397E+03  0.00000000000E+00 0.  1.
         21    1    1    2  502  501 -0.25374589316E+02 -0.15801919270E+02 -0.11734119370E+02  0.32113237036E+02  0.00000000000E+00 0.  1.
<scales pt_clust_5="13000.00000" pt_clust_6="13000.00000" pt_clust_7="13000.00000" pt_clust_8="13000.00000" pt_clust_9="29.89265"></scales>
<clustering>
<clus scale="   29.893">  1  9  2 -1</clus>
<clus scale="   90.438">  5  6 -1 -1</clus>
<clus scale="   91.733">  7  8 -1 -1</clus>
<clus scale="  173.628">  1  5  2 -1</clus>
<clus scale="  174.307">  2  5  1 -1</clus>
</clustering>
</event>
<event>
 9    2  0.5608219E-005  0.1159089E+03  0.7546771E-02  0.1252480E+00
          2   -1    0    0  502    0  0.00000000000E+00  0.00000000000E+00  0.13480911572E+03  0.13480911572E+03  0.00000000000E+00 0. -1.
         -1   -1    0    0    0  501 -0.00000000000E+00 -0.00000000000E+00 -0.13108148890E+03  0.13108148890E+03  0.00000000000E+00 0.  1.
         24    2    1    2    0    0 -0.26724191448E+02  0.54792093556E+02 -0.41750247070E+02  0.11029077071E+03  0.81881713768E+02 0.  0.
         23    2    1    2    0    0  0.47243188905E+02 -0.65814234069E+02  0.52188409505E+02  0.13136044187E+03  0.89266473536E+02 0.  0.
        -11    1    3    3    0    0  0.12437226482E+02  0.58542713440E+02 -0.37720289922E+02  0.70744287199E+02  0.00000000000E+00 0.  1.
         12    1    3    3    0    0 -0.39161417930E+02 -0.37506198841E+01 -0.40299571481E+01  0.39546483515E+02  0.00000000000E+00 0. -1.
        -11    1    4    4    0    0  0.21791330980E+02  0.63214612669E+01 -0.16894471307E+02  0.28288622080E+02  0.00000000000E+00 0.  1.
         11    1    4    4    0    0  0.25451857925E+02 -0.72135695336E+02  0.69082880812E+02  0.10307181979E+03  0.00000000000E+00 0. -1.
         21    1    1    2  502  501 -0.20518997457E+02  0.11022140513E+02 -0.67105356122E+01  0.24239392037E+02  0.00000000000E+00 0. -1.
<scales pt_clust_5="13000.00000" pt_clust_6="13000.00000" pt_clust_7="13000.00000" pt_clust_8="13000.00000" pt_clust_9="23.29199"></scales>
<clustering>
<clus scale="   23.292">  2  9  1 -1</clus>
<clus scale="   81.882">  5  6 -1 -1</clus>
<clus scale="   89.266">  7  8 -1 -1</clus>
<clus scale="  110.322">  2  5  1 -1</clus>
<clus scale="  115.909">  1  5  2 -1</clus>
</clustering>
</event>
<event>
 9    2  0.5608219E-005  0.1062558E+03  0.7546771E-02  0.1273348E+00
          2   -1    0    0  502    0  0.00000000000E+00  0.00000000000E+00  0.89515545506E+03  0.89515545506E+03  0.00000000000E+00 0. -1.
         -1   -1    0    0    0  501 -0.00000000000E+00 -0.00000000000E+00 -0.21009731613E+02  0.21009731613E+02  0.00000000000E+00 0.  1.
         23    2    1    2    0    0  0.44537906686E+02 -0.30950318581E+02  0.21217522073E+03  0.23757631037E+03  0.92101203050E+02 0.  0.
         24    2    1    2    0    0 -0.28838831136E+02  0.45122086521E+02  0.64337478363E+03  0.65042683184E+03  0.79096589709E+02 0.  0.
        -11    1    4    4    0    0  0.12815054420E+02  0.23568384944E+02  0.67356223149E+02  0.72502104698E+02  0.00000000000E+00 0.  1.
         12    1    4    4    0    0 -0.41653885557E+02  0.21553701577E+02  0.57601856048E+03  0.57792472715E+03  0.00000000000E+00 0. -1.
        -13    1    3    3    0    0  0.73084268834E+02 -0.16678371098E+02  0.14770769977E+03  0.16564130821E+03  0.00000000000E+00 0.  1.
         13    1    3    3    0    0 -0.28546362148E+02 -0.14271947483E+02  0.64467520957E+02  0.71935002156E+02  0.00000000000E+00 0. -1.
         21    1    1    2  502  501 -0.15699075550E+02 -0.14171767940E+02  0.18595719085E+02  0.28162044456E+02  0.00000000000E+00 0.  1.
<scales pt_clust_5="13000.00000" pt_clust_6="13000.00000" pt_clust_7="13000.00000" pt_clust_8="13000.00000" pt_clust_9="21.14947"></scales>
<clustering>
<clus scale="   21.149">  2  9  1 -1</clus>
<clus scale="   79.097">  5  6 -1 -1</clus>
<clus scale="   92.101">  7  8 -1 -1</clus>
<clus scale="   95.205">  1  5  2 -1</clus>
<clus scale="   95.205">  1  5  2 -1</clus>
</clustering>
</event>
<event>
 9    2  0.5608219E-005  0.9363237E+02  0.7546771E-02  0.1301071E+00
          2   -1    0    0  502    0  0.00000000000E+00  0.00000000000E+00  0.57764408781E+03  0.57764408781E+03  0.00000000000E+00 0. -1.
         -1   -1    0    0    0  501 -0.00000000000E+00 -0.00000000000E+00 -0.35833244652E+02  0.35833244652E+02  0.00000000000E+00 0.  1.
         24    2    1    2    0    0  0.29688529660E+02 -0.38150890262E+01  0.43722166010E+02  0.94854442887E+02  0.78675115743E+02 0.  0.
         23    2    1    2    0    0 -0.20424301241E+02 -0.15307759909E+02  0.48430685533E+03  0.49329606798E+03  0.90202000897E+02 0.  0.
        -11    1    3    3    0    0  0.30552193310E+02  0.25452573336E+02  0.51012276601E+02  0.64680154371E+02  0.00000000000E+00 0.  1.
         12    1    3    3    0    0 -0.86366364963E+00 -0.29267662362E+02 -0.72901105910E+01  0.30174288516E+02  0.00000000000E+00 0. -1.
        -13    1    4    4    0    0  0.16702802775E+01  0.36858716973E+02  0.17569922175E+03  0.17953153310E+03  0.00000000000E+00 0.  1.
         13    1    4    4    0    0 -0.22094581519E+02 -0.52166476882E+02  0.30860763358E+03  0.31376453488E+03  0.00000000000E+00 0. -1.
         21    1    1    2  502  501 -0.92642284191E+01  0.19122848936E+02  0.13781821816E+02  0.25326821596E+02  0.00000000000E+00 0.  1.
<scales pt_clust_5="13000.00000" pt_clust_6="13000.00000" pt_clust_7="13000.00000" pt_clust_8="13000.00000" pt_clust_9="21.24875"></scales>
<clustering>
<clus scale="   21.249">  2  9  1 -1</clus>
<clus scale="   78.675">  5  6 -1 -1</clus>
<clus scale="   82.586">  2  5  1 -1</clus>
<clus scale="   90.202">  7  8 -1 -1</clus>
<clus scale="   93.632">  1  5  2 -1</clus>
</clustering>
</event>
<event>
 9    2  0.6705655E-005  0.5004594E+03  0.7546771E-02  0.1013659E+00
         -1   -1    0    0    0  501 -0.00000000000E+00  0.00000000000E+00  0.31823147842E+03  0.31823147842E+03  0.00000000000E+00 0.  1.
          2   -1    0    0  502    0  0.00000000000E+00 -0.00000000000E+00 -0.20287901103E+04  0.20287901103E+04  0.00000000000E+00 0. -1.
         24    2    1    2    0    0  0.25765283373E+03 -0.20088572660E+02 -0.20564141966E+02  0.26905399177E+03  0.71962720007E+02 0.  0.
         23    2    1    2    0    0  0.16272642729E+03 -0.11039782475E+03  0.97314229464E+02  0.23725635361E+03  0.90293677642E+02 0.  0.
        -11    1    3    3    0    0  0.24726975344E+03 -0.22100072515E+01 -0.15483059094E+02  0.24776387997E+03  0.00000000000E+00 0.  1.
         12    1    3    3    0    0  0.10383080295E+02 -0.17878565408E+02 -0.50810828720E+01  0.21290111804E+02  0.00000000000E+00 0. -1.
        -13    1    4    4    0    0  0.10245379702E+03 -0.11664197475E+03  0.77397480970E+02  0.17347190221E+03  0.00000000000E+00 0.  1.
         13    1    4    4    0    0  0.60272630275E+02  0.62441499957E+01  0.19916748494E+02  0.63784451397E+02  0.00000000000E+00 0. -1.
         21    1    1    2  502  501 -0.42037926103E+03  0.13048639741E+03 -0.17873087194E+04  0.18407112434E+04  0.00000000000E+00 0. -1.
<scales pt_clust_5="13000.00000" pt_clust_6="13000.00000" pt_clust_7="13000.00000" pt_clust_8="13000.00000" pt_clust_9="440.16522"></scales>
<clustering>
<clus scale="   71.963">  5  6 -1 -1</clus>
<clus scale="   90.294">  7  8 -1 -1</clus>
<clus scale="  176.828">  5  7 -1 -1</clus>
<clus scale="  440.165">  2  9  1 -1</clus>
<clus scale="  440.165">  2  5  1 -1</clus>
</clustering>
</event>
<event>
 9    2  0.5608219E-005  0.1264017E+03  0.7546771E-02  0.1246302E+00
         -1   -1    0    0    0  501 -0.00000000000E+00  0.00000000000E+00  0.23305468726E+03  0.23305468726E+03  0.00000000000E+00 0.  1.
          2   -1    0    0  502    0  0.00000000000E+00 -0.00000000000E+00 -0.28303649128E+03  0.28303649128E+03  0.00000000000E+00 0. -1.
         23    2    1    2    0    0 -0.61363181185E+02  0.42018286903E+02  0.13655735448E+03  0.18120275553E+03  0.93035214353E+02 0.  0.
         24    2    1    2    0    0 -0.38383566415E+02  0.57196741934E+01 -0.20149029267E+03  0.22330050700E+03  0.88083855198E+02 0.  0.
        -13    1    4    4    0    0  0.49257170291E+01  0.30796418579E+02 -0.25356548157E+02  0.40194982523E+02  0.00000000000E+00 0.  1.
         14    1    4    4    0    0 -0.43309283444E+02 -0.25076744386E+02 -0.17613374451E+03  0.18310552448E+03  0.00000000000E+00 0. -1.
        -13    1    3    3    0    0 -0.33091103559E+02  0.69668515812E+02  0.10667360730E+03  0.13163579196E+03  0.00000000000E+00 0.  1.
         13    1    3    3    0    0 -0.28272077626E+02 -0.27650228910E+02  0.29883747175E+02  0.49566963567E+02  0.00000000000E+00 0. -1.
         21    1    1    2  502  501  0.99746747600E+02 -0.47737961096E+02  0.14951134176E+02  0.11158791601E+03  0.00000000000E+00 0. -1.
<scales pt_clust_5="13000.00000" pt_clust_6="13000.00000" pt_clust_7="13000.00000" pt_clust_8="13000.00000" pt_clust_9="85.56771"></scales>
<clustering>
<clus scale="   88.084">  5  6 -1 -1</clus>
<clus scale="   93.035">  7  8 -1 -1</clus>
<clus scale="   96.254">  2  5  1 -1</clus>
<clus scale="   85.568">  2  9  1 -1</clus>
<clus scale="   96.254">  2  5  1 -1</clus>
</clustering>
</event>
<event>
 9    2  0.5608219E-005  0.1232020E+03  0.7546771E-02  0.1239707E+00
         -1   -1    0    0    0  501 -0.00000000000E+00  0.00000000000E+00  0.25885027849E+03  0.25885027849E+03  0.00000000000E+00 0.  1.
          2   -1    0    0  502    0  0.00000000000E+00 -0.00000000000E+00 -0.18800012383E+03  0.18800012383E+03  0.00000000000E+00 0. -1.
         24    2    1    2    0    0 -0.12444645104E+02 -0.56435657588E+02  0.12189420001E+03  0.15768324262E+03  0.81645308309E+02 0.  0.
         23    2    1    2    0    0  0.85878022005E+01  0.90814870955E+02 -0.14290878137E+03  0.19100435985E+03  0.87969622906E+02 0.  0.
        -11    1    3    3    0    0 -0.15376356703E+02 -0.71356250568E+02  0.12235071518E+03  0.14247050342E+03  0.00000000000E+00 0.  1.
         12    1    3    3    0    0  0.29317115993E+01  0.14920592980E+02 -0.45651517248E+00  0.15212739198E+02  0.00000000000E+00 0. -1.
        -11    1    4    4    0    0  0.31683810656E+02  0.95298201870E+02 -0.12965758782E+03  0.16400213784E+03  0.00000000000E+00 0. -1.
         11    1    4    4    0    0 -0.23096008455E+02 -0.44833309151E+01 -0.13251193552E+02  0.27002222005E+02  0.00000000000E+00 0.  1.
         21    1    1    2  502  501  0.38568429032E+01 -0.34379213367E+02  0.91864736023E+02  0.98162799846E+02  0.00000000000E+00 0.  1.
<scales pt_clust_5="13000.00000" pt_clust_6="13000.00000" pt_clust_7="13000.00000" pt_clust_8="13000.00000" pt_clust_9="34.59488"></scales>
<clustering>
<clus scale="   34.595">  1  9  2 -1</clus>
<clus scale="   81.645">  5  6 -1 -1</clus>
<clus scale="   87.970">  7  8 -1 -1</clus>
<clus scale="  118.769">  1  5  2 -1</clus>
<clus scale="  123.202">  2  5  1 -1</clus>
</clustering>
</event>
<event>
 9    2  0.5608219E-005  0.2138412E+03  0.7546771E-02  0.1139301E+00
         -1   -1    0    0    0  501 -0.00000000000E+00  0.00000000000E+00  0.96840498281E+02  0.96840498281E+02  0.00000000000E+00 0.  1.
          2   -1    0    0  502    0  0.00000000000E+00 -0.00000000000E+00 -0.84465512844E+03  0.84465512844E+03  0.00000000000E+00 0. -1.
         23    2    1    2    0    0 -0.36994879554E+02 -0.18365585301E+03 -0.14255118025E+03  0.25216560227E+03  0.90380078108E+02 0.  0.
         24    2    1    2    0    0  0.76904653959E+02  0.18123635860E+03 -0.61272721154E+03  0.64865630095E+03  0.80990231048E+02 0.  0.
        -11    1    4    4    0    0  0.90269361010E+02  0.17675288977E+03 -0.56241457881E+03  0.59640615358E+03  0.00000000000E+00 0.  1.
         12    1    4    4    0    0 -0.13364707052E+02  0.44834688241E+01 -0.50312632736E+02  0.52250147369E+02  0.00000000000E+00 0. -1.
        -13    1    3    3    0    0 -0.26661052343E+02 -0.77345250905E+02 -0.11626987502E+03  0.14216815180E+03  0.00000000000E+00 0.  1.
         13    1    3    3    0    0 -0.10333827211E+02 -0.10631060210E+03 -0.26281305229E+02  0.10999745047E+03  0.00000000000E+00 0. -1.
         21    1    1    2  502  501 -0.39909774405E+02  0.24194944119E+01  0.74637616242E+01  0.40673723506E+02  0.00000000000E+00 0.  1.
<scales pt_clust_5="13000.00000" pt_clust_6="13000.00000" pt_clust_7="13000.00000" pt_clust_8="13000.00000" pt_clust_9="39.98305"></scales>
<clustering>
<clus scale="   39.983">  1  9  2 -1</clus>
<clus scale="   80.990">  5  6 -1 -1</clus>
<clus scale="   90.380">  7  8 -1 -1</clus>
<clus scale="  210.045">  2  5  1 -1</clus>
<clus scale="  210.045">  2  5  1 -1</clus>
</clustering>
</event>
<event>
 9    2  0.5608219E-005  0.1080947E+03  0.7546771E-02  0.1269581E+00
          2   -1    0    0  502    0  0.00000000000E+00  0.00000000000E+00  0.27178550188E+03  0.27178550188E+03  0.00000000000E+00 0. -1.
         -1   -1    0    0    0  501 -0.00000000000E+00 -0.00000000000E+00 -0.37081630547E+03  0.37081630547E+03  0.00000000000E+00 0.  1.
         23    2    1    2    0    0 -0.40866065639E+02  0.36739457112E+02 -0.26332937731E+03  0.28438845840E+03  0.92274651367E+02 0.  0.
         24    2    1    2    0    0 -0.39894148656E+02 -0.42599108166E+02  0.23240998388E+03  0.25240355773E+03  0.79290152179E+02 0.  0.
        -11    1    4    4    0    0 -0.51502290097E+02 -0.54794038336E+02  0.21669653169E+03  0.22937362396E+03  0.00000000000E+00 0.  1.
         12    1    4    4    0    0  0.11608141441E+02  0.12194930169E+02  0.15713452189E+02  0.23029933765E+02  0.00000000000E+00 0. -1.
        -13    1    3    3    0    0 -0.53521933145E+02  0.54860423360E+02 -0.14497465724E+03  0.16398754410E+03  0.00000000000E+00 0.  1.
         13    1    3    3    0    0  0.12655867506E+02 -0.18120966248E+02 -0.11835472007E+03  0.12040091429E+03  0.00000000000E+00 0. -1.
         21    1    1    2  502  501  0.80760214295E+02  0.58596510544E+01 -0.68111410162E+02  0.10580979122E+03  0.00000000000E+00 0. -1.
<scales pt_clust_5="13000.00000" pt_clust_6="13000.00000" pt_clust_7="13000.00000" pt_clust_8="13000.00000" pt_clust_9="80.97251"></scales>
<clustering>
<clus scale="   79.290">  5  6 -1 -1</clus>
<clus scale="   80.973">  2  9  1 -1</clus>
<clus scale="   92.275">  7  8 -1 -1</clus>
<clus scale="   97.246">  1  5  2 -1</clus>
<clus scale="   97.246">  1  5  2 -1</clus>
</clustering>
</event>
<event>
 9    2  0.5608219E-005  0.1447134E+03  0.7546771E-02  0.1208952E+00
         -1   -1    0    0    0  501 -0.00000000000E+00  0.00000000000E+00  0.24462045955E+03  0.24462045955E+03  0.00000000000E+00 0.  1.
          2   -1    0    0  502    0  0.00000000000E+00 -0.00000000000E+00 -0.35398529937E+03  0.35398529937E+03  0.00000000000E+00 0. -1.
         24    2    1    2    0    0 -0.89187365929E+02  0.13492123022E+02  0.19709190567E+03  0.23173875358E+03  0.81982967788E+02 0.  0.
         23    2    1    2    0    0  0.11421306587E+03  0.41759117320E+01 -0.30252667787E+03  0.33598188690E+03  0.91100904770E+02 0.  0.
        -11    1    3    3    0    0  0.22106977803E+01  0.21133910027E+02  0.81259313585E+02  0.83991698292E+02  0.00000000000E+00 0.  1.
         12    1    3    3    0    0 -0.91398063709E+02 -0.76417870041E+01  0.11583259208E+03  0.14774705529E+03  0.00000000000E+00 0. -1.
        -11    1    4    4    0    0  0.76325501753E+02 -0.35270318264E+02 -0.12850896198E+03  0.15357125667E+03  0.00000000000E+00 0.  1.
         11    1    4    4    0    0  0.37887564114E+02  0.39446229996E+02 -0.17401771589E+03  0.18241063023E+03  0.00000000000E+00 0. -1.
         21    1    1    2  502  501 -0.25025699938E+02 -0.17668034754E+02 -0.39300676276E+01  0.30885118440E+02  0.00000000000E+00 0.  1.
<scales pt_clust_5="13000.00000" pt_clust_6="13000.00000" pt_clust_7="13000.00000" pt_clust_8="13000.00000" pt_clust_9="30.63405"></scales>
<clustering>
<clus scale="   30.634">  1  9  2 -1</clus>
<clus scale="   81.983">  5  6 -1 -1</clus>
<clus scale="   91.101">  7  8 -1 -1</clus>
<clus scale="  139.154">  1  5  2 -1</clus>
<clus scale="  144.713">  2  5  1 -1</clus>
</clustering>
</event>
<event>
 9    2  0.1013231E-004  0.1086136E+03  0.7546771E-02  0.1269280E+00
         -1   -1    0    0    0  501 -0.00000000000E+00  0.00000000000E+00  0.26550093733E+03  0.26550093733E+03  0.00000000000E+00 0.  1.
          2   -1    0    0  502    0  0.00000000000E+00 -0.00000000000E+00 -0.75690773093E+03  0.75690773093E+03  0.00000000000E+00 0. -1.
         23    2    1    2    0    0 -0.40457898366E+02 -0.76177645597E+02  0.22945605840E+03  0.26222327417E+03  0.93118674553E+02 0.  0.
         24    2    1    2    0    0  0.18631047139E+02  0.52307663392E+02 -0.72144999994E+03  0.72783524375E+03  0.78554643773E+02 0.  0.
        -11    1    4    4    0    0  0.61444312126E+01  0.56721577025E+02 -0.25960481884E+03  0.26580021313E+03  0.00000000000E+00 0.  1.
         12    1    4    4    0    0  0.12486615926E+02 -0.44139136330E+01 -0.46184518110E+03  0.46203503062E+03  0.00000000000E+00 0. -1.
        -11    1    3    3    0    0  0.71982918189E+01 -0.78754057975E+02  0.14858598368E+03  0.16832056202E+03  0.00000000000E+00 0. -1.
         11    1    3    3    0    0 -0.47656190185E+02  0.25764123781E+01  0.80870074724E+02  0.93902712152E+02  0.00000000000E+00 0.  1.
         21    1    1    2  502  501  0.21826851227E+02  0.23869982206E+02  0.58714794174E+00  0.32350150350E+02  0.00000000000E+00 0. -1.
<scales pt_clust_5="13000.00000" pt_clust_6="13000.00000" pt_clust_7="13000.00000" pt_clust_8="13000.00000" pt_clust_9="32.34482"></scales>
<clustering>
<clus scale="   32.345">  1  9  2 -1</clus>
<clus scale="   78.555">  5  6 -1 -1</clus>
<clus scale="   93.119">  7  8 -1 -1</clus>
<clus scale="   96.419">  2  5  1 -1</clus>
<clus scale="   96.419">  2  5  1 -1</clus>
</clustering>
</event>
<event>
 9    2  0.5608219E-005  0.1036737E+03  0.7546771E-02  0.1275937E+00
         -1   -1    0    0    0  501 -0.00000000000E+00  0.00000000000E+00  0.64949826371E+03  0.64949826371E+03  0.00000000000E+00 0.  1.
          2   -1    0    0  502    0  0.00000000000E+00 -0.00000000000E+00 -0.46269433466E+02  0.46269433466E+02  0.00000000000E+00 0. -1.
         24    2    1    2    0    0 -0.10288744671E+03  0.26506059084E+02  0.39395261044E+03  0.41531264312E+03  0.77443749913E+02 0.  0.
         23    2    1    2    0    0  0.34631448233E+02 -0.38380657858E+02  0.60856405945E+02  0.11666149933E+03  0.85052872832E+02 0.  0.
        -13    1    3    3    0    0 -0.16604100000E+02 -0.22099948525E+02  0.47232226535E+02  0.54726475175E+02  0.00000000000E+00 0.  1.
         14    1    3    3    0    0 -0.86283346715E+02  0.48606007609E+02  0.34672038390E+03  0.36058616794E+03  0.00000000000E+00 0. -1.
        -13    1    4    4    0    0  0.33548450862E+02 -0.67702762521E+01  0.74676021999E+02  0.82145258276E+02  0.00000000000E+00 0.  1.
         13    1    4    4    0    0  0.10829973712E+01 -0.31610381606E+02 -0.13819616054E+02  0.34516241053E+02  0.00000000000E+00 0. -1.
         21    1    1    2  502  501  0.68255998482E+02  0.11874598774E+02  0.14841981386E+03  0.16379355473E+03  0.00000000000E+00 0.  1.
<scales pt_clust_5="13000.00000" pt_clust_6="13000.00000" pt_clust_7="13000.00000" pt_clust_8="13000.00000" pt_clust_9="69.28122"></scales>
<clustering>
<clus scale="   69.281">  1  9  2 -1</clus>
<clus scale="   77.444">  5  6 -1 -1</clus>
<clus scale="   85.053">  7  8 -1 -1</clus>
<clus scale="   97.528">  1  5  2 -1</clus>
<clus scale="  103.674">  2  5  1 -1</clus>
</clustering>
</event>
<event>
 9    2  0.5608219E-005  0.9242958E+02  0.7546771E-02  0.1302688E+00
         -1   -1    0    0    0  501 -0.00000000000E+00  0.00000000000E+00  0.62917215574E+02  0.62917215574E+02  0.00000000000E+00 0.  1.
          2   -1    0    0  502    0  0.00000000000E+00 -0.00000000000E+00 -0.46538454946E+03  0.46538454946E+03  0.00000000000E+00 0. -1.
         23    2    1    2    0    0  0.53309918388E+02 -0.46193551846E+02 -0.56386928509E+02  0.12867235844E+03  0.91658597459E+02 0.  0.
         24    2    1    2    0    0 -0.35749154139E+01 -0.14013786958E+02 -0.29417134382E+03  0.30585816986E+03  0.82481963508E+02 0.  0.
        -11    1    4    4    0    0 -0.14460398765E+02  0.29654797706E+02 -0.72351522327E+02  0.79518884187E+02  0.00000000000E+00 0.  1.
         12    1    4    4    0    0  0.10885483351E+02 -0.43668584664E+02 -0.22181982149E+03  0.22633928567E+03  0.00000000000E+00 0. -1.
        -13    1    3    3    0    0  0.17276536447E+02 -0.61422551804E+02 -0.62219478662E+02  0.89120548173E+02  0.00000000000E+00 0.  1.
         13    1    3    3    0    0  0.36033381941E+02  0.15228999958E+02  0.58325501531E+01  0.39551810263E+02  0.00000000000E+00 0. -1.
         21    1    1    2  502  501 -0.49735002974E+02  0.60207338804E+02 -0.51909061563E+02  0.93771236736E+02  0.00000000000E+00 0. -1.
<scales pt_clust_5="13000.00000" pt_clust_6="13000.00000" pt_clust_7="13000.00000" pt_clust_8="13000.00000" pt_clust_9="78.09286"></scales>
<clustering>
<clus scale="   78.093">  1  9  2 -1</clus>
<clus scale="   82.482">  5  6 -1 -1</clus>
<clus scale="   83.338">  2  5  1 -1</clus>
<clus scale="   91.659">  7  8 -1 -1</clus>
<clus scale="   83.338">  2  5  1 -1</clus>
</clustering>
</event>
<event>
 9    2  0.5608219E-005  0.9691160E+02  0.7546771E-02  0.1294343E+00
         -1   -1    0    0    0  501 -0.00000000000E+00  0.00000000000E+00  0.83759361748E+02  0.83759361748E+02  0.00000000000E+00 0.  1.
          2   -1    0    0  502    0  0.00000000000E+00 -0.00000000000E+00 -0.36882425700E+03  0.36882425700E+03  0.00000000000E+00 0. -1.
         24    2    1    2    0    0 -0.28527402807E+00  0.28658317912E+02  0.18669416395E+02  0.87080447264E+02  0.80081687172E+02 0.  0.
         23    2    1    2    0    0 -0.18264168756E+02 -0.20074519219E+02 -0.32308519792E+03  0.33735676449E+03  0.93214672930E+02 0.  0.
        -13    1    3    3    0    0  0.37749354440E+02  0.23756479528E+02  0.19602175704E+02  0.48719907354E+02  0.00000000000E+00 0.  1.
         14    1    3    3    0    0 -0.38034628468E+02  0.49018383838E+01 -0.93275930924E+00  0.38360539910E+02  0.00000000000E+00 0. -1.
        -13    1    4    4    0    0 -0.25120973884E+02  0.29722176617E+02 -0.77992184245E+02  0.87162216097E+02  0.00000000000E+00 0. -1.
         13    1    4    4    0    0  0.68568051272E+01 -0.49796695836E+02 -0.24509301367E+03  0.25019454839E+03  0.00000000000E+00 0.  1.
         21    1    1    2  502  501  0.18549442785E+02 -0.85837986934E+01  0.19350886268E+02  0.28146406999E+02  0.00000000000E+00 0. -1.
<scales pt_clust_5="13000.00000" pt_clust_6="13000.00000" pt_clust_7="13000.00000" pt_clust_8="13000.00000" pt_clust_9="20.43926"></scales>
<clustering>
<clus scale="   20.439">  1  9  2 -1</clus>
<clus scale="   80.082">  5  6 -1 -1</clus>
<clus scale="   84.356">  1  5  2 -1</clus>
<clus scale="   93.215">  7  8 -1 -1</clus>
<clus scale="   96.912">  2  5  1 -1</clus>
</clustering>
</event>
<event>
 9    2  0.5608219E-005  0.1578110E+03  0.7546771E-02  0.1192596E+00
          2   -1    0    0  502    0  0.00000000000E+00  0.00000000000E+00  0.67010934673E+03  0.67010934673E+03  0.00000000000E+00 0. -1.
         -1   -1    0    0    0  501 -0.00000000000E+00 -0.00000000000E+00 -0.14341182795E+03  0.14341182795E+03  0.00000000000E+00 0.  1.
         23    2    1    2    0    0  0.24102301531E+02  0.14143868199E+03 -0.69534372267E+02  0.18367677064E+03  0.91193779644E+02 0.  0.
         24    2    1    2    0    0 -0.24809345215E+01 -0.12774616410E+03  0.57980648485E+03  0.59943449568E+03  0.82588844670E+02 0.  0.
        -11    1    4    4    0    0 -0.30558215114E+02 -0.20369320459E+02  0.21515504364E+03  0.21826682417E+03  0.00000000000E+00 0.  1.
         12    1    4    4    0    0  0.28077280592E+02 -0.10737684364E+03  0.36465144120E+03  0.38116767152E+03  0.00000000000E+00 0. -1.
        -13    1    3    3    0    0  0.56934997240E+02  0.94709727784E+02 -0.30963912942E+02  0.11476188545E+03  0.00000000000E+00 0.  1.
         13    1    3    3    0    0 -0.32832695709E+02  0.46728954205E+02 -0.38570459325E+02  0.68914885193E+02  0.00000000000E+00 0. -1.
         21    1    1    2  502  501 -0.21621367010E+02 -0.13692517890E+02  0.16425406191E+02  0.30409908354E+02  0.00000000000E+00 0. -1.
<scales pt_clust_5="13000.00000" pt_clust_6="13000.00000" pt_clust_7="13000.00000" pt_clust_8="13000.00000" pt_clust_9="25.59235"></scales>
<clustering>
<clus scale="   25.592">  2  9  1 -1</clus>
<clus scale="   82.589">  5  6 -1 -1</clus>
<clus scale="   91.194">  7  8 -1 -1</clus>
<clus scale="  153.000">  1  5  2 -1</clus>
<clus scale="  153.000">  1  5  2 -1</clus>
</clustering>
</event>
<event>
 9    2  0.5608219E-005  0.1314236E+03  0.7546771E-02  0.1228150E+00
          2   -1    0    0  502    0  0.00000000000E+00  0.00000000000E+00  0.96481964022E+03  0.96481964022E+03  0.00000000000E+00 0. -1.
         -1   -1    0    0    0  501 -0.00000000000E+00 -0.00000000000E+00 -0.36239099941E+02  0.36239099941E+02  0.00000000000E+00 0.  1.
         23    2    1    2    0    0 -0.51409720223E+02 -0.30925489451E+02  0.18807803511E+03  0.21952726212E+03  0.96018364362E+02 0.  0.
         24    2    1    2    0    0  0.19514907293E+02  0.11366993444E+03  0.58640216237E+03  0.60373710827E+03  0.85611414390E+02 0.  0.
        -13    1    4    4    0    0  0.11420764393E+02  0.66941631847E+02  0.14869241738E+03  0.16346574846E+03  0.00000000000E+00 0.  1.
         14    1    4    4    0    0  0.80941429002E+01  0.46728302588E+02  0.43770974499E+03  0.44027135982E+03  0.00000000000E+00 0. -1.
        -11    1    3    3    0    0 -0.80853650739E+01 -0.32166744117E+02  0.16891030627E+03  0.17213588853E+03  0.00000000000E+00 0.  1.
         11    1    3    3    0    0 -0.43324355149E+02  0.12412546656E+01  0.19167728833E+02  0.47391373591E+02  0.00000000000E+00 0. -1.
         21    1    1    2  502  501  0.31894812930E+02 -0.82744444984E+02  0.15410034280E+03  0.17779436976E+03  0.00000000000E+00 0.  1.
<scales pt_clust_5="13000.00000" pt_clust_6="13000.00000" pt_clust_7="13000.00000" pt_clust_8="13000.00000" pt_clust_9="88.67876"></scales>
<clustering>
<clus scale="   85.611">  5  6 -1 -1</clus>
<clus scale="   88.679">  2  9  1 -1</clus>
<clus scale="   96.018">  7  8 -1 -1</clus>
<clus scale="  124.024">  1  5  2 -1</clus>
<clus scale="  124.024">  1  5  2 -1</clus>
</clustering>
</event>
<event>
 9    2  0.5608219E-005  0.2941996E+03  0.7546771E-02  0.1088547E+00
         -1   -1    0    0    0  501 -0.00000000000E+00  0.00000000000E+00  0.63910784032E+02  0.63910784032E+02  0.00000000000E+00 0.  1.
          2   -1    0    0  502    0  0.00000000000E+00 -0.00000000000E+00 -0.19548150984E+04  0.19548150984E+04  0.00000000000E+00 0. -1.
         24    2    1    2    0    0  0.16361555944E+03 -0.16105061549E+03 -0.48599056246E+03  0.54363292493E+03  0.81502013637E+02 0.  0.
         23    2    1    2    0    0 -0.20777243055E+03  0.23831773268E+03 -0.12806096970E+04  0.13222154421E+04  0.91256531325E+02 0.  0.
        -13    1    3    3    0    0  0.30685572225E+01 -0.45871773494E+02 -0.87286246115E+02  0.98653557502E+02  0.00000000000E+00 0.  1.
         14    1    3    3    0    0  0.16054700221E+03 -0.11517884199E+03 -0.39870431634E+03  0.44497936742E+03  0.00000000000E+00 0. -1.
        -11    1    4    4    0    0 -0.84900413850E+02  0.16399744535E+03 -0.67410322700E+03  0.69894091525E+03  0.00000000000E+00 0.  1.
         11    1    4    4    0    0 -0.12287201670E+03  0.74320287328E+02 -0.60650647004E+03  0.62327452683E+03  0.00000000000E+00 0. -1.
         21    1    1    2  502  501  0.44156871117E+02 -0.77267117187E+02 -0.12430405485E+03  0.15287751541E+03  0.00000000000E+00 0.  1.
<scales pt_clust_5="13000.00000" pt_clust_6="13000.00000" pt_clust_7="13000.00000" pt_clust_8="13000.00000" pt_clust_9="88.99459"></scales>
<clustering>
<clus scale="   81.502">  5  6 -1 -1</clus>
<clus scale="   88.995">  1  9  2 -1</clus>
<clus scale="   91.257">  7  8 -1 -1</clus>
<clus scale="  291.322">  1  5  2 -1</clus>
<clus scale="  294.200">  2  5  1 -1</clus>
</clustering>
</event>
<event>
 9    2  0.5608219E-005  0.1443560E+03  0.7546771E-02  0.1209576E+00
         -1   -1    0    0    0  501 -0.00000000000E+00  0.00000000000E+00  0.77277340668E+03  0.77277340668E+03  0.00000000000E+00 0.  1.
          2   -1    0    0  502    0  0.00000000000E+00 -0.00000000000E+00 -0.65946685769E+03  0.65946685769E+03  0.00000000000E+00 0. -1.
         23    2    1    2    0    0 -0.21179585619E+02 -0.50211889583E+02  0.47606967575E+03  0.48772808206E+03  0.90920499105E+02 0.  0.
         24    2    1    2    0    0  0.20244410409E+02  0.11120679550E+03 -0.64292083240E+03  0.65779002912E+03  0.81016900460E+02 0.  0.
        -13    1    4    4    0    0 -0.29525771174E+02  0.48567769789E+02 -0.21096075886E+03  0.21848350328E+03  0.00000000000E+00 0.  1.
         14    1    4    4    0    0  0.49770181583E+02  0.62639025714E+02 -0.43196007354E+03  0.43930652585E+03  0.00000000000E+00 0. -1.
        -11    1    3    3    0    0  0.32445447545E+02 -0.29167962823E+02  0.13638552507E+03  0.14319388454E+03  0.00000000000E+00 0.  1.
         11    1    3    3    0    0 -0.53625033164E+02 -0.21043926760E+02  0.33968415068E+03  0.34453419752E+03  0.00000000000E+00 0. -1.
         21    1    1    2  502  501  0.93517520998E+00 -0.60994905919E+02  0.28015770564E+03  0.28672215319E+03  0.00000000000E+00 0. -1.
<scales pt_clust_5="13000.00000" pt_clust_6="13000.00000" pt_clust_7="13000.00000" pt_clust_8="13000.00000" pt_clust_9="61.00207"></scales>
<clustering>
<clus scale="   61.002">  1  9  2 -1</clus>
<clus scale="   81.017">  5  6 -1 -1</clus>
<clus scale="   90.920">  7  8 -1 -1</clus>
<clus scale="  138.332">  2  5  1 -1</clus>
<clus scale="  138.332">  2  5  1 -1</clus>
</clustering>
</event>
<event>
 9    2  0.5608219E-005  0.1096035E+03  0.7546771E-02  0.1262588E+00
         -1   -1    0    0    0  501 -0.00000000000E+00  0.00000000000E+00  0.28468287854E+03  0.28468287854E+03  0.00000000000E+00 0.  1.
          2   -1    0    0  502    0  0.00000000000E+00 -0.00000000000E+00 -0.18812991844E+03  0.18812991844E+03  0.00000000000E+00 0. -1.
         23    2    1    2    0    0  0.42610797412E+02 -0.56029795098E+01  0.10393130965E+02  0.96208634273E+02  0.85445951935E+02 0.  0.
         24    2    1    2    0    0 -0.79758824103E+02 -0.50578946158E+01 -0.12059953908E+03  0.16626380408E+03  0.81928941163E+02 0.  0.
        -13    1    4    4    0    0 -0.50238131350E+02 -0.30764276748E+02 -0.11145473776E+03  0.12606533677E+03  0.00000000000E+00 0.  1.
         14    1    4    4    0    0 -0.29520692753E+02  0.25706382132E+02 -0.91448013207E+01  0.40198467311E+02  0.00000000000E+00 0. -1.
        -13    1    3    3    0    0  0.65448229963E+02  0.26622795476E+01 -0.76573065510E+01  0.65948410756E+02  0.00000000000E+00 0.  1.
         13    1    3    3    0    0 -0.22837432551E+02 -0.82652590574E+01  0.18050437516E+02  0.30260223517E+02  0.00000000000E+00 0. -1.
         21    1    1    2  502  501  0.37148026691E+02  0.10660874126E+02  0.20675936822E+03  0.21034035863E+03  0.00000000000E+00 0.  1.
<scales pt_clust_5="13000.00000" pt_clust_6="13000.00000" pt_clust_7="13000.00000" pt_clust_8="13000.00000" pt_clust_9="38.64751"></scales>
<clustering>
<clus scale="   38.648">  1  9  2 -1</clus>
<clus scale="   81.929">  5  6 -1 -1</clus>
<clus scale="   85.446">  7  8 -1 -1</clus>
<clus scale="  106.884">  2  5  1 -1</clus>
<clus scale="  106.884">  2  5  1 -1</clus>
</clustering>
</event>
<event>
 9    2  0.5608219E-005  0.1054803E+03  0.7546771E-02  0.1274910E+00
          2   -1    0    0  502    0  0.00000000000E+00  0.00000000000E+00  0.11380600979E+03  0.11380600979E+03  0.00000000000E+00 0. -1.
         -1   -1    0    0    0  501 -0.00000000000E+00 -0.00000000000E+00 -0.18643758664E+03  0.18643758664E+03  0.00000000000E+00 0.  1.
         23    2    1    2    0    0 -0.86877016903E+02  0.16850368825E+02 -0.85173953038E+02  0.15331752610E+03  0.91761160292E+02 0.  0.
         24    2    1    2    0    0  0.36747871801E+02 -0.22156669427E+02  0.28308964721E+02  0.94108712108E+02  0.78827204245E+02 0.  0.
        -11    1    4    4    0    0  0.23081069314E+02  0.21251594689E+02 -0.11728082459E+02  0.33494984037E+02  0.00000000000E+00 0.  1.
         12    1    4    4    0    0  0.13666802486E+02 -0.43408264116E+02  0.40037047180E+02  0.60613728071E+02  0.00000000000E+00 0. -1.
        -13    1    3    3    0    0 -0.77724168191E+02 -0.25353911683E+02 -0.69732311024E+02  0.10745446645E+03  0.00000000000E+00 0. -1.
         13    1    3    3    0    0 -0.91528487118E+01  0.42204280508E+02 -0.15441642013E+02  0.45863059654E+02  0.00000000000E+00 0.  1.
         21    1    1    2  502  501  0.50129145102E+02  0.53063006018E+01 -0.15766588535E+02  0.52817358215E+02  0.00000000000E+00 0.  1.
<scales pt_clust_5="13000.00000" pt_clust_6="13000.00000" pt_clust_7="13000.00000" pt_clust_8="13000.00000" pt_clust_9="50.40921"></scales>
<clustering>
<clus scale="   50.409">  2  9  1 -1</clus>
<clus scale="   78.827">  5  6 -1 -1</clus>
<clus scale="   91.761">  7  8 -1 -1</clus>
<clus scale="   94.444">  1  5  2 -1</clus>
<clus scale="   94.444">  1  5  2 -1</clus>
</clustering>
</event>
<event>
 9    2  0.5608219E-005  0.9306118E+02  0.7546771E-02  0.1297186E+00
          2   -1    0    0  502    0  0.00000000000E+00  0.00000000000E+00  0.15965057731E+03  0.15965057731E+03  0.00000000000E+00 0. -1.
         -1   -1    0    0    0  501 -0.00000000000E+00 -0.00000000000E+00 -0.15929380154E+03  0.15929380154E+03  0.00000000000E+00 0.  1.
         24    2    1    2    0    0 -0.73009996520E+01  0.45665675280E+02 -0.63030899159E+02  0.11587827939E+03  0.85534922052E+02 0.  0.
         23    2    1    2    0    0  0.33104130494E+02  0.21396231857E+02  0.84187070703E+02  0.12826158212E+03  0.88373572868E+02 0.  0.
        -11    1    3    3    0    0 -0.78113979746E+01  0.37699585956E+02 -0.84562606145E+02  0.92914536417E+02  0.00000000000E+00 0.  1.
         12    1    3    3    0    0  0.51039832264E+00  0.79660893246E+01  0.21531706985E+02  0.22963742972E+02  0.00000000000E+00 0. -1.
        -11    1    4    4    0    0  0.21614769277E+02  0.42280138819E+02  0.91703917519E+02  0.10326866358E+03  0.00000000000E+00 0.  1.
         11    1    4    4    0    0  0.11489361217E+02 -0.20883906962E+02 -0.75168468157E+01  0.24992918541E+02  0.00000000000E+00 0. -1.
         21    1    1    2  502  501 -0.25803130842E+02 -0.67061907137E+02 -0.20799395766E+02  0.74804517339E+02  0.00000000000E+00 0. -1.
<scales pt_clust_5="13000.00000" pt_clust_6="13000.00000" pt_clust_7="13000.00000" pt_clust_8="13000.00000" pt_clust_9="71.85472"></scales>
<clustering>
<clus scale="   71.855">  2  9  1 -1</clus>
<clus scale="   85.535">  5  6 -1 -1</clus>
<clus scale="   88.374">  7  8 -1 -1</clus>
<clus scale="   90.370">  2  5  1 -1</clus>
<clus scale="   93.061">  1  5  2 -1</clus>
</clustering>
</event>
<event>
 9    2  0.5608219E-005  0.1112965E+03  0.7546771E-02  0.1261553E+00
         -1   -1    0    0    0  501 -0.00000000000E+00  0.00000000000E+00  0.16128262626E+03  0.16128262626E+03  0.00000000000E+00 0.  1.
          2   -1    0    0  502    0  0.00000000000E+00 -0.00000000000E+00 -0.14133626138E+03  0.14133626138E+03  0.00000000000E+00 0. -1.
         24    2    1    2    0    0 -0.10661623648E+02 -0.55221288282E+02  0.32848124269E+02  0.10223347611E+03  0.78801164147E+02 0.  0.
         23    2    1    2    0    0  0.80464474866E+02  0.39072891501E+02 -0.24367577252E+02  0.12782734006E+03  0.88004701460E+02 0.  0.
        -13    1    3    3    0    0  0.10933530768E+02 -0.57246140725E+02  0.48224942022E+02  0.75645936811E+02  0.00000000000E+00 0.  1.
         14    1    3    3    0    0 -0.21595154417E+02  0.20248524440E+01 -0.15376817752E+02  0.26587539298E+02  0.00000000000E+00 0. -1.
        -11    1    4    4    0    0 -0.80521531866E+01  0.21193690628E+02  0.17158506329E+02  0.28432798540E+02  0.00000000000E+00 0.  1.
         11    1    4    4    0    0  0.88516628053E+02  0.17879200873E+02 -0.41526083581E+02  0.99394541517E+02  0.00000000000E+00 0. -1.
         21    1    1    2  502  501 -0.69802851218E+02  0.16148396780E+02  0.11465817857E+02  0.72558071473E+02  0.00000000000E+00 0. -1.
<scales pt_clust_5="13000.00000" pt_clust_6="13000.00000" pt_clust_7="13000.00000" pt_clust_8="13000.00000" pt_clust_9="71.64641"></scales>
<clustering>
<clus scale="   71.646">  1  9  2 -1</clus>
<clus scale="   78.801">  5  6 -1 -1</clus>
<clus scale="   88.005">  7  8 -1 -1</clus>
<clus scale="  104.171">  1  5  2 -1</clus>
<clus scale="  111.296">  2  5  1 -1</clus>
</clustering>
</event>
<event>
 9    2  0.5608219E-005  0.1311725E+03  0.7546771E-02  0.1228167E+00
          2   -1    0    0  502    0  0.00000000000E+00  0.00000000000E+00  0.12570660603E+04  0.12570660603E+04  0.00000000000E+00 0. -1.
         -1   -1    0    0    0  501 -0.00000000000E+00 -0.00000000000E+00 -0.29727758382E+02  0.29727758382E+02  0.00000000000E+00 0.  1.
         24    2    1    2    0    0 -0.55521239559E+02  0.91847198446E+02  0.31965502783E+03  0.34667092052E+03  0.80516299060E+02 0.  0.
         23    2    1    2    0    0 -0.38772731666E+02 -0.96575383572E+02  0.67696731307E+03  0.69083679062E+03  0.90225267387E+02 0.  0.
        -11    1    3    3    0    0 -0.69704681090E+02  0.93599165318E+02  0.25471891006E+03  0.28018077995E+03  0.00000000000E+00 0.  1.
         12    1    3    3    0    0  0.14183441531E+02 -0.17519668726E+01  0.64936117770E+02  0.66490140567E+02  0.00000000000E+00 0. -1.
        -13    1    4    4    0    0  0.26844712693E+02 -0.12275981061E+02  0.10991956285E+03  0.11381409670E+03  0.00000000000E+00 0.  1.
         13    1    4    4    0    0 -0.65617444359E+02 -0.84299402511E+02  0.56704775022E+03  0.57702269392E+03  0.00000000000E+00 0. -1.
         21    1    1    2  502  501  0.94293971225E+02  0.47281851264E+01  0.23071596102E+03  0.24928610754E+03  0.00000000000E+00 0.  1.
<scales pt_clust_5="13000.00000" pt_clust_6="13000.00000" pt_clust_7="13000.00000" pt_clust_8="13000.00000" pt_clust_9="94.41244"></scales>
<clustering>
<clus scale="   80.516">  5  6 -1 -1</clus>
<clus scale="   90.225">  7  8 -1 -1</clus>
<clus scale="   94.412">  2  9  1 -1</clus>
<clus scale="  124.694">  2  5  1 -1</clus>
<clus scale="  131.172">  1  5  2 -1</clus>
</clustering>
</event>
<event>
 9    2  0.5608219E-005  0.9778995E+02  0.7546771E-02  0.1290135E+00
          2   -1    0    0  502    0  0.00000000000E+00  0.00000000000E+00  0.49732895469E+03  0.49732895469E+03  0.00000000000E+00 0. -1.
         -1   -1    0    0    0  501 -0.00000000000E+00 -0.00000000000E+00 -0.22736253768E+03  0.22736253768E+03  0.00000000000E+00 0.  1.
         24    2    1    2    0    0  0.36083980989E+02  0.16845538201E+02 -0.14440809058E+03  0.17104009165E+03  0.82554166979E+02 0.  0.
         23    2    1    2    0    0  0.30319310853E+02  0.17803374729E+02  0.45696680473E+03  0.46748848461E+03  0.92144461885E+02 0.  0.
        -11    1    3    3    0    0  0.47967543036E+02  0.41107599289E+02 -0.86217503188E+02  0.10688394529E+03  0.00000000000E+00 0.  1.
         12    1    3    3    0    0 -0.11883562046E+02 -0.24262061089E+02 -0.58190587392E+02  0.64156146363E+02  0.00000000000E+00 0. -1.
        -13    1    4    4    0    0  0.56960216485E+02 -0.10726984313E+02  0.23009371282E+03  0.23728179688E+03  0.00000000000E+00 0.  1.
         13    1    4    4    0    0 -0.26640905632E+02  0.28530359042E+02  0.22687309192E+03  0.23020668773E+03  0.00000000000E+00 0. -1.
         21    1    1    2  502  501 -0.66403291843E+02 -0.34648912930E+02 -0.42592297145E+02  0.86162916100E+02  0.00000000000E+00 0.  1.
<scales pt_clust_5="13000.00000" pt_clust_6="13000.00000" pt_clust_7="13000.00000" pt_clust_8="13000.00000" pt_clust_9="74.89956"></scales>
<clustering>
<clus scale="   74.900">  2  9  1 -1</clus>
<clus scale="   82.554">  5  6 -1 -1</clus>
<clus scale="   88.811">  2  5  1 -1</clus>
<clus scale="   92.144">  7  8 -1 -1</clus>
<clus scale="   97.790">  1  5  2 -1</clus>
</clustering>
</event>
<event>
 9    2  0.5608219E-005  0.1012106E+03  0.7546771E-02  0.1281323E+00
          2   -1    0    0  502    0  0.00000000000E+00  0.00000000000E+00  0.10356863390E+04  0.10356863390E+04  0.00000000000E+00 0. -1.
         -1   -1    0    0    0  501 -0.00000000000E+00 -0.00000000000E+00 -0.35375081091E+02  0.35375081091E+02  0.00000000000E+00 0.  1.
         23    2    1    2    0    0  0.19022464888E+02 -0.22215335378E+02  0.13411157248E+03  0.16323612848E+03  0.88344464866E+02 0.  0.
         24    2    1    2    0    0 -0.16713666740E+02  0.50769223859E+02  0.87302824184E+03  0.87837560096E+03  0.80675427300E+02 0.  0.
        -13    1    4    4    0    0  0.28052652089E+02  0.18563537778E+02  0.17714251831E+03  0.18030814740E+03  0.00000000000E+00 0.  1.
         14    1    4    4    0    0 -0.44766318829E+02  0.32205686081E+02  0.69588572353E+03  0.69806745357E+03  0.00000000000E+00 0. -1.
        -11    1    3    3    0    0  0.47280707302E+02 -0.17801960567E+02  0.38728856120E+02  0.63657673374E+02  0.00000000000E+00 0.  1.
         11    1    3    3    0    0 -0.28258242414E+02 -0.44133748109E+01  0.95382716361E+02  0.99578455109E+02  0.00000000000E+00 0. -1.
         21    1    1    2  502  501 -0.23087981481E+01 -0.28553888481E+02 -0.68285564142E+01  0.29449690643E+02  0.00000000000E+00 0.  1.
<scales pt_clust_5="13000.00000" pt_clust_6="13000.00000" pt_clust_7="13000.00000" pt_clust_8="13000.00000" pt_clust_9="28.64708"></scales>
<clustering>
<clus scale="   28.647">  2  9  1 -1</clus>
<clus scale="   80.675">  5  6 -1 -1</clus>
<clus scale="   88.344">  7  8 -1 -1</clus>
<clus scale="   94.590">  1  5  2 -1</clus>
<clus scale="   94.590">  1  5  2 -1</clus>
</clustering>
</event>
<event>
 9    2  0.5608219E-005  0.1107422E+03  0.7546771E-02  0.1263269E+00
          2   -1    0    0  502    0  0.00000000000E+00  0.00000000000E+00  0.14926698235E+03  0.14926698235E+03  0.00000000000E+00 0. -1.
         -1   -1    0    0    0  501 -0.00000000000E+00 -0.00000000000E+00 -0.30265468079E+03  0.30265468079E+03  0.00000000000E+00 0.  1.
         23    2    1    2    0    0  0.22336963277E+02  0.16472301747E+01 -0.93982456533E+02  0.13280794169E+03  0.91124057991E+02 0.  0.
         24    2    1    2    0    0 -0.51980910777E+02  0.51171114270E+02  0.10055140840E+03  0.14807375212E+03  0.80590026141E+02 0.  0.
        -13    1    4    4    0    0 -0.24467879813E+02  0.20461318769E+02 -0.72039680710E+01  0.32699233390E+02  0.00000000000E+00 0.  1.
         14    1    4    4    0    0 -0.27513030964E+02  0.30709795501E+02  0.10775537647E+03  0.11537451873E+03  0.00000000000E+00 0. -1.
        -11    1    3    3    0    0  0.53941982552E+02  0.49590244987E+01 -0.83142180210E+02  0.99231807076E+02  0.00000000000E+00 0.  1.
         11    1    3    3    0    0 -0.31605019274E+02 -0.33117943240E+01 -0.10840276323E+02  0.33576134616E+02  0.00000000000E+00 0. -1.
         21    1    1    2  502  501  0.29643947500E+02 -0.52818344445E+02 -0.15995665030E+03  0.17103996933E+03  0.00000000000E+00 0. -1.
<scales pt_clust_5="13000.00000" pt_clust_6="13000.00000" pt_clust_7="13000.00000" pt_clust_8="13000.00000" pt_clust_9="60.56848"></scales>
<clustering>
<clus scale="   60.568">  2  9  1 -1</clus>
<clus scale="   80.590">  5  6 -1 -1</clus>
<clus scale="   91.124">  7  8 -1 -1</clus>
<clus scale="  102.250">  1  5  2 -1</clus>
<clus scale="  102.250">  1  5  2 -1</clus>
</clustering>
</event>
<event>
 9    2  0.5608219E-005  0.1951937E+03  0.7546771E-02  0.1154985E+00
         -1   -1    0    0    0  501 -0.00000000000E+00  0.00000000000E+00  0.13933880002E+03  0.13933880002E+03  0.00000000000E+00 0.  1.
          2   -1    0    0  502    0  0.00000000000E+00 -0.00000000000E+00 -0.78852718237E+03  0.78852718237E+03  0.00000000000E+00 0. -1.
         23    2    1    2    0    0 -0.10056223349E+03 -0.10067564455E+03  0.42737794448E+02  0.17432321793E+03  0.91179586672E+02 0.  0.
         24    2    1    2    0    0  0.11994114617E+03  0.12921196212E+03 -0.69252712740E+03  0.71904312941E+03  0.79671764547E+02 0.  0.
        -13    1    4    4    0    0  0.13030681402E+03  0.12821744682E+03 -0.64625909674E+03  0.67161774811E+03  0.00000000000E+00 0.  1.
         14    1    4    4    0    0 -0.10365667853E+02  0.99451529912E+00 -0.46268030659E+02  0.47425381304E+02  0.00000000000E+00 0. -1.
        -13    1    3    3    0    0  0.40231545059E+01 -0.35144353615E+02  0.36375644515E+02  0.50739519875E+02  0.00000000000E+00 0.  1.
         13    1    3    3    0    0 -0.10458538799E+03 -0.65531290935E+02  0.63621499323E+01  0.12358369805E+03  0.00000000000E+00 0. -1.
         21    1    1    2  502  501 -0.19378912679E+02 -0.28536317569E+02  0.60095060666E+00  0.34499635051E+02  0.00000000000E+00 0. -1.
<scales pt_clust_5="13000.00000" pt_clust_6="13000.00000" pt_clust_7="13000.00000" pt_clust_8="13000.00000" pt_clust_9="34.49440"></scales>
<clustering>
<clus scale="   34.494">  1  9  2 -1</clus>
<clus scale="   79.672">  5  6 -1 -1</clus>
<clus scale="   91.180">  7  8 -1 -1</clus>
<clus scale="  190.091">  2  5  1 -1</clus>
<clus scale="  190.091">  2  5  1 -1</clus>
</clustering>
</event>
<event>
 9    2  0.5608219E-005  0.9680217E+02  0.7546771E-02  0.1287449E+00
         -1   -1    0    0    0  501 -0.00000000000E+00  0.00000000000E+00  0.52993821134E+03  0.52993821134E+03  0.00000000000E+00 0.  1.
          2   -1    0    0  502    0  0.00000000000E+00 -0.00000000000E+00 -0.68909603518E+02  0.68909603518E+02  0.00000000000E+00 0. -1.
         24    2    1    2    0    0  0.99697411692E+01 -0.30692151398E+02  0.39792888159E+03  0.40969921521E+03  0.92003522997E+02 0.  0.
         23    2    1    2    0    0  0.56203461668E+02  0.25151674797E+02  0.26807858343E+02  0.11347370731E+03  0.91466852652E+02 0.  0.
        -13    1    3    3    0    0  0.45476047685E+02 -0.27955838505E+02  0.31434234353E+03  0.31884276494E+03  0.00000000000E+00 0.  1.
         14    1    3    3    0    0 -0.35506306515E+02 -0.27363128932E+01  0.83586538062E+02  0.90856450271E+02  0.00000000000E+00 0. -1.
        -11    1    4    4    0    0  0.69817345319E+02 -0.12739796835E+01  0.40523684454E+02  0.80735702966E+02  0.00000000000E+00 0.  1.
         11    1    4    4    0    0 -0.13613883651E+02  0.26425654481E+02 -0.13715826111E+02  0.32738004348E+02  0.00000000000E+00 0. -1.
         21    1    1    2  502  501 -0.66173202838E+02  0.55404766009E+01  0.36291867888E+02  0.75674892333E+02  0.00000000000E+00 0. -1.
<scales pt_clust_5="13000.00000" pt_clust_6="13000.00000" pt_clust_7="13000.00000" pt_clust_8="13000.00000" pt_clust_9="66.40474"></scales>
<clustering>
<clus scale="   66.405">  2  9  1 -1</clus>
<clus scale="   91.467">  7  8 -1 -1</clus>
<clus scale="   92.004">  5  6 -1 -1</clus>
<clus scale="   96.292">  2  7  1 -1</clus>
<clus scale="   66.405">  2  5  1 -1</clus>
</clustering>
</event>
<event>
 9    2  0.5608219E-005  0.2071549E+03  0.7546771E-02  0.1144924E+00
         -1   -1    0    0    0  501 -0.00000000000E+00  0.00000000000E+00  0.15623915420E+03  0.15623915420E+03  0.00000000000E+00 0.  1.
          2   -1    0    0  502    0  0.00000000000E+00 -0.00000000000E+00 -0.41192510425E+03  0.41192510425E+03  0.00000000000E+00 0. -1.
         24    2    1    2    0    0 -0.18166606540E+03  0.87041096076E+02 -0.27070820034E+02  0.21771891277E+03  0.78038349261E+02 0.  0.
         23    2    1    2    0    0  0.16059750124E+03 -0.82223734503E+02 -0.24906068404E+03  0.32069451296E+03  0.90892499077E+02 0.  0.
        -11    1    3    3    0    0 -0.12110218639E+03  0.81795787872E+02  0.10062991828E+02  0.14648397273E+03  0.00000000000E+00 0.  1.
         12    1    3    3    0    0 -0.60563879007E+02  0.52453082043E+01 -0.37133811862E+02  0.71234940036E+02  0.00000000000E+00 0. -1.
        -11    1    4    4    0    0  0.11282539821E+03 -0.81843411843E+01 -0.12583979453E+03  0.16921054284E+03  0.00000000000E+00 0.  1.
         11    1    4    4    0    0  0.47772103031E+02 -0.74039393318E+02 -0.12322088951E+03  0.15148397012E+03  0.00000000000E+00 0. -1.
         21    1    1    2  502  501  0.21068564158E+02 -0.48173615732E+01  0.20445554030E+02  0.29750832725E+02  0.00000000000E+00 0.  1.
<scales pt_clust_5="13000.00000" pt_clust_6="13000.00000" pt_clust_7="13000.00000" pt_clust_8="13000.00000" pt_clust_9="21.61230"></scales>
<clustering>
<clus scale="   21.612">  1  9  2 -1</clus>
<clus scale="   78.038">  5  6 -1 -1</clus>
<clus scale="   90.892">  7  8 -1 -1</clus>
<clus scale="  201.846">  1  5  2 -1</clus>
<clus scale="  207.155">  2  5  1 -1</clus>
</clustering>
</event>
<event>
 9    2  0.5608219E-005  0.1343179E+03  0.7546771E-02  0.1223892E+00
         -1   -1    0    0    0  501 -0.00000000000E+00  0.00000000000E+00  0.27630659616E+03  0.27630659616E+03  0.00000000000E+00 0.  1.
          2   -1    0    0  502    0  0.00000000000E+00 -0.00000000000E+00 -0.13847680918E+03  0.13847680918E+03  0.00000000000E+00 0. -1.
         24    2    1    2    0    0  0.11004183417E+03  0.67077876911E+02  0.14492527085E+03  0.20988842398E+03  0.80256897225E+02 0.  0.
         23    2    1    2    0    0 -0.90461534643E+02 -0.17133687098E+02 -0.46986633444E+02  0.13804354876E+03  0.91495492501E+02 0.  0.
        -13    1    3    3    0    0  0.50919680329E+02  0.21778388950E+02  0.11859698715E+03  0.13089063156E+03  0.00000000000E+00 0.  1.
         14    1    3    3    0    0  0.59122153840E+02  0.45299487961E+02  0.26328283700E+02  0.78997792417E+02  0.00000000000E+00 0. -1.
        -13    1    4    4    0    0 -0.56065841883E+02 -0.20021197862E+02  0.19903786291E+02  0.62772507506E+02  0.00000000000E+00 0.  1.
         13    1    4    4    0    0 -0.34395692760E+02  0.28875107640E+01 -0.66890419736E+02  0.75271041253E+02  0.00000000000E+00 0. -1.
         21    1    1    2  502  501 -0.19580299526E+02 -0.49944189813E+02  0.39891149579E+02  0.66851432598E+02  0.00000000000E+00 0.  1.
<scales pt_clust_5="13000.00000" pt_clust_6="13000.00000" pt_clust_7="13000.00000" pt_clust_8="13000.00000" pt_clust_9="53.64523"></scales>
<clustering>
<clus scale="   53.645">  1  9  2 -1</clus>
<clus scale="   80.257">  5  6 -1 -1</clus>
<clus scale="   91.495">  7  8 -1 -1</clus>
<clus scale="  126.929">  1  5  2 -1</clus>
<clus scale="  134.318">  2  5  1 -1</clus>
</clustering>
</event>
<event>
 9    2  0.5608219E-005  0.1719384E+03  0.7546771E-02  0.1177706E+00
         -1   -1    0    0    0  501 -0.00000000000E+00  0.00000000000E+00  0.16284135841E+03  0.16284135841E+03  0.00000000000E+00 0.  1.
          2   -1    0    0  502    0  0.00000000000E+00 -0.00000000000E+00 -0.25736631696E+03  0.25736631696E+03  0.00000000000E+00 0. -1.
         23    2    1    2    0    0 -0.11210346916E+03  0.60186850470E+02  0.45213312323E+02  0.16464992319E+03  0.94210980393E+02 0.  0.
         24    2    1    2    0    0  0.13885279862E+03 -0.57037594440E+02 -0.14975986361E+03  0.22681968056E+03  0.80534240397E+02 0.  0.
        -13    1    4    4    0    0  0.27069084221E+02 -0.31509441516E+02 -0.45366897000E+01  0.41787100625E+02  0.00000000000E+00 0.  1.
         14    1    4    4    0    0  0.11178371440E+03 -0.25528152925E+02 -0.14522317391E+03  0.18503257993E+03  0.00000000000E+00 0. -1.
        -13    1    3    3    0    0 -0.34936915535E+02  0.72199141305E+02  0.21715539801E+02  0.83095539839E+02  0.00000000000E+00 0.  1.
         13    1    3    3    0    0 -0.77166553627E+02 -0.12012290835E+02  0.23497772522E+02  0.81554383348E+02  0.00000000000E+00 0. -1.
         21    1    1    2  502  501 -0.26749329455E+02 -0.31492560297E+01  0.10021592743E+02  0.28738071628E+02  0.00000000000E+00 0.  1.
<scales pt_clust_5="13000.00000" pt_clust_6="13000.00000" pt_clust_7="13000.00000" pt_clust_8="13000.00000" pt_clust_9="26.93408"></scales>
<clustering>
<clus scale="   26.934">  1  9  2 -1</clus>
<clus scale="   80.534">  5  6 -1 -1</clus>
<clus scale="   94.211">  7  8 -1 -1</clus>
<clus scale="  164.842">  2  5  1 -1</clus>
<clus scale="  164.842">  2  5  1 -1</clus>
</clustering>
</event>
<event>
 9    2  0.5608219E-005  0.1057258E+03  0.7546771E-02  0.1275682E+00
          2   -1    0    0  502    0  0.00000000000E+00  0.00000000000E+00  0.10118819164E+04  0.10118819164E+04  0.00000000000E+00 0. -1.
         -1   -1    0    0    0  501 -0.00000000000E+00 -0.00000000000E+00 -0.32946983564E+02  0.32946983564E+02  0.00000000000E+00 0.  1.
         23    2    1    2    0    0 -0.27806790947E+02  0.43563681406E+02  0.30846677916E+03  0.32704875329E+03  0.95593520806E+02 0.  0.
         24    2    1    2    0    0  0.51548547602E+02  0.10840084106E+02  0.64671384357E+03  0.65384496107E+03  0.80620577194E+02 0.  0.
        -13    1    4    4    0    0  0.57448860490E+02  0.18192877809E+02  0.25522213091E+03  0.26223975382E+03  0.00000000000E+00 0.  1.
         14    1    4    4    0    0 -0.59003128876E+01 -0.73527937035E+01  0.39149171265E+03  0.39160520725E+03  0.00000000000E+00 0. -1.
        -13    1    3    3    0    0  0.28661942032E+02  0.43611297925E+02  0.14549892044E+03  0.15457486237E+03  0.00000000000E+00 0.  1.
         13    1    3    3    0    0 -0.56468732979E+02 -0.47616519335E-01  0.16296785873E+03  0.17247389092E+03  0.00000000000E+00 0. -1.
         21    1    1    2  502  501 -0.23741756655E+02 -0.54403765512E+02  0.23754310115E+02  0.63935185618E+02  0.00000000000E+00 0.  1.
<scales pt_clust_5="13000.00000" pt_clust_6="13000.00000" pt_clust_7="13000.00000" pt_clust_8="13000.00000" pt_clust_9="59.35858"></scales>
<clustering>
<clus scale="   59.359">  2  9  1 -1</clus>
<clus scale="   80.621">  5  6 -1 -1</clus>
<clus scale="   92.409">  1  5  2 -1</clus>
<clus scale="   95.594">  7  8 -1 -1</clus>
<clus scale="   92.409">  1  5  2 -1</clus>
</clustering>
</event>
<event>
 9    2  0.5608219E-005  0.1819249E+03  0.7546771E-02  0.1167024E+00
          2   -1    0    0  502    0  0.00000000000E+00  0.00000000000E+00  0.38889237194E+03  0.38889237194E+03  0.00000000000E+00 0. -1.
         -1   -1    0    0    0  501 -0.00000000000E+00 -0.00000000000E+00 -0.13966610768E+03  0.13966610768E+03  0.00000000000E+00 0.  1.
         24    2    1    2    0    0 -0.77158709327E+02  0.11881609963E+03  0.64854113509E+02  0.17654397638E+03  0.83011972630E+02 0.  0.
         23    2    1    2    0    0  0.73628350150E+02 -0.14952697762E+03  0.22893441381E+03  0.29777967356E+03  0.92099496090E+02 0.  0.
        -11    1    3    3    0    0 -0.17411639113E+02  0.55702917374E+02  0.67960970524E+02  0.89580543061E+02  0.00000000000E+00 0.  1.
         12    1    3    3    0    0 -0.59747070214E+02  0.63113182260E+02 -0.31068570151E+01  0.86963433319E+02  0.00000000000E+00 0. -1.
        -13    1    4    4    0    0  0.84466491561E+02 -0.72469005781E+02  0.11725766445E+03  0.16166541024E+03  0.00000000000E+00 0.  1.
         13    1    4    4    0    0 -0.10838141410E+02 -0.77057971837E+02  0.11167674936E+03  0.13611426333E+03  0.00000000000E+00 0. -1.
         21    1    1    2  502  501  0.35303591768E+01  0.30710877985E+02 -0.44562263054E+02  0.54234829685E+02  0.00000000000E+00 0. -1.
<scales pt_clust_5="13000.00000" pt_clust_6="13000.00000" pt_clust_7="13000.00000" pt_clust_8="13000.00000" pt_clust_9="30.91313"></scales>
<clustering>
<clus scale="   30.913">  2  9  1 -1</clus>
<clus scale="   83.012">  5  6 -1 -1</clus>
<clus scale="   92.099">  7  8 -1 -1</clus>
<clus scale="  177.497">  2  5  1 -1</clus>
<clus scale="  181.925">  1  5  2 -1</clus>
</clustering>
</event>
<event>
 9    2  0.5608219E-005  0.1376458E+03  0.7546771E-02  0.1219173E+00
         -1   -1    0    0    0  501 -0.00000000000E+00  0.00000000000E+00  0.11604968282E+03  0.11604968282E+03  0.00000000000E+00 0.  1.
          2   -1    0    0  502    0  0.00000000000E+00 -0.00000000000E+00 -0.97681661818E+03  0.97681661818E+03  0.00000000000E+00 0. -1.
         23    2    1    2    0    0 -0.98281427588E+02  0.10249670368E+03  0.82759259295E+00  0.16904565135E+03  0.91711144674E+02 0.  0.
         24    2    1    2    0    0  0.63355824939E+02 -0.77991274773E+02 -0.87075315066E+03  0.88018357670E+03  0.80096690424E+02 0.  0.
        -11    1    4    4    0    0  0.53801066035E+02 -0.47842722619E+02 -0.29860108370E+03  0.30715808308E+03  0.00000000000E+00 0.  1.
         12    1    4    4    0    0  0.95547589039E+01 -0.30148552154E+02 -0.57215206696E+03  0.57302549362E+03  0.00000000000E+00 0. -1.
        -11    1    3    3    0    0 -0.78894007947E+02  0.42754059969E+02 -0.35484057209E+02  0.96495038472E+02  0.00000000000E+00 0.  1.
         11    1    3    3    0    0 -0.19387419642E+02  0.59742643710E+02  0.36311649802E+02  0.72550612879E+02  0.00000000000E+00 0. -1.
         21    1    1    2  502  501  0.34925602649E+02 -0.24505428907E+02  0.91586227034E+01  0.43637072955E+02  0.00000000000E+00 0.  1.
<scales pt_clust_5="13000.00000" pt_clust_6="13000.00000" pt_clust_7="13000.00000" pt_clust_8="13000.00000" pt_clust_9="42.66514"></scales>
<clustering>
<clus scale="   42.665">  1  9  2 -1</clus>
<clus scale="   80.097">  5  6 -1 -1</clus>
<clus scale="   91.711">  7  8 -1 -1</clus>
<clus scale="  130.196">  2  5  1 -1</clus>
<clus scale="  130.196">  2  5  1 -1</clus>
</clustering>
</event>
<event>
 9    2  0.5608219E-005  0.2384234E+03  0.7546771E-02  0.1121512E+00
          2   -1    0    0  502    0  0.00000000000E+00  0.00000000000E+00  0.14516380337E+03  0.14516380337E+03  0.00000000000E+00 0. -1.
         -1   -1    0    0    0  501 -0.00000000000E+00 -0.00000000000E+00 -0.63472714389E+03  0.63472714389E+03  0.00000000000E+00 0.  1.
         24    2    1    2    0    0 -0.17367312427E+03 -0.19475696617E+03 -0.33091056047E+03  0.42911822360E+03  0.80919842014E+02 0.  0.
         23    2    1    2    0    0  0.12848940750E+03  0.15965061552E+03 -0.53076385323E+02  0.23068775690E+03  0.91661832988E+02 0.  0.
        -11    1    3    3    0    0 -0.16969345251E+03 -0.20015991842E+03 -0.33101037477E+03  0.42240706548E+03  0.00000000000E+00 0.  1.
         12    1    3    3    0    0 -0.39796717594E+01  0.54029522518E+01  0.99814301018E-01  0.67111581149E+01  0.00000000000E+00 0. -1.
        -11    1    4    4    0    0  0.36097140413E+02  0.12190301695E+01  0.87156141002E+01  0.37154427861E+02  0.00000000000E+00 0.  1.
         11    1    4    4    0    0  0.92392267088E+02  0.15843158535E+03 -0.61791999423E+02  0.19353332904E+03  0.00000000000E+00 0. -1.
         21    1    1    2  502  501  0.45183716764E+02  0.35106350649E+02 -0.10557639474E+03  0.12008496676E+03  0.00000000000E+00 0. -1.
<scales pt_clust_5="13000.00000" pt_clust_6="13000.00000" pt_clust_7="13000.00000" pt_clust_8="13000.00000" pt_clust_9="57.21909"></scales>
<clustering>
<clus scale="   57.219">  2  9  1 -1</clus>
<clus scale="   80.920">  5  6 -1 -1</clus>
<clus scale="   91.662">  7  8 -1 -1</clus>
<clus scale="  234.503">  2  5  1 -1</clus>
<clus scale="  238.423">  1  5  2 -1</clus>
</clustering>
</event>
<event>
 9    2  0.5608219E-005  0.1367680E+03  0.7546771E-02  0.1233479E+00
          2   -1    0    0  502    0  0.00000000000E+00  0.00000000000E+00  0.21796586177E+03  0.21796586177E+03  0.00000000000E+00 0. -1.
         -1   -1    0    0    0  501 -0.00000000000E+00 -0.00000000000E+00 -0.19279275377E+03  0.19279275377E+03  0.00000000000E+00 0.  1.
         24    2    1    2    0    0  0.47823250969E+02 -0.89342246455E+02  0.97496756118E+02  0.16228628964E+03  0.81006925731E+02 0.  0.
         23    2    1    2    0    0 -0.28716671819E+02 -0.21913789542E+02  0.22405057360E+02  0.10110715174E+03  0.91737713761E+02 0.  0.
        -13    1    3    3    0    0  0.57331891777E+02 -0.70512954448E+02  0.36832793522E+02  0.98059559648E+02  0.00000000000E+00 0.  1.
         14    1    3    3    0    0 -0.95086408079E+01 -0.18829292008E+02  0.60663962597E+02  0.64226729992E+02  0.00000000000E+00 0. -1.
        -11    1    4    4    0    0 -0.14486750244E+02  0.23086954393E+02  0.41947153248E+02  0.50024364678E+02  0.00000000000E+00 0.  1.
         11    1    4    4    0    0 -0.14229921575E+02 -0.45000743936E+02 -0.19542095888E+02  0.51082787067E+02  0.00000000000E+00 0. -1.
         21    1    1    2  502  501 -0.19106579151E+02  0.11125603600E+03 -0.94728705483E+02  0.14736517416E+03  0.00000000000E+00 0.  1.
<scales pt_clust_5="13000.00000" pt_clust_6="13000.00000" pt_clust_7="13000.00000" pt_clust_8="13000.00000" pt_clust_9="110.19694"></scales>
<clustering>
<clus scale="   81.007">  5  6 -1 -1</clus>
<clus scale="   91.738">  7  8 -1 -1</clus>
<clus scale="   98.593">  1  7  2 -1</clus>
<clus scale="  110.197">  2  9  1 -1</clus>
<clus scale="   98.593">  1  5  2 -1</clus>
</clustering>
</event>
<event>
 9    2  0.5608219E-005  0.1093397E+03  0.7546771E-02  0.1265688E+00
          2   -1    0    0  502    0  0.00000000000E+00  0.00000000000E+00  0.18727872956E+03  0.18727872956E+03  0.00000000000E+00 0. -1.
         -1   -1    0    0    0  501 -0.00000000000E+00 -0.00000000000E+00 -0.32215161308E+03  0.32215161308E+03  0.00000000000E+00 0.  1.
         24    2    1    2    0    0 -0.36784197831E+02  0.62739183551E+01 -0.26694533423E+03  0.28129185514E+03  0.80454067885E+02 0.  0.
         23    2    1    2    0    0  0.46368906909E+02 -0.43570557989E+02  0.14947853708E+03  0.18587883986E+03  0.90325195871E+02 0.  0.
        -11    1    3    3    0    0 -0.60924651434E+02 -0.60065730202E+01 -0.19665958004E+03  0.20596815893E+03  0.00000000000E+00 0.  1.
         12    1    3    3    0    0  0.24140453603E+02  0.12280491375E+02 -0.70285754189E+02  0.75323696208E+02  0.00000000000E+00 0. -1.
        -11    1    4    4    0    0  0.15992261780E+02 -0.20242619583E+02 -0.53813754938E+01  0.26352899018E+02  0.00000000000E+00 0.  1.
         11    1    4    4    0    0  0.30376645129E+02 -0.23327938405E+02  0.15485991257E+03  0.15952594084E+03  0.00000000000E+00 0. -1.
         21    1    1    2  502  501 -0.95847090780E+01  0.37296639634E+02 -0.17406086371E+02  0.42259647642E+02  0.00000000000E+00 0.  1.
<scales pt_clust_5="13000.00000" pt_clust_6="13000.00000" pt_clust_7="13000.00000" pt_clust_8="13000.00000" pt_clust_9="38.50852"></scales>
<clustering>
<clus scale="   38.509">  2  9  1 -1</clus>
<clus scale="   80.454">  5  6 -1 -1</clus>
<clus scale="   90.325">  7  8 -1 -1</clus>
<clus scale="  101.338">  2  5  1 -1</clus>
<clus scale="  109.340">  1  5  2 -1</clus>
</clustering>
</event>
<event>
 9    2  0.5608219E-005  0.1109490E+03  0.7546771E-02  0.1273027E+00
         -1   -1    0    0    0  501 -0.00000000000E+00  0.00000000000E+00  0.12791187041E+03  0.12791187041E+03  0.00000000000E+00 0.  1.
          2   -1    0    0  502    0  0.00000000000E+00 -0.00000000000E+00 -0.33351664631E+03  0.33351664631E+03  0.00000000000E+00 0. -1.
         24    2    1    2    0    0  0.12152532347E+02  0.12033361682E+01  0.77649940395E+02  0.11451235717E+03  0.83273252852E+02 0.  0.
         23    2    1    2    0    0  0.14483945910E+02  0.20645639446E+01 -0.29671948610E+03  0.31689148351E+03  0.11028921877E+03 0.  0.
        -11    1    3    3    0    0 -0.26742706771E+02  0.23780035848E+02  0.50783162035E+02  0.62125614819E+02  0.00000000000E+00 0.  1.
         12    1    3    3    0    0  0.38895239118E+02 -0.22576699680E+02  0.26866778360E+02  0.52386742349E+02  0.00000000000E+00 0. -1.
        -11    1    4    4    0    0  0.18469232723E+02 -0.43253200030E+02 -0.23804587331E+03  0.24264745964E+03  0.00000000000E+00 0. -1.
         11    1    4    4    0    0 -0.39852868132E+01  0.45317763975E+02 -0.58673612785E+02  0.74244023867E+02  0.00000000000E+00 0.  1.
         21    1    1    2  502  501 -0.26636478257E+02 -0.32679001128E+01  0.13464769804E+02  0.30024676034E+02  0.00000000000E+00 0.  1.
<scales pt_clust_5="13000.00000" pt_clust_6="13000.00000" pt_clust_7="13000.00000" pt_clust_8="13000.00000" pt_clust_9="26.83619"></scales>
<clustering>
<clus scale="   26.836">  1  9  2 -1</clus>
<clus scale="   83.273">  5  6 -1 -1</clus>
<clus scale="   84.145">  1  5  2 -1</clus>
<clus scale="  110.289">  7  8 -1 -1</clus>
<clus scale="  110.949">  2  5  1 -1</clus>
</clustering>
</event>
<event>
 9    2  0.5608219E-005  0.1131345E+03  0.7546771E-02  0.1258355E+00
         -1   -1    0    0    0  501 -0.00000000000E+00  0.00000000000E+00  0.41067303393E+02  0.41067303393E+02  0.00000000000E+00 0.  1.
          2   -1    0    0  502    0  0.00000000000E+00 -0.00000000000E+00 -0.11930840544E+04  0.11930840544E+04  0.00000000000E+00 0. -1.
         23    2    1    2    0    0 -0.66423595929E+02 -0.24241977624E+02 -0.70532400405E+02  0.13478792576E+03  0.90516284998E+02 0.  0.
         24    2    1    2    0    0  0.67954107191E+02  0.21384097916E+00 -0.10648955899E+04  0.10701250874E+04  0.80915257022E+02 0.  0.
        -11    1    4    4    0    0  0.39396821813E+02 -0.23834690312E+02 -0.23953358874E+03  0.24391913038E+03  0.00000000000E+00 0.  1.
         12    1    4    4    0    0  0.28557285377E+02  0.24048531291E+02 -0.82536200119E+03  0.82620595702E+03  0.00000000000E+00 0. -1.
        -11    1    3    3    0    0 -0.31069496635E+02 -0.53629245682E+02 -0.62680671900E+02  0.88149170407E+02  0.00000000000E+00 0. -1.
         11    1    3    3    0    0 -0.35354099294E+02  0.29387268058E+02 -0.78517285045E+01  0.46638755358E+02  0.00000000000E+00 0.  1.
         21    1    1    2  502  501 -0.15305112621E+01  0.24028136645E+02 -0.16588760648E+02  0.29238344605E+02  0.00000000000E+00 0.  1.
<scales pt_clust_5="13000.00000" pt_clust_6="13000.00000" pt_clust_7="13000.00000" pt_clust_8="13000.00000" pt_clust_9="24.07683"></scales>
<clustering>
<clus scale="   24.077">  1  9  2 -1</clus>
<clus scale="   80.915">  5  6 -1 -1</clus>
<clus scale="   90.516">  7  8 -1 -1</clus>
<clus scale="  105.610">  2  5  1 -1</clus>
<clus scale="  105.610">  2  5  1 -1</clus>
</clustering>
</event>
<event>
 9    2  0.5608219E-005  0.9202683E+02  0.7546771E-02  0.1301347E+00
          2   -1    0    0  502    0  0.00000000000E+00  0.00000000000E+00  0.78659215835E+02  0.78659215835E+02  0.00000000000E+00 0. -1.
         -1   -1    0    0    0  501 -0.00000000000E+00 -0.00000000000E+00 -0.50232627648E+03  0.50232627648E+03  0.00000000000E+00 0.  1.
         24    2    1    2    0    0 -0.46847846140E+02 -0.16799885527E-01 -0.21951219789E+03  0.24042098430E+03  0.86150587340E+02 0.  0.
         23    2    1    2    0    0 -0.16289383470E+01 -0.79931381885E+01  0.33466543045E+02  0.97916429026E+02  0.91657372162E+02 0.  0.
        -13    1    3    3    0    0 -0.60067241783E+02  0.15174680021E+02 -0.89456744010E+02  0.10881568590E+03  0.00000000000E+00 0.  1.
         14    1    3    3    0    0  0.13219395643E+02 -0.15191479907E+02 -0.13005545388E+03  0.13160529840E+03  0.00000000000E+00 0. -1.
        -11    1    4    4    0    0 -0.42958246469E+02 -0.16686936137E+02  0.36734233815E+01  0.46231578133E+02  0.00000000000E+00 0.  1.
         11    1    4    4    0    0  0.41329308122E+02  0.86937979486E+01  0.29793119664E+02  0.51684850894E+02  0.00000000000E+00 0. -1.
         21    1    1    2  502  501  0.48476784487E+02  0.80099380740E+01 -0.23762140580E+03  0.24264807899E+03  0.00000000000E+00 0. -1.
<scales pt_clust_5="13000.00000" pt_clust_6="13000.00000" pt_clust_7="13000.00000" pt_clust_8="13000.00000" pt_clust_9="49.13408"></scales>
<clustering>
<clus scale="   49.134">  2  9  1 -1</clus>
<clus scale="   86.151">  5  6 -1 -1</clus>
<clus scale="   86.544">  2  5  1 -1</clus>
<clus scale="   91.657">  7  8 -1 -1</clus>
<clus scale="   92.027">  1  5  2 -1</clus>
</clustering>
</event>
<event>
 9    2  0.5608219E-005  0.1173818E+03  0.7546771E-02  0.1249316E+00
          2   -1    0    0  502    0  0.00000000000E+00  0.00000000000E+00  0.39711476265E+03  0.39711476265E+03  0.00000000000E+00 0. -1.
         -1   -1    0    0    0  501 -0.00000000000E+00 -0.00000000000E+00 -0.21722030535E+03  0.21722030535E+03  0.00000000000E+00 0.  1.
         23    2    1    2    0    0  0.37986501310E+02  0.29348630928E+02 -0.67045363921E+02  0.11084557610E+03  0.74076612363E+02 0.  0.
         24    2    1    2    0    0 -0.84504599633E+02 -0.30670271846E+02  0.36083283013E+03  0.38045576610E+03  0.80402523103E+02 0.  0.
        -13    1    4    4    0    0 -0.54468743516E+02 -0.20713932846E+02  0.86465853121E+02  0.10427010497E+03  0.00000000000E+00 0.  1.
         14    1    4    4    0    0 -0.30035856116E+02 -0.99563389998E+01  0.27436697701E+03  0.27618566113E+03  0.00000000000E+00 0. -1.
        -13    1    3    3    0    0 -0.69129019383E+01  0.41158224930E+02 -0.34494156245E+02  0.54144570436E+02  0.00000000000E+00 0.  1.
         13    1    3    3    0    0  0.44899403248E+02 -0.11809594002E+02 -0.32551207675E+02  0.56701005667E+02  0.00000000000E+00 0. -1.
         21    1    1    2  502  501  0.46518098323E+02  0.13216409181E+01 -0.11389300891E+03  0.12303372580E+03  0.00000000000E+00 0.  1.
<scales pt_clust_5="13000.00000" pt_clust_6="13000.00000" pt_clust_7="13000.00000" pt_clust_8="13000.00000" pt_clust_9="46.53687"></scales>
<clustering>
<clus scale="   46.537">  2  9  1 -1</clus>
<clus scale="   74.077">  7  8 -1 -1</clus>
<clus scale="   80.403">  5  6 -1 -1</clus>
<clus scale="  113.143">  2  7  1 -1</clus>
<clus scale="  117.382">  1  5  2 -1</clus>
</clustering>
</event>
<event>
 9    2  0.5608219E-005  0.2034520E+03  0.7546771E-02  0.1147991E+00
          2   -1    0    0  502    0  0.00000000000E+00  0.00000000000E+00  0.75960740198E+03  0.75960740198E+03  0.00000000000E+00 0. -1.
         -1   -1    0    0    0  501 -0.00000000000E+00 -0.00000000000E+00 -0.83710196331E+02  0.83710196331E+02  0.00000000000E+00 0.  1.
         23    2    1    2    0    0  0.15376300910E+03  0.74485971067E+01  0.10999647671E+03  0.21083203369E+03  0.93018154013E+02 0.  0.
         24    2    1    2    0    0 -0.18922694248E+03  0.43596035589E+02  0.49736279766E+03  0.53996155086E+03  0.80506358951E+02 0.  0.
        -13    1    4    4    0    0 -0.19466374094E+03  0.43339346620E+02  0.44905133283E+03  0.49134445201E+03  0.00000000000E+00 0.  1.
         14    1    4    4    0    0  0.54367984617E+01  0.25668896910E+00  0.48311464833E+02  0.48617098855E+02  0.00000000000E+00 0. -1.
        -11    1    3    3    0    0  0.11875933664E+03 -0.82372754444E+01  0.30998897222E+02  0.12301448848E+03  0.00000000000E+00 0.  1.
         11    1    3    3    0    0  0.35003672463E+02  0.15685872551E+02  0.78997579484E+02  0.87817545217E+02  0.00000000000E+00 0. -1.
         21    1    1    2  502  501  0.35463933372E+02 -0.51044632696E+02  0.68537931279E+02  0.92524013755E+02  0.00000000000E+00 0.  1.
<scales pt_clust_5="13000.00000" pt_clust_6="13000.00000" pt_clust_7="13000.00000" pt_clust_8="13000.00000" pt_clust_9="62.15501"></scales>
<clustering>
<clus scale="   62.155">  2  9  1 -1</clus>
<clus scale="   80.506">  5  6 -1 -1</clus>
<clus scale="   93.018">  7  8 -1 -1</clus>
<clus scale="  198.044">  1  5  2 -1</clus>
<clus scale="  198.044">  1  5  2 -1</clus>
</clustering>
</event>
<event>
 9    2  0.5608219E-005  0.9803304E+02  0.7546771E-02  0.1290541E+00
          2   -1    0    0  502    0  0.00000000000E+00  0.00000000000E+00  0.71382756452E+03  0.71382756452E+03  0.00000000000E+00 0. -1.
         -1   -1    0    0    0  501 -0.00000000000E+00 -0.00000000000E+00 -0.59185000367E+02  0.59185000367E+02  0.00000000000E+00 0.  1.
         23    2    1    2    0    0  0.25997623936E+02  0.43274043123E+02  0.71989072964E+02  0.12716377053E+03  0.91867723662E+02 0.  0.
         24    2    1    2    0    0  0.13420176551E+01 -0.33157324367E+02  0.60366487866E+03  0.60991437625E+03  0.80517398503E+02 0.  0.
        -11    1    4    4    0    0  0.85259024225E+01 -0.21217608978E+02  0.39980318927E+02  0.46057614402E+02  0.00000000000E+00 0.  1.
         12    1    4    4    0    0 -0.71838847674E+01 -0.11939715389E+02  0.56368455973E+03  0.56385676185E+03  0.00000000000E+00 0. -1.
        -13    1    3    3    0    0  0.36734526252E+02  0.22277151972E+02 -0.80617976737E+01  0.43711434439E+02  0.00000000000E+00 0.  1.
         13    1    3    3    0    0 -0.10736902316E+02  0.20996891151E+02  0.80050870638E+02  0.83452336092E+02  0.00000000000E+00 0. -1.
         21    1    1    2  502  501 -0.27339641591E+02 -0.10116718756E+02 -0.21011387473E+02  0.35934418101E+02  0.00000000000E+00 0.  1.
<scales pt_clust_5="13000.00000" pt_clust_6="13000.00000" pt_clust_7="13000.00000" pt_clust_8="13000.00000" pt_clust_9="29.15140"></scales>
<clustering>
<clus scale="   29.151">  2  9  1 -1</clus>
<clus scale="   80.517">  5  6 -1 -1</clus>
<clus scale="   87.486">  1  5  2 -1</clus>
<clus scale="   91.868">  7  8 -1 -1</clus>
<clus scale="   87.486">  1  5  2 -1</clus>
</clustering>
</event>
<event>
 9    2  0.5608219E-005  0.1188885E+03  0.7546771E-02  0.1248725E+00
         -1   -1    0    0    0  501 -0.00000000000E+00  0.00000000000E+00  0.78128016467E+02  0.78128016467E+02  0.00000000000E+00 0.  1.
          2   -1    0    0  502    0  0.00000000000E+00 -0.00000000000E+00 -0.73299985057E+03  0.73299985057E+03  0.00000000000E+00 0. -1.
         23    2    1    2    0    0  0.43832136805E+02  0.17393322479E+02 -0.71830284082E+02  0.12530860109E+03  0.91207850058E+02 0.  0.
         24    2    1    2    0    0 -0.78757302581E+02 -0.22664297426E+02 -0.62248377739E+03  0.63287363645E+03  0.79539949158E+02 0.  0.
        -13    1    4    4    0    0 -0.40455503213E+02  0.68682085349E+01 -0.99096030226E+02  0.10725597063E+03  0.00000000000E+00 0.  1.
         14    1    4    4    0    0 -0.38301799368E+02 -0.29532505961E+02 -0.52338774717E+03  0.52561766583E+03  0.00000000000E+00 0. -1.
        -13    1    3    3    0    0  0.69848226831E+02  0.31485730359E+01 -0.63623006968E+02  0.94533461374E+02  0.00000000000E+00 0.  1.
         13    1    3    3    0    0 -0.26016090026E+02  0.14244749443E+02 -0.82072771134E+01  0.30775139717E+02  0.00000000000E+00 0. -1.
         21    1    1    2  502  501  0.34925165776E+02  0.52709749472E+01  0.39442227378E+02  0.52945629488E+02  0.00000000000E+00 0.  1.
<scales pt_clust_5="13000.00000" pt_clust_6="13000.00000" pt_clust_7="13000.00000" pt_clust_8="13000.00000" pt_clust_9="35.32068"></scales>
<clustering>
<clus scale="   35.321">  1  9  2 -1</clus>
<clus scale="   79.540">  5  6 -1 -1</clus>
<clus scale="   91.208">  7  8 -1 -1</clus>
<clus scale="  110.192">  2  5  1 -1</clus>
<clus scale="  110.192">  2  5  1 -1</clus>
</clustering>
</event>
<event>
 9    2  0.5608219E-005  0.1120034E+03  0.7546771E-02  0.1263230E+00
          2   -1    0    0  502    0  0.00000000000E+00  0.00000000000E+00  0.67898419926E+03  0.67898419926E+03  0.00000000000E+00 0. -1.
         -1   -1    0    0    0  501 -0.00000000000E+00 -0.00000000000E+00 -0.50415555005E+02  0.50415555005E+02  0.00000000000E+00 0.  1.
         23    2    1    2    0    0 -0.39403521536E+02 -0.19444643707E+02  0.60980177560E+02  0.12284792226E+03  0.97171488979E+02 0.  0.
         24    2    1    2    0    0  0.57620303012E+02 -0.10161685678E+02  0.56251026738E+03  0.57142101967E+03  0.81736293282E+02 0.  0.
        -11    1    4    4    0    0  0.59791390917E+02  0.11246810946E+02  0.22064687149E+03  0.22888106755E+03  0.00000000000E+00 0.  1.
         12    1    4    4    0    0 -0.21710879052E+01 -0.21408496623E+02  0.34186339589E+03  0.34253995212E+03  0.00000000000E+00 0. -1.
        -13    1    3    3    0    0 -0.11541779560E+02  0.29867428246E+02  0.57852841324E+02  0.66122819016E+02  0.00000000000E+00 0. -1.
         13    1    3    3    0    0 -0.27861741976E+02 -0.49312071953E+02  0.31273362360E+01  0.56725103245E+02  0.00000000000E+00 0.  1.
         21    1    1    2  502  501 -0.18216781476E+02  0.29606329385E+02  0.50781993170E+01  0.35130812334E+02  0.00000000000E+00 0.  1.
<scales pt_clust_5="13000.00000" pt_clust_6="13000.00000" pt_clust_7="13000.00000" pt_clust_8="13000.00000" pt_clust_9="34.76184"></scales>
<clustering>
<clus scale="   34.762">  2  9  1 -1</clus>
<clus scale="   81.736">  5  6 -1 -1</clus>
<clus scale="   97.171">  7  8 -1 -1</clus>
<clus scale="   98.910">  1  5  2 -1</clus>
<clus scale="   98.910">  1  5  2 -1</clus>
</clustering>
</event>
<event>
 9    2  0.5608219E-005  0.1173882E+03  0.7546771E-02  0.1249650E+00
         -1   -1    0    0    0  501 -0.00000000000E+00  0.00000000000E+00  0.47692947001E+02  0.47692947001E+02  0.00000000000E+00 0.  1.
          2   -1    0    0  502    0  0.00000000000E+00 -0.00000000000E+00 -0.73470769205E+03  0.73470769205E+03  0.00000000000E+00 0. -1.
         23    2    1    2    0    0  0.58116355331E+02  0.11430416324E+02 -0.10259689589E+03  0.14898691498E+03  0.90348285072E+02 0.  0.
         24    2    1    2    0    0 -0.74753984032E+02 -0.24780440663E+02 -0.59745636113E+03  0.60841299143E+03  0.83725959655E+02 0.  0.
        -11    1    4    4    0    0 -0.28026718136E+02  0.71719006063E+01 -0.47968662024E+02  0.56017190435E+02  0.00000000000E+00 0.  1.
         12    1    4    4    0    0 -0.46727265896E+02 -0.31952341269E+02 -0.54948769910E+03  0.55239580099E+03  0.00000000000E+00 0. -1.
        -13    1    3    3    0    0  0.46779381050E+02 -0.25475417414E+02 -0.96045205255E+02  0.10982708608E+03  0.00000000000E+00 0. -1.
         13    1    3    3    0    0  0.11336974281E+02  0.36905833738E+02 -0.65516906360E+01  0.39159828906E+02  0.00000000000E+00 0.  1.
         21    1    1    2  502  501  0.16637628701E+02  0.13350024339E+02  0.13038511962E+02  0.25000732646E+02  0.00000000000E+00 0.  1.
<scales pt_clust_5="13000.00000" pt_clust_6="13000.00000" pt_clust_7="13000.00000" pt_clust_8="13000.00000" pt_clust_9="21.33152"></scales>
<clustering>
<clus scale="   21.332">  1  9  2 -1</clus>
<clus scale="   83.726">  5  6 -1 -1</clus>
<clus scale="   90.348">  7  8 -1 -1</clus>
<clus scale="  112.371">  2  5  1 -1</clus>
<clus scale="  112.371">  2  5  1 -1</clus>
</clustering>
</event>
<event>
 9    2  0.5608219E-005  0.2666021E+03  0.7546771E-02  0.1129560E+00
          2   -1    0    0  502    0  0.00000000000E+00  0.00000000000E+00  0.13449630841E+04  0.13449630841E+04  0.00000000000E+00 0. -1.
         -1   -1    0    0    0  501 -0.00000000000E+00 -0.00000000000E+00 -0.51846470121E+03  0.51846470121E+03  0.00000000000E+00 0.  1.
         24    2    1    2    0    0 -0.70913949048E+02  0.85650919172E+02 -0.45511645961E+03  0.47541216830E+03  0.80751902959E+02 0.  0.
         23    2    1    2    0    0  0.22880327794E+02  0.21184241865E+03  0.52393785259E+03  0.57261146210E+03  0.89287700177E+02 0.  0.
        -13    1    3    3    0    0 -0.51191479676E+02  0.99690115877E+02 -0.39542476202E+03  0.41099808907E+03  0.00000000000E+00 0.  1.
         14    1    3    3    0    0 -0.19722469372E+02 -0.14039196705E+02 -0.59691697590E+02  0.64414079233E+02  0.00000000000E+00 0. -1.
        -13    1    4    4    0    0  0.45769595548E+02  0.13295513032E+03  0.39935516166E+03  0.42338690071E+03  0.00000000000E+00 0. -1.
         13    1    4    4    0    0 -0.22889267755E+02  0.78887288326E+02  0.12458269094E+03  0.14922456138E+03  0.00000000000E+00 0.  1.
         21    1    1    2  502  501  0.48033621254E+02 -0.29749333782E+03  0.75767698989E+03  0.81540415490E+03  0.00000000000E+00 0.  1.
<scales pt_clust_5="13000.00000" pt_clust_6="13000.00000" pt_clust_7="13000.00000" pt_clust_8="13000.00000" pt_clust_9="251.20586"></scales>
<clustering>
<clus scale="   80.752">  5  6 -1 -1</clus>
<clus scale="   89.288">  7  8 -1 -1</clus>
<clus scale="  137.425">  2  5  1 -1</clus>
<clus scale="  251.206">  2  9  1 -1</clus>
<clus scale="  266.602">  1  5  2 -1</clus>
</clustering>
</event>
<event>
 9    2  0.5608219E-005  0.9135153E+02  0.7546771E-02  0.1303722E+00
         -1   -1    0    0    0  501 -0.00000000000E+00  0.00000000000E+00  0.56446006906E+02  0.56446006906E+02  0.00000000000E+00 0.  1.
          2   -1    0    0  502    0  0.00000000000E+00 -0.00000000000E+00 -0.80725994168E+03  0.80725994168E+03  0.00000000000E+00 0. -1.
         23    2    1    2    0    0  0.30064280929E+02  0.11715560317E+02 -0.68426175672E+02  0.11605639859E+03  0.88010401629E+02 0.  0.
         24    2    1    2    0    0 -0.12253256898E+02 -0.20999789475E+02 -0.70915198747E+03  0.71418683330E+03  0.81087348398E+02 0.  0.
        -13    1    4    4    0    0 -0.22288981995E+02 -0.30918640674E+02 -0.14710120833E+03  0.15195896338E+03  0.00000000000E+00 0.  1.
         14    1    4    4    0    0  0.10035725097E+02  0.99188511993E+01 -0.56205077914E+03  0.56222786992E+03  0.00000000000E+00 0. -1.
        -11    1    3    3    0    0  0.59205054913E+02  0.99746016265E+01 -0.28144390899E+02  0.66308656629E+02  0.00000000000E+00 0.  1.
         11    1    3    3    0    0 -0.29140773984E+02  0.17409586904E+01 -0.40281784773E+02  0.49747741959E+02  0.00000000000E+00 0. -1.
         21    1    1    2  502  501 -0.17811024031E+02  0.92842291580E+01  0.26764228370E+02  0.33462716690E+02  0.00000000000E+00 0.  1.
<scales pt_clust_5="13000.00000" pt_clust_6="13000.00000" pt_clust_7="13000.00000" pt_clust_8="13000.00000" pt_clust_9="20.08555"></scales>
<clustering>
<clus scale="   20.086">  1  9  2 -1</clus>
<clus scale="   81.087">  5  6 -1 -1</clus>
<clus scale="   84.702">  2  5  1 -1</clus>
<clus scale="   88.010">  7  8 -1 -1</clus>
<clus scale="   84.702">  2  5  1 -1</clus>
</clustering>
</event>
<event>
 9    2  0.5608219E-005  0.1166400E+03  0.7546771E-02  0.1253125E+00
          2   -1    0    0  502    0  0.00000000000E+00  0.00000000000E+00  0.15964004023E+03  0.15964004023E+03  0.00000000000E+00 0. -1.
         -1   -1    0    0    0  501 -0.00000000000E+00 -0.00000000000E+00 -0.11069413700E+03  0.11069413700E+03  0.00000000000E+00 0.  1.
         24    2    1    2    0    0 -0.67809737880E+02 -0.28812116602E+01 -0.16491958354E+02  0.10540043365E+03  0.78935446984E+02 0.  0.
         23    2    1    2    0    0  0.70377217782E+02  0.28188540820E+02  0.71449217113E+02  0.13879585427E+03  0.91715603475E+02 0.  0.
        -11    1    3    3    0    0 -0.24850682438E+02 -0.97680921428E+01 -0.45748633900E+02  0.52970836744E+02  0.00000000000E+00 0.  1.
         12    1    3    3    0    0 -0.42959055442E+02  0.68868804827E+01  0.29256675546E+02  0.52429596902E+02  0.00000000000E+00 0. -1.
        -13    1    4    4    0    0 -0.81796200030E+01 -0.22839760380E+02  0.22566845710E+02  0.33133417616E+02  0.00000000000E+00 0.  1.
         13    1    4    4    0    0  0.78556837785E+02  0.51028301200E+02  0.48882371404E+02  0.10566243666E+03  0.00000000000E+00 0. -1.
         21    1    1    2  502  501 -0.25674799021E+01 -0.25307329160E+02 -0.60113555285E+01  0.26137889309E+02  0.00000000000E+00 0. -1.
<scales pt_clust_5="13000.00000" pt_clust_6="13000.00000" pt_clust_7="13000.00000" pt_clust_8="13000.00000" pt_clust_9="25.43723"></scales>
<clustering>
<clus scale="   25.437">  2  9  1 -1</clus>
<clus scale="   78.935">  5  6 -1 -1</clus>
<clus scale="   91.716">  7  8 -1 -1</clus>
<clus scale="  106.883">  2  5  1 -1</clus>
<clus scale="  116.640">  1  5  2 -1</clus>
</clustering>
</event>
<event>
 9    2  0.5608219E-005  0.1168165E+03  0.7546771E-02  0.1250119E+00
         -1   -1    0    0    0  501 -0.00000000000E+00  0.00000000000E+00  0.28352120699E+02  0.28352120699E+02  0.00000000000E+00 0.  1.
          2   -1    0    0  502    0  0.00000000000E+00 -0.00000000000E+00 -0.94664416058E+03  0.94664416058E+03  0.00000000000E+00 0. -1.
         24    2    1    2    0    0 -0.24703800441E+01 -0.10977749069E+03 -0.35301639357E+03  0.37874518216E+03  0.82280852238E+02 0.  0.
         23    2    1    2    0    0 -0.27723827254E+02  0.58921358026E+02 -0.48152380904E+03  0.49372107117E+03  0.87492744932E+02 0.  0.
        -11    1    3    3    0    0 -0.12042452527E+01 -0.59711444866E+02 -0.73155949169E+02  0.94438867811E+02  0.00000000000E+00 0.  1.
         12    1    3    3    0    0 -0.12661347914E+01 -0.50066045822E+02 -0.27986044440E+03  0.28430631435E+03  0.00000000000E+00 0. -1.
        -11    1    4    4    0    0 -0.48585802937E+02  0.40472611173E+01 -0.17708996945E+03  0.18367857210E+03  0.00000000000E+00 0.  1.
         11    1    4    4    0    0  0.20861975683E+02  0.54874096909E+02 -0.30443383959E+03  0.31004249907E+03  0.00000000000E+00 0. -1.
         21    1    1    2  502  501  0.30194207298E+02  0.50856132662E+02 -0.83751837278E+02  0.10253002795E+03  0.00000000000E+00 0. -1.
<scales pt_clust_5="13000.00000" pt_clust_6="13000.00000" pt_clust_7="13000.00000" pt_clust_8="13000.00000" pt_clust_9="59.14420"></scales>
<clustering>
<clus scale="   59.144">  1  9  2 -1</clus>
<clus scale="   82.281">  5  6 -1 -1</clus>
<clus scale="   87.493">  7  8 -1 -1</clus>
<clus scale="  112.966">  1  5  2 -1</clus>
<clus scale="  116.816">  2  5  1 -1</clus>
</clustering>
</event>
<event>
 9    2  0.5608219E-005  0.1293178E+03  0.7546771E-02  0.1231807E+00
          2   -1    0    0  502    0  0.00000000000E+00  0.00000000000E+00  0.26518615936E+03  0.26518615936E+03  0.00000000000E+00 0. -1.
         -1   -1    0    0    0  501 -0.00000000000E+00 -0.00000000000E+00 -0.22025874174E+03  0.22025874174E+03  0.00000000000E+00 0.  1.
         23    2    1    2    0    0 -0.38284295015E+02  0.64854915417E+02 -0.14551351701E+03  0.18835223835E+03  0.92900671472E+02 0.  0.
         24    2    1    2    0    0  0.82484707448E+02 -0.41870983162E+02  0.21031873721E+03  0.24345438689E+03  0.80493236237E+02 0.  0.
        -13    1    4    4    0    0  0.11417650533E+02  0.22626684185E+02  0.59720924930E+02  0.64876177873E+02  0.00000000000E+00 0.  1.
         14    1    4    4    0    0  0.71067056915E+02 -0.64497667347E+02  0.15059781228E+03  0.17857820902E+03  0.00000000000E+00 0. -1.
        -13    1    3    3    0    0 -0.41401580147E+02  0.34290210571E+02 -0.14806627087E+03  0.15752310925E+03  0.00000000000E+00 0.  1.
         13    1    3    3    0    0  0.31172851314E+01  0.30564704845E+02  0.25527538533E+01  0.30829129101E+02  0.00000000000E+00 0. -1.
         21    1    1    2  502  501 -0.44200412433E+02 -0.22983932255E+02 -0.19877802589E+02  0.53638275857E+02  0.00000000000E+00 0.  1.
<scales pt_clust_5="13000.00000" pt_clust_6="13000.00000" pt_clust_7="13000.00000" pt_clust_8="13000.00000" pt_clust_9="49.81905"></scales>
<clustering>
<clus scale="   49.819">  2  9  1 -1</clus>
<clus scale="   80.493">  5  6 -1 -1</clus>
<clus scale="   92.901">  7  8 -1 -1</clus>
<clus scale="  120.713">  1  5  2 -1</clus>
<clus scale="  120.713">  1  5  2 -1</clus>
</clustering>
</event>
<event>
 9    2  0.5608219E-005  0.1101333E+03  0.7546771E-02  0.1264271E+00
          2   -1    0    0  502    0  0.00000000000E+00  0.00000000000E+00  0.31776855585E+03  0.31776855585E+03  0.00000000000E+00 0. -1.
         -1   -1    0    0    0  501 -0.00000000000E+00 -0.00000000000E+00 -0.31662171398E+03  0.31662171398E+03  0.00000000000E+00 0.  1.
         23    2    1    2    0    0 -0.42782292870E+02  0.48417056906E+02 -0.16622566828E+03  0.20008084164E+03  0.90701898620E+02 0.  0.
         24    2    1    2    0    0 -0.32700736399E+02 -0.55629933700E+02  0.28006605407E+03  0.29848031445E+03  0.80557282651E+02 0.  0.
        -13    1    4    4    0    0 -0.49765313815E+02 -0.65920423298E+02  0.23820011893E+03  0.25211383406E+03  0.00000000000E+00 0.  1.
         14    1    4    4    0    0  0.17064577416E+02  0.10290489599E+02  0.41865935136E+02  0.46366480386E+02  0.00000000000E+00 0. -1.
        -11    1    3    3    0    0 -0.21040583035E+02 -0.23894648584E+02 -0.27209312701E+02  0.41880867506E+02  0.00000000000E+00 0. -1.
         11    1    3    3    0    0 -0.21741709835E+02  0.72311705489E+02 -0.13901635558E+03  0.15819997414E+03  0.00000000000E+00 0.  1.
         21    1    1    2  502  501  0.75483029269E+02  0.72128767939E+01 -0.11269354392E+03  0.13582911374E+03  0.00000000000E+00 0.  1.
<scales pt_clust_5="13000.00000" pt_clust_6="13000.00000" pt_clust_7="13000.00000" pt_clust_8="13000.00000" pt_clust_9="75.82686"></scales>
<clustering>
<clus scale="   75.827">  2  9  1 -1</clus>
<clus scale="   80.557">  5  6 -1 -1</clus>
<clus scale="   90.702">  7  8 -1 -1</clus>
<clus scale="  101.941">  1  5  2 -1</clus>
<clus scale="  101.941">  1  5  2 -1</clus>
</clustering>
</event>
<event>
 9    2  0.5608219E-005  0.1244911E+03  0.7546771E-02  0.1238832E+00
          2   -1    0    0  502    0  0.00000000000E+00  0.00000000000E+00  0.81299488296E+03  0.81299488296E+03  0.00000000000E+00 0. -1.
         -1   -1    0    0    0  501 -0.00000000000E+00 -0.00000000000E+00 -0.32966886651E+02  0.32966886651E+02  0.00000000000E+00 0.  1.
         23    2    1    2    0    0 -0.31030695434E+02 -0.74388990854E+02  0.12775941316E+03  0.17667572759E+03  0.91625427954E+02 0.  0.
         24    2    1    2    0    0  0.29314701924E+02  0.94614744968E+02  0.59076713378E+03  0.60452143721E+03  0.81419039353E+02 0.  0.
        -13    1    4    4    0    0  0.70354420940E+01  0.25685660884E+02  0.34629895231E+02  0.43686156437E+02  0.00000000000E+00 0.  1.
         14    1    4    4    0    0  0.22279259830E+02  0.68929084084E+02  0.55613723855E+03  0.56083528077E+03  0.00000000000E+00 0. -1.
        -13    1    3    3    0    0 -0.21139852217E+02  0.18779166923E+02  0.32072212369E+02  0.42757189668E+02  0.00000000000E+00 0. -1.
         13    1    3    3    0    0 -0.98908432174E+01 -0.93168157776E+02  0.95687200793E+02  0.13391853792E+03  0.00000000000E+00 0.  1.
         21    1    1    2  502  501  0.17159935106E+01 -0.20225754114E+02  0.61501449362E+02  0.64764604815E+02  0.00000000000E+00 0.  1.
<scales pt_clust_5="13000.00000" pt_clust_6="13000.00000" pt_clust_7="13000.00000" pt_clust_8="13000.00000" pt_clust_9="20.29842"></scales>
<clustering>
<clus scale="   20.298">  1  9  2 -1</clus>
<clus scale="   81.419">  5  6 -1 -1</clus>
<clus scale="   91.625">  7  8 -1 -1</clus>
<clus scale="  117.183">  1  5  2 -1</clus>
<clus scale="   20.298">  1  5  2 -1</clus>
</clustering>
</event>
<event>
 9    2  0.5608219E-005  0.9534794E+02  0.7546771E-02  0.1295680E+00
          2   -1    0    0  502    0  0.00000000000E+00  0.00000000000E+00  0.40156354354E+03  0.40156354354E+03  0.00000000000E+00 0. -1.
         -1   -1    0    0    0  501 -0.00000000000E+00 -0.00000000000E+00 -0.35889213379E+02  0.35889213379E+02  0.00000000000E+00 0.  1.
         23    2    1    2    0    0  0.15764762920E+02  0.36810112468E+02  0.11170882088E+03  0.14987374311E+03  0.91541062274E+02 0.  0.
         24    2    1    2    0    0  0.25499192612E+02 -0.13673074197E+02  0.15268703614E+03  0.17579634213E+03  0.82181878286E+02 0.  0.
        -13    1    4    4    0    0 -0.30154016034E+02 -0.48628294050E+01  0.59978933879E+02  0.67308129539E+02  0.00000000000E+00 0.  1.
         14    1    4    4    0    0  0.55653208646E+02 -0.88102447921E+01  0.92708102264E+02  0.10848821259E+03  0.00000000000E+00 0. -1.
        -11    1    3    3    0    0  0.24885361537E+02  0.64418642313E+02  0.90718947317E+02  0.11401302600E+03  0.00000000000E+00 0.  1.
         11    1    3    3    0    0 -0.91205986177E+01 -0.27608529845E+02  0.20989873564E+02  0.35860717109E+02  0.00000000000E+00 0. -1.
         21    1    1    2  502  501 -0.41263955531E+02 -0.23137038271E+02  0.10127847314E+03  0.11178267168E+03  0.00000000000E+00 0.  1.
<scales pt_clust_5="13000.00000" pt_clust_6="13000.00000" pt_clust_7="13000.00000" pt_clust_8="13000.00000" pt_clust_9="47.30789"></scales>
<clustering>
<clus scale="   47.308">  1  9  2 -1</clus>
<clus scale="   82.182">  5  6 -1 -1</clus>
<clus scale="   86.402">  1  5  2 -1</clus>
<clus scale="   91.541">  7  8 -1 -1</clus>
<clus scale="   47.308">  1  5  2 -1</clus>
</clustering>
</event>
<event>
 9    2  0.5608219E-005  0.1010341E+03  0.7546771E-02  0.1283826E+00
         -1   -1    0    0    0  501 -0.00000000000E+00  0.00000000000E+00  0.83030849422E+02  0.83030849422E+02  0.00000000000E+00 0.  1.
          2   -1    0    0  502    0  0.00000000000E+00 -0.00000000000E+00 -0.49312801423E+03  0.49312801423E+03  0.00000000000E+00 0. -1.
         24    2    1    2    0    0  0.24676166309E+02 -0.26455192878E+02  0.27551647152E+01  0.87529667657E+02  0.79655893527E+02 0.  0.
         23    2    1    2    0    0 -0.44323795701E+02 -0.15699787886E+02 -0.42766665011E+03  0.43981796944E+03  0.91268835976E+02 0.  0.
        -13    1    3    3    0    0 -0.90638774199E+01  0.24416172622E+02  0.46540530668E+01  0.26456824627E+02  0.00000000000E+00 0.  1.
         14    1    3    3    0    0  0.33740043729E+02 -0.50871365501E+02 -0.18988883516E+01  0.61072843029E+02  0.00000000000E+00 0. -1.
        -11    1    4    4    0    0  0.27470746007E+02  0.11137127712E+01 -0.15163234938E+03  0.15410467748E+03  0.00000000000E+00 0.  1.
         11    1    4    4    0    0 -0.71794541708E+02 -0.16813500657E+02 -0.27603430073E+03  0.28571329196E+03  0.00000000000E+00 0. -1.
         21    1    1    2  502  501  0.19647629392E+02  0.42154980765E+02  0.14814320583E+02  0.48811226560E+02  0.00000000000E+00 0.  1.
<scales pt_clust_5="13000.00000" pt_clust_6="13000.00000" pt_clust_7="13000.00000" pt_clust_8="13000.00000" pt_clust_9="46.50884"></scales>
<clustering>
<clus scale="   46.509">  1  9  2 -1</clus>
<clus scale="   79.656">  5  6 -1 -1</clus>
<clus scale="   90.681">  1  5  2 -1</clus>
<clus scale="   91.269">  7  8 -1 -1</clus>
<clus scale="  101.034">  2  5  1 -1</clus>
</clustering>
</event>
<event>
 9    2  0.5608219E-005  0.1718141E+03  0.7546771E-02  0.1177334E+00
         -1   -1    0    0    0  501 -0.00000000000E+00  0.00000000000E+00  0.50814717118E+02  0.50814717118E+02  0.00000000000E+00 0.  1.
          2   -1    0    0  502    0  0.00000000000E+00 -0.00000000000E+00 -0.86289182677E+03  0.86289182677E+03  0.00000000000E+00 0. -1.
         23    2    1    2    0    0  0.14779819628E+03  0.41467175182E+02 -0.35630243748E+03  0.39886287025E+03  0.92608470838E+02 0.  0.
         24    2    1    2    0    0 -0.14137334869E+03  0.51472064233E+01 -0.43224785463E+03  0.46223483044E+03  0.82522198141E+02 0.  0.
        -11    1    4    4    0    0 -0.73396148601E+02  0.22933496855E+02 -0.12263673890E+03  0.14475050824E+03  0.00000000000E+00 0.  1.
         12    1    4    4    0    0 -0.67977200087E+02 -0.17786290432E+02 -0.30961111573E+03  0.31748432220E+03  0.00000000000E+00 0. -1.
        -13    1    3    3    0    0  0.10045624565E+03  0.37241949190E+00 -0.13148621423E+03  0.16546969668E+03  0.00000000000E+00 0.  1.
         13    1    3    3    0    0  0.47341950628E+02  0.41094755690E+02 -0.22481622325E+03  0.23339317357E+03  0.00000000000E+00 0. -1.
         21    1    1    2  502  501 -0.64248475890E+01 -0.46614381605E+02 -0.23526817545E+02  0.52608843199E+02  0.00000000000E+00 0. -1.
<scales pt_clust_5="13000.00000" pt_clust_6="13000.00000" pt_clust_7="13000.00000" pt_clust_8="13000.00000" pt_clust_9="47.05507"></scales>
<clustering>
<clus scale="   47.055">  1  9  2 -1</clus>
<clus scale="   82.522">  5  6 -1 -1</clus>
<clus scale="   92.608">  7  8 -1 -1</clus>
<clus scale="  166.594">  2  5  1 -1</clus>
<clus scale="  166.594">  2  5  1 -1</clus>
</clustering>
</event>
<event>
 9    2  0.5608219E-005  0.9286698E+02  0.7546771E-02  0.1305728E+00
         -1   -1    0    0    0  501 -0.00000000000E+00  0.00000000000E+00  0.26556438965E+03  0.26556438965E+03  0.00000000000E+00 0.  1.
          2   -1    0    0  502    0  0.00000000000E+00 -0.00000000000E+00 -0.13904423621E+03  0.13904423621E+03  0.00000000000E+00 0. -1.
         23    2    1    2    0    0 -0.11684802644E+02 -0.14277090090E+02  0.20060345383E+03  0.22147888787E+03  0.92036852235E+02 0.  0.
         24    2    1    2    0    0 -0.24942421961E+01 -0.53669263436E+02 -0.62899369342E+02  0.11282445666E+03  0.76722984001E+02 0.  0.
        -11    1    4    4    0    0 -0.18966114382E+02 -0.61182427881E+02 -0.21378356017E+02  0.67528046634E+02  0.00000000000E+00 0.  1.
         12    1    4    4    0    0  0.16471872186E+02  0.75131644448E+01 -0.41521013325E+02  0.45296410022E+02  0.00000000000E+00 0. -1.
        -11    1    3    3    0    0 -0.18893940300E+02 -0.49291503481E+02  0.81300800476E+02  0.96935305506E+02  0.00000000000E+00 0.  1.
         11    1    3    3    0    0  0.72091376556E+01  0.35014413391E+02  0.11930265335E+03  0.12454358237E+03  0.00000000000E+00 0. -1.
         21    1    1    2  502  501  0.14179044840E+02  0.67946353526E+02 -0.11183931054E+02  0.70305281337E+02  0.00000000000E+00 0.  1.
<scales pt_clust_5="13000.00000" pt_clust_6="13000.00000" pt_clust_7="13000.00000" pt_clust_8="13000.00000" pt_clust_9="69.41003"></scales>
<clustering>
<clus scale="   69.410">  2  9  1 -1</clus>
<clus scale="   76.723">  5  6 -1 -1</clus>
<clus scale="   77.717">  2  5  1 -1</clus>
<clus scale="   92.037">  7  8 -1 -1</clus>
<clus scale="   69.410">  2  5  1 -1</clus>
</clustering>
</event>
<event>
 9    2  0.5608219E-005  0.1649505E+03  0.7546771E-02  0.1212538E+00
         -1   -1    0    0    0  501 -0.00000000000E+00  0.00000000000E+00  0.63895167094E+02  0.63895167094E+02  0.00000000000E+00 0.  1.
          2   -1    0    0  502    0  0.00000000000E+00 -0.00000000000E+00 -0.13349670440E+04  0.13349670440E+04  0.00000000000E+00 0. -1.
         24    2    1    2    0    0  0.11005568019E+02 -0.30559410518E+02 -0.12023170053E+02  0.87872854843E+02  0.80759407511E+02 0.  0.
         23    2    1    2    0    0  0.49992783655E+02 -0.11899348731E+03 -0.94184980572E+03  0.95503709677E+03  0.91411548591E+02 0.  0.
        -13    1    3    3    0    0 -0.27875378269E+02 -0.38244885317E+02 -0.45789976347E+01  0.47546558087E+02  0.00000000000E+00 0.  1.
         14    1    3    3    0    0  0.38880946287E+02  0.76854747997E+01 -0.74441724179E+01  0.40326296756E+02  0.00000000000E+00 0. -1.
        -13    1    4    4    0    0  0.74682486141E+02 -0.10747242232E+03 -0.78770756173E+03  0.79850547782E+03  0.00000000000E+00 0.  1.
         13    1    4    4    0    0 -0.24689702487E+02 -0.11521064990E+02 -0.15414224399E+03  0.15653161895E+03  0.00000000000E+00 0. -1.
         21    1    1    2  502  501 -0.60998351674E+02  0.14955289782E+03 -0.31719890111E+03  0.35595225947E+03  0.00000000000E+00 0.  1.
<scales pt_clust_5="13000.00000" pt_clust_6="13000.00000" pt_clust_7="13000.00000" pt_clust_8="13000.00000" pt_clust_9="137.30478"></scales>
<clustering>
<clus scale="   80.759">  5  6 -1 -1</clus>
<clus scale="   87.046">  1  5  2 -1</clus>
<clus scale="   91.412">  7  8 -1 -1</clus>
<clus scale="  137.305">  1  9  2 -1</clus>
<clus scale="  164.951">  2  5  1 -1</clus>
</clustering>
</event>
<event>
 9    2  0.5608219E-005  0.3209039E+03  0.7546771E-02  0.1075234E+00
          2   -1    0    0  502    0  0.00000000000E+00  0.00000000000E+00  0.69972955909E+03  0.69972955909E+03  0.00000000000E+00 0. -1.
         -1   -1    0    0    0  501 -0.00000000000E+00 -0.00000000000E+00 -0.17751580200E+03  0.17751580200E+03  0.00000000000E+00 0.  1.
         24    2    1    2    0    0  0.17631646044E+03 -0.65713821236E+02  0.23576193454E+02  0.20522962799E+03  0.78470139434E+02 0.  0.
         23    2    1    2    0    0  0.23466578573E+02 -0.74958679887E+02 -0.23218566376E+00  0.11652222098E+03  0.86069100563E+02 0.  0.
        -11    1    3    3    0    0  0.94351640921E+02 -0.76081119773E+02  0.16214606472E+02  0.12228443234E+03  0.00000000000E+00 0.  1.
         12    1    3    3    0    0  0.81964819518E+02  0.10367298537E+02  0.73615869819E+01  0.82945195645E+02  0.00000000000E+00 0. -1.
        -11    1    4    4    0    0  0.25476850789E+02 -0.49725354850E+02 -0.40466696905E+02  0.68987204607E+02  0.00000000000E+00 0.  1.
         11    1    4    4    0    0 -0.20102722164E+01 -0.25233325037E+02  0.40234511241E+02  0.47535016373E+02  0.00000000000E+00 0. -1.
         21    1    1    2  502  501 -0.19978303901E+03  0.14067250112E+03  0.49886974930E+03  0.55549351212E+03  0.00000000000E+00 0. -1.
<scales pt_clust_5="13000.00000" pt_clust_6="13000.00000" pt_clust_7="13000.00000" pt_clust_8="13000.00000" pt_clust_9="244.33996"></scales>
<clustering>
<clus scale="   78.470">  5  6 -1 -1</clus>
<clus scale="   86.069">  7  8 -1 -1</clus>
<clus scale="  113.564">  5  7 -1 -1</clus>
<clus scale="  244.340">  1  9  2 -1</clus>
<clus scale="  244.340">  1  5  2 -1</clus>
</clustering>
</event>
<event>
 9    2  0.5608219E-005  0.1781757E+03  0.7546771E-02  0.1171001E+00
         -1   -1    0    0    0  501 -0.00000000000E+00  0.00000000000E+00  0.88397009325E+02  0.88397009325E+02  0.00000000000E+00 0.  1.
          2   -1    0    0  502    0  0.00000000000E+00 -0.00000000000E+00 -0.86538293622E+03  0.86538293622E+03  0.00000000000E+00 0. -1.
         24    2    1    2    0    0 -0.11193834244E+03  0.13274322658E+03 -0.88628284825E+02  0.21049463236E+03  0.79385519257E+02 0.  0.
         23    2    1    2    0    0  0.10434581445E+03 -0.10711016462E+03 -0.69418202853E+03  0.71592432226E+03  0.91095060854E+02 0.  0.
        -13    1    3    3    0    0 -0.11323817516E+03  0.14178585785E+03 -0.86925257758E+02  0.20120167553E+03  0.00000000000E+00 0.  1.
         14    1    3    3    0    0  0.12998327254E+01 -0.90426312662E+01 -0.17030270677E+01  0.92929568235E+01  0.00000000000E+00 0. -1.
        -13    1    4    4    0    0 -0.14091288365E+02 -0.29402015714E+02 -0.15933380696E+03  0.16263549728E+03  0.00000000000E+00 0.  1.
         13    1    4    4    0    0  0.11843710281E+03 -0.77708148902E+02 -0.53484822157E+03  0.55328882497E+03  0.00000000000E+00 0. -1.
         21    1    1    2  502  501  0.75925279933E+01 -0.25633061967E+02  0.58243864582E+01  0.27360990932E+02  0.00000000000E+00 0.  1.
<scales pt_clust_5="13000.00000" pt_clust_6="13000.00000" pt_clust_7="13000.00000" pt_clust_8="13000.00000" pt_clust_9="26.73388"></scales>
<clustering>
<clus scale="   26.734">  1  9  2 -1</clus>
<clus scale="   79.386">  5  6 -1 -1</clus>
<clus scale="   91.095">  7  8 -1 -1</clus>
<clus scale="  172.483">  1  5  2 -1</clus>
<clus scale="  178.176">  2  5  1 -1</clus>
</clustering>
</event>
<event>
 9    2  0.5608219E-005  0.9736339E+02  0.7546771E-02  0.1291331E+00
          2   -1    0    0  502    0  0.00000000000E+00  0.00000000000E+00  0.30136437252E+03  0.30136437252E+03  0.00000000000E+00 0. -1.
         -1   -1    0    0    0  501 -0.00000000000E+00 -0.00000000000E+00 -0.20364656439E+03  0.20364656439E+03  0.00000000000E+00 0.  1.
         23    2    1    2    0    0 -0.11744118237E+02 -0.96061624299E+01 -0.12036196858E+03  0.15165985052E+03  0.91013757808E+02 0.  0.
         24    2    1    2    0    0 -0.48881507135E+01 -0.36665741130E+02  0.26854146811E+03  0.28289469045E+03  0.80911156207E+02 0.  0.
        -13    1    4    4    0    0 -0.24079068555E+02  0.18240373200E+02  0.10785881081E+03  0.11200908814E+03  0.00000000000E+00 0.  1.
         14    1    4    4    0    0  0.19190917842E+02 -0.54906114330E+02  0.16068265730E+03  0.17088560230E+03  0.00000000000E+00 0. -1.
        -13    1    3    3    0    0  0.22868004138E+02  0.16340823570E+02 -0.99952393589E+02  0.10382894159E+03  0.00000000000E+00 0.  1.
         13    1    3    3    0    0 -0.34612122375E+02 -0.25946986000E+02 -0.20409574992E+02  0.47830908930E+02  0.00000000000E+00 0. -1.
         21    1    1    2  502  501  0.16632268950E+02  0.46271903560E+02 -0.50461691400E+02  0.70456395937E+02  0.00000000000E+00 0.  1.
<scales pt_clust_5="13000.00000" pt_clust_6="13000.00000" pt_clust_7="13000.00000" pt_clust_8="13000.00000" pt_clust_9="49.17033"></scales>
<clustering>
<clus scale="   49.170">  2  9  1 -1</clus>
<clus scale="   80.911">  5  6 -1 -1</clus>
<clus scale="   87.993">  1  5  2 -1</clus>
<clus scale="   91.014">  7  8 -1 -1</clus>
<clus scale="   87.993">  1  5  2 -1</clus>
</clustering>
</event>
<event>
 9    2  0.6170640E-005  0.1769891E+03  0.7546771E-02  0.1172036E+00
         -1   -1    0    0    0  501 -0.00000000000E+00  0.00000000000E+00  0.40054601397E+03  0.40054601397E+03  0.00000000000E+00 0.  1.
          2   -1    0    0  502    0  0.00000000000E+00 -0.00000000000E+00 -0.85686677616E+03  0.85686677616E+03  0.00000000000E+00 0. -1.
         23    2    1    2    0    0  0.82251006971E+02  0.12837285437E+03  0.36596683690E+03  0.40666665820E+03  0.90560627720E+02 0.  0.
         24    2    1    2    0    0 -0.94422832395E+02 -0.10147109870E+03 -0.79357560327E+03  0.80956074015E+03  0.80089317272E+02 0.  0.
        -11    1    4    4    0    0 -0.30126250857E+02 -0.77749897690E+02 -0.30462818735E+03  0.31583376974E+03  0.00000000000E+00 0.  1.
         12    1    4    4    0    0 -0.64296581537E+02 -0.23721201008E+02 -0.48894741592E+03  0.49372697041E+03  0.00000000000E+00 0. -1.
        -13    1    3    3    0    0  0.96252601730E+02  0.10101106499E+03  0.24588946657E+03  0.28271793074E+03  0.00000000000E+00 0.  1.
         13    1    3    3    0    0 -0.14001594759E+02  0.27361789372E+02  0.12007737033E+03  0.12394872746E+03  0.00000000000E+00 0. -1.
         21    1    1    2  502  501  0.12171825424E+02 -0.26901755667E+02 -0.28711995818E+02  0.41185391779E+02  0.00000000000E+00 0.  1.
<scales pt_clust_5="13000.00000" pt_clust_6="13000.00000" pt_clust_7="13000.00000" pt_clust_8="13000.00000" pt_clust_9="29.52724"></scales>
<clustering>
<clus scale="   29.527">  2  9  1 -1</clus>
<clus scale="   80.089">  5  6 -1 -1</clus>
<clus scale="   90.561">  7  8 -1 -1</clus>
<clus scale="  171.867">  2  5  1 -1</clus>
<clus scale="   29.527">  2  5  1 -1</clus>
</clustering>
</event>
<event>
 9    2  0.5608219E-005  0.1259116E+03  0.7546771E-02  0.1236442E+00
          2   -1    0    0  502    0  0.00000000000E+00  0.00000000000E+00  0.48952884092E+03  0.48952884092E+03  0.00000000000E+00 0. -1.
         -1   -1    0    0    0  501 -0.00000000000E+00 -0.00000000000E+00 -0.82233271239E+02  0.82233271239E+02  0.00000000000E+00 0.  1.
         23    2    1    2    0    0  0.58717699601E+02  0.58055808352E+02  0.63085933772E+02  0.13664048241E+03  0.88727342258E+02 0.  0.
         24    2    1    2    0    0 -0.47362074598E+02 -0.78401973336E+02  0.37647228067E+03  0.39532470906E+03  0.78487017688E+02 0.  0.
        -13    1    4    4    0    0 -0.48004278972E+01 -0.31584950600E+02  0.32468487519E+02  0.45550586101E+02  0.00000000000E+00 0.  1.
         14    1    4    4    0    0 -0.42561646701E+02 -0.46817022737E+02  0.34400379315E+03  0.34977412296E+03  0.00000000000E+00 0. -1.
        -13    1    3    3    0    0  0.53263738834E+00 -0.20906218461E+02  0.18147066805E+01  0.20991589584E+02  0.00000000000E+00 0. -1.
         13    1    3    3    0    0  0.58185062213E+02  0.78962026813E+02  0.61271227091E+02  0.11564889283E+03  0.00000000000E+00 0.  1.
         21    1    1    2  502  501 -0.11355625003E+02  0.20346164984E+02 -0.32262644765E+02  0.39796920685E+02  0.00000000000E+00 0.  1.
<scales pt_clust_5="13000.00000" pt_clust_6="13000.00000" pt_clust_7="13000.00000" pt_clust_8="13000.00000" pt_clust_9="23.30057"></scales>
<clustering>
<clus scale="   23.301">  2  9  1 -1</clus>
<clus scale="   78.487">  5  6 -1 -1</clus>
<clus scale="   88.727">  7  8 -1 -1</clus>
<clus scale="  118.918">  1  5  2 -1</clus>
<clus scale="  118.918">  1  5  2 -1</clus>
</clustering>
</event>
<event>
 9    2  0.5608219E-005  0.1802743E+03  0.7546771E-02  0.1168891E+00
         -1   -1    0    0    0  501 -0.00000000000E+00  0.00000000000E+00  0.22397207242E+03  0.22397207242E+03  0.00000000000E+00 0.  1.
          2   -1    0    0  502    0  0.00000000000E+00 -0.00000000000E+00 -0.41460673313E+03  0.41460673313E+03  0.00000000000E+00 0. -1.
         24    2    1    2    0    0  0.18875338074E+02  0.11346018906E+03  0.92449696123E+02  0.16792111713E+03  0.80131531726E+02 0.  0.
         23    2    1    2    0    0 -0.47790193801E+02 -0.15564385259E+03 -0.34380688100E+03  0.39126779427E+03  0.91533621891E+02 0.  0.
        -11    1    3    3    0    0 -0.65984874986E+01  0.10358478553E+03  0.44918749615E+02  0.11309748847E+03  0.00000000000E+00 0.  1.
         12    1    3    3    0    0  0.25473825573E+02  0.98754035323E+01  0.47530946508E+02  0.54823628667E+02  0.00000000000E+00 0. -1.
        -11    1    4    4    0    0 -0.74930022712E+02 -0.11242583245E+03 -0.26347407389E+03  0.29609570027E+03  0.00000000000E+00 0. -1.
         11    1    4    4    0    0  0.27139828910E+02 -0.43218020144E+02 -0.80332807114E+02  0.95172094005E+02  0.00000000000E+00 0.  1.
         21    1    1    2  502  501  0.28914855727E+02  0.42183663527E+02  0.60722524170E+02  0.79389894142E+02  0.00000000000E+00 0.  1.
<scales pt_clust_5="13000.00000" pt_clust_6="13000.00000" pt_clust_7="13000.00000" pt_clust_8="13000.00000" pt_clust_9="51.14226"></scales>
<clustering>
<clus scale="   51.142">  1  9  2 -1</clus>
<clus scale="   80.132">  5  6 -1 -1</clus>
<clus scale="   91.534">  7  8 -1 -1</clus>
<clus scale="  174.761">  1  5  2 -1</clus>
<clus scale="  180.274">  2  5  1 -1</clus>
</clustering>
</event>
<event>
 9    2  0.5608219E-005  0.1149388E+03  0.7546771E-02  0.1257204E+00
          4   -1    0    0  502    0  0.00000000000E+00  0.00000000000E+00  0.35473260147E+03  0.35473260147E+03  0.00000000000E+00 0. -1.
         -3   -1    0    0    0  501 -0.00000000000E+00 -0.00000000000E+00 -0.16386955845E+03  0.16386955845E+03  0.00000000000E+00 0.  1.
         23    2    1    2    0    0 -0.24293857669E+02  0.41272147775E+02  0.83666507004E+01  0.10322693543E+03  0.91061614590E+02 0.  0.
         24    2    1    2    0    0  0.80134528708E+02  0.21036161510E+02  0.27119596281E+03  0.29344032484E+03  0.75471260893E+02 0.  0.
        -11    1    4    4    0    0  0.39077760234E+02  0.87434769977E+01  0.34380962032E+02  0.52778502111E+02  0.00000000000E+00 0.  1.
         12    1    4    4    0    0  0.41056768475E+02  0.12292684512E+02  0.23681500077E+03  0.24066182273E+03  0.00000000000E+00 0. -1.
        -13    1    3    3    0    0 -0.34032313243E+02  0.67025471002E+02  0.33844770822E+01  0.75246706192E+02  0.00000000000E+00 0. -1.
         13    1    3    3    0    0  0.97384555739E+01 -0.25753323227E+02  0.49821736182E+01  0.27980229237E+02  0.00000000000E+00 0.  1.
         21    1    1    2  502  501 -0.55840671039E+02 -0.62308309285E+02 -0.88699570485E+02  0.12193489965E+03  0.00000000000E+00 0.  1.
<scales pt_clust_5="13000.00000" pt_clust_6="13000.00000" pt_clust_7="13000.00000" pt_clust_8="13000.00000" pt_clust_9="83.66903"></scales>
<clustering>
<clus scale="   75.471">  5  6 -1 -1</clus>
<clus scale="   83.669">  2  9  1 -1</clus>
<clus scale="   91.062">  7  8 -1 -1</clus>
<clus scale="  103.027">  1  5  2 -1</clus>
<clus scale="  103.027">  1  5  2 -1</clus>
</clustering>
</event>
<event>
 9    2  0.5608219E-005  0.1831387E+03  0.7546771E-02  0.1190200E+00
         -1   -1    0    0    0  501 -0.00000000000E+00  0.00000000000E+00  0.34027296710E+03  0.34027296710E+03  0.00000000000E+00 0.  1.
          2   -1    0    0  502    0  0.00000000000E+00 -0.00000000000E+00 -0.15328056712E+03  0.15328056712E+03  0.00000000000E+00 0. -1.
         24    2    1    2    0    0 -0.36633494239E+02 -0.53535176012E+02  0.64060765584E+02  0.12147013498E+03  0.80269446447E+02 0.  0.
         23    2    1    2    0    0  0.16314087366E+03  0.87090584074E+02  0.23275535482E+02  0.20757984151E+03  0.91366982854E+02 0.  0.
        -13    1    3    3    0    0 -0.51145475942E+02 -0.66370523065E+02  0.50692758719E+02  0.97931924456E+02  0.00000000000E+00 0.  1.
         14    1    3    3    0    0  0.14511981702E+02  0.12835347053E+02  0.13368006866E+02  0.23538210519E+02  0.00000000000E+00 0. -1.
        -11    1    4    4    0    0  0.48788024142E+02  0.63976546362E+02 -0.20407445971E+02  0.83004419372E+02  0.00000000000E+00 0.  1.
         11    1    4    4    0    0  0.11435284951E+03  0.23114037712E+02  0.43682981453E+02  0.12457542213E+03  0.00000000000E+00 0. -1.
         21    1    1    2  502  501 -0.12650737942E+03 -0.33555408062E+02  0.99656098917E+02  0.16450355774E+03  0.00000000000E+00 0.  1.
<scales pt_clust_5="13000.00000" pt_clust_6="13000.00000" pt_clust_7="13000.00000" pt_clust_8="13000.00000" pt_clust_9="158.71947"></scales>
<clustering>
<clus scale="   80.269">  5  6 -1 -1</clus>
<clus scale="   91.367">  7  8 -1 -1</clus>
<clus scale="  103.205">  1  5  2 -1</clus>
<clus scale="  158.719">  1  9  2 -1</clus>
<clus scale="  183.139">  2  5  1 -1</clus>
</clustering>
</event>
<event>
 9    2  0.5608219E-005  0.9713763E+02  0.7546771E-02  0.1291416E+00
          2   -1    0    0  502    0  0.00000000000E+00  0.00000000000E+00  0.49252689890E+03  0.49252689890E+03  0.00000000000E+00 0. -1.
         -1   -1    0    0    0  501 -0.00000000000E+00 -0.00000000000E+00 -0.56430839002E+02  0.56430839002E+02  0.00000000000E+00 0.  1.
         24    2    1    2    0    0 -0.41880408725E+02 -0.75765326629E+01  0.20030768338E+02  0.94591440509E+02  0.82066658609E+02 0.  0.
         23    2    1    2    0    0  0.26075301717E+02 -0.21063070952E+02  0.40963039910E+03  0.42102808893E+03  0.91345571791E+02 0.  0.
        -11    1    3    3    0    0 -0.32213360960E+02 -0.40697921500E+02 -0.47357814946E+01  0.52119565090E+02  0.00000000000E+00 0.  1.
         12    1    3    3    0    0 -0.96670477642E+01  0.33121388837E+02  0.24766549833E+02  0.42471875419E+02  0.00000000000E+00 0. -1.
        -13    1    4    4    0    0 -0.25185795019E+00 -0.51437031070E+02  0.29742709103E+03  0.30184218737E+03  0.00000000000E+00 0.  1.
         13    1    4    4    0    0  0.26327159667E+02  0.30373960118E+02  0.11220330806E+03  0.11918590156E+03  0.00000000000E+00 0. -1.
         21    1    1    2  502  501  0.15805107008E+02  0.28639603615E+02  0.64348924660E+01  0.33338208467E+02  0.00000000000E+00 0.  1.
<scales pt_clust_5="13000.00000" pt_clust_6="13000.00000" pt_clust_7="13000.00000" pt_clust_8="13000.00000" pt_clust_9="32.71129"></scales>
<clustering>
<clus scale="   32.711">  2  9  1 -1</clus>
<clus scale="   82.067">  5  6 -1 -1</clus>
<clus scale="   88.468">  2  5  1 -1</clus>
<clus scale="   91.346">  7  8 -1 -1</clus>
<clus scale="   97.138">  1  5  2 -1</clus>
</clustering>
</event>
<event>
 9    2  0.5608219E-005  0.2132931E+03  0.7546771E-02  0.1156175E+00
         -1   -1    0    0    0  501 -0.00000000000E+00  0.00000000000E+00  0.18169533098E+03  0.18169533098E+03  0.00000000000E+00 0.  1.
          2   -1    0    0  502    0  0.00000000000E+00 -0.00000000000E+00 -0.48224689704E+03  0.48224689704E+03  0.00000000000E+00 0. -1.
         24    2    1    2    0    0  0.88783285514E+02  0.20285720266E+03 -0.11526073036E+02  0.23591527998E+03  0.80558379525E+02 0.  0.
         23    2    1    2    0    0  0.49093757352E+02 -0.96679339042E+02 -0.13094571441E+03  0.19292477009E+03  0.91192626794E+02 0.  0.
        -11    1    3    3    0    0  0.82131974162E+02  0.11360802820E+03  0.18751499982E+02  0.14143572393E+03  0.00000000000E+00 0.  1.
         12    1    3    3    0    0  0.66513113522E+01  0.89249174461E+02 -0.30277573018E+02  0.94479556056E+02  0.00000000000E+00 0. -1.
        -13    1    4    4    0    0  0.45961392036E+02 -0.16645337707E+02 -0.91281680465E+02  0.10354642444E+03  0.00000000000E+00 0. -1.
         13    1    4    4    0    0  0.31323653157E+01 -0.80034001335E+02 -0.39664033950E+02  0.89378345652E+02  0.00000000000E+00 0.  1.
         21    1    1    2  502  501 -0.13787704287E+03 -0.10617786362E+03 -0.15807977861E+03  0.23510217795E+03  0.00000000000E+00 0. -1.
<scales pt_clust_5="13000.00000" pt_clust_6="13000.00000" pt_clust_7="13000.00000" pt_clust_8="13000.00000" pt_clust_9="197.49501"></scales>
<clustering>
<clus scale="   80.558">  5  6 -1 -1</clus>
<clus scale="   91.193">  7  8 -1 -1</clus>
<clus scale="  141.680">  2  7  1 -1</clus>
<clus scale="  197.495">  2  9  1 -1</clus>
<clus scale="  141.680">  2  5  1 -1</clus>
</clustering>
</event>
<event>
 9    2  0.5608219E-005  0.1640794E+03  0.7546771E-02  0.1185393E+00
         -1   -1    0    0    0  501 -0.00000000000E+00  0.00000000000E+00  0.12601706952E+03  0.12601706952E+03  0.00000000000E+00 0.  1.
          2   -1    0    0  502    0  0.00000000000E+00 -0.00000000000E+00 -0.29985792573E+03  0.29985792573E+03  0.00000000000E+00 0. -1.
         24    2    1    2    0    0 -0.12273133820E+03 -0.93146287063E+02 -0.52553135650E+02  0.18255912230E+03  0.82624384393E+02 0.  0.
         23    2    1    2    0    0  0.99246864432E+02  0.79653680725E+02 -0.14040717540E+03  0.21016282653E+03  0.90882285382E+02 0.  0.
        -13    1    3    3    0    0 -0.29704178803E+02 -0.47793967230E+02  0.15899853272E+02  0.58475694746E+02  0.00000000000E+00 0.  1.
         14    1    3    3    0    0 -0.93027159399E+02 -0.45352319833E+02 -0.68452988922E+02  0.12408342755E+03  0.00000000000E+00 0. -1.
        -11    1    4    4    0    0  0.22242497664E+02  0.59522512791E+02 -0.21510579918E+02  0.67084746998E+02  0.00000000000E+00 0.  1.
         11    1    4    4    0    0  0.77004366768E+02  0.20131167934E+02 -0.11889659548E+03  0.14307807953E+03  0.00000000000E+00 0. -1.
         21    1    1    2  502  501  0.23484473769E+02  0.13492606338E+02  0.19119454838E+02  0.33153046426E+02  0.00000000000E+00 0.  1.
<scales pt_clust_5="13000.00000" pt_clust_6="13000.00000" pt_clust_7="13000.00000" pt_clust_8="13000.00000" pt_clust_9="27.08451"></scales>
<clustering>
<clus scale="   27.085">  1  9  2 -1</clus>
<clus scale="   82.624">  5  6 -1 -1</clus>
<clus scale="   90.882">  7  8 -1 -1</clus>
<clus scale="  159.654">  1  5  2 -1</clus>
<clus scale="  164.079">  2  5  1 -1</clus>
</clustering>
</event>
<event>
 9    2  0.5608219E-005  0.1312044E+03  0.7546771E-02  0.1228129E+00
         -1   -1    0    0    0  501 -0.00000000000E+00  0.00000000000E+00  0.38025756047E+02  0.38025756047E+02  0.00000000000E+00 0.  1.
          2   -1    0    0  502    0  0.00000000000E+00 -0.00000000000E+00 -0.99589844124E+03  0.99589844124E+03  0.00000000000E+00 0. -1.
         23    2    1    2    0    0 -0.75970941803E+02  0.11731960496E+02 -0.12786375583E+03  0.17419196814E+03  0.89913729855E+02 0.  0.
         24    2    1    2    0    0  0.95241033408E+02 -0.29440720537E+02 -0.82266823200E+03  0.83255094053E+03  0.80127636757E+02 0.  0.
        -13    1    4    4    0    0  0.35846056713E+02 -0.45053917743E+02 -0.24725320769E+03  0.25386796568E+03  0.00000000000E+00 0.  1.
         14    1    4    4    0    0  0.59394976695E+02  0.15613197206E+02 -0.57541502431E+03  0.57868297485E+03  0.00000000000E+00 0. -1.
        -11    1    3    3    0    0 -0.83094635529E+02 -0.16718195814E+02 -0.72487662864E+02  0.11152882046E+03  0.00000000000E+00 0.  1.
         11    1    3    3    0    0  0.71236937258E+01  0.28450156311E+02 -0.55376092962E+02  0.62663147687E+02  0.00000000000E+00 0. -1.
         21    1    1    2  502  501 -0.19270091606E+02  0.17708760040E+02 -0.73406973685E+01  0.27181288610E+02  0.00000000000E+00 0.  1.
<scales pt_clust_5="13000.00000" pt_clust_6="13000.00000" pt_clust_7="13000.00000" pt_clust_8="13000.00000" pt_clust_9="26.17129"></scales>
<clustering>
<clus scale="   26.171">  1  9  2 -1</clus>
<clus scale="   80.128">  5  6 -1 -1</clus>
<clus scale="   89.914">  7  8 -1 -1</clus>
<clus scale="  124.702">  2  5  1 -1</clus>
<clus scale="  124.702">  2  5  1 -1</clus>
</clustering>
</event>
<event>
 9    2  0.5608219E-005  0.1136051E+03  0.7546771E-02  0.1257236E+00
         -1   -1    0    0    0  501 -0.00000000000E+00  0.00000000000E+00  0.40720830700E+02  0.40720830700E+02  0.00000000000E+00 0.  1.
          2   -1    0    0  502    0  0.00000000000E+00 -0.00000000000E+00 -0.51935491425E+03  0.51935491425E+03  0.00000000000E+00 0. -1.
         23    2    1    2    0    0 -0.16361761683E+02  0.57777414099E+02 -0.98718742121E+02  0.14641114131E+03  0.89916046557E+02 0.  0.
         24    2    1    2    0    0  0.21917341204E+01 -0.72896671545E+02 -0.37737935107E+03  0.39278847196E+03  0.80925154744E+02 0.  0.
        -13    1    4    4    0    0 -0.38149089480E+02 -0.32325951447E+02 -0.14169328683E+03  0.15025747135E+03  0.00000000000E+00 0.  1.
         14    1    4    4    0    0  0.40340823601E+02 -0.40570720099E+02 -0.23568606425E+03  0.24253100061E+03  0.00000000000E+00 0. -1.
        -11    1    3    3    0    0  0.16068631557E+02 -0.12451166771E+02  0.82484774897E+00  0.20344848191E+02  0.00000000000E+00 0. -1.
         11    1    3    3    0    0 -0.32430393240E+02  0.70228580871E+02 -0.99543589870E+02  0.12606629312E+03  0.00000000000E+00 0.  1.
         21    1    1    2  502  501  0.14170027562E+02  0.15119257446E+02 -0.25359903602E+01  0.20876131681E+02  0.00000000000E+00 0.  1.
<scales pt_clust_5="13000.00000" pt_clust_6="13000.00000" pt_clust_7="13000.00000" pt_clust_8="13000.00000" pt_clust_9="20.72153"></scales>
<clustering>
<clus scale="   20.722">  1  9  2 -1</clus>
<clus scale="   80.925">  5  6 -1 -1</clus>
<clus scale="   89.916">  7  8 -1 -1</clus>
<clus scale="  106.631">  2  5  1 -1</clus>
<clus scale="  106.631">  2  5  1 -1</clus>
</clustering>
</event>
<event>
 9    2  0.5608219E-005  0.9016878E+02  0.7546771E-02  0.1308509E+00
          4   -1    0    0  502    0  0.00000000000E+00  0.00000000000E+00  0.13000228060E+03  0.13000228060E+03  0.00000000000E+00 0. -1.
         -3   -1    0    0    0  501 -0.00000000000E+00 -0.00000000000E+00 -0.14038730475E+03  0.14038730475E+03  0.00000000000E+00 0.  1.
         23    2    1    2    0    0 -0.89090297628E+01 -0.12735634705E+02 -0.85869904759E+02  0.12482502176E+03  0.89252889651E+02 0.  0.
         24    2    1    2    0    0  0.20098477662E+02 -0.17321565142E+02  0.28521240158E+02  0.88694338246E+02  0.79682112632E+02 0.  0.
        -11    1    4    4    0    0 -0.10029892298E+02 -0.43015911106E+02  0.18214632396E+02  0.47778030318E+02  0.00000000000E+00 0.  1.
         12    1    4    4    0    0  0.30128369959E+02  0.25694345964E+02  0.10306607762E+02  0.40916307928E+02  0.00000000000E+00 0. -1.
        -11    1    3    3    0    0 -0.44294361650E+02 -0.20942448085E+02 -0.69371494226E+02  0.84929269495E+02  0.00000000000E+00 0.  1.
         11    1    3    3    0    0  0.35385331887E+02  0.82068133792E+01 -0.16498410533E+02  0.39895752264E+02  0.00000000000E+00 0. -1.
         21    1    1    2  502  501 -0.11189447899E+02  0.30057199847E+02  0.46963640443E+02  0.56870225344E+02  0.00000000000E+00 0. -1.
<scales pt_clust_5="13000.00000" pt_clust_6="13000.00000" pt_clust_7="13000.00000" pt_clust_8="13000.00000" pt_clust_9="32.07240"></scales>
<clustering>
<clus scale="   32.072">  1  9  2 -1</clus>
<clus scale="   79.682">  5  6 -1 -1</clus>
<clus scale="   80.707">  1  5  2 -1</clus>
<clus scale="   89.253">  7  8 -1 -1</clus>
<clus scale="   32.072">  1  5  2 -1</clus>
</clustering>
</event>
<event>
 9    2  0.5608219E-005  0.9861937E+02  0.7546771E-02  0.1283276E+00
          2   -1    0    0  502    0  0.00000000000E+00  0.00000000000E+00  0.40121205974E+03  0.40121205974E+03  0.00000000000E+00 0. -1.
         -1   -1    0    0    0  501 -0.00000000000E+00 -0.00000000000E+00 -0.13053836141E+03  0.13053836141E+03  0.00000000000E+00 0.  1.
         24    2    1    2    0    0  0.17003284255E+02  0.35058647661E+02 -0.10612208562E+02  0.98383863322E+02  0.89713684242E+02 0.  0.
         23    2    1    2    0    0 -0.35484941132E+02 -0.21808950430E+02  0.34856285677E+03  0.36235026319E+03  0.89815570759E+02 0.  0.
        -13    1    3    3    0    0  0.21311936189E+02  0.16613474374E+02 -0.48785496297E+02  0.55769443280E+02  0.00000000000E+00 0.  1.
         14    1    3    3    0    0 -0.43086519334E+01  0.18445173286E+02  0.38173287734E+02  0.42614420042E+02  0.00000000000E+00 0. -1.
        -11    1    4    4    0    0 -0.64068869191E+02 -0.18413935917E+01  0.22076582218E+03  0.22988205448E+03  0.00000000000E+00 0. -1.
         11    1    4    4    0    0  0.28583928060E+02 -0.19967556838E+02  0.12779703459E+03  0.13246820871E+03  0.00000000000E+00 0.  1.
         21    1    1    2  502  501  0.18481656877E+02 -0.13249697231E+02 -0.67276949882E+02  0.71016294630E+02  0.00000000000E+00 0.  1.
<scales pt_clust_5="13000.00000" pt_clust_6="13000.00000" pt_clust_7="13000.00000" pt_clust_8="13000.00000" pt_clust_9="22.74041"></scales>
<clustering>
<clus scale="   22.740">  2  9  1 -1</clus>
<clus scale="   89.714">  5  6 -1 -1</clus>
<clus scale="   89.816">  7  8 -1 -1</clus>
<clus scale="   98.527">  2  5  1 -1</clus>
<clus scale="   98.619">  1  5  2 -1</clus>
</clustering>
</event>
<event>
 9    2  0.5608219E-005  0.1160086E+03  0.7546771E-02  0.1253493E+00
         -1   -1    0    0    0  501 -0.00000000000E+00  0.00000000000E+00  0.41570221783E+02  0.41570221783E+02  0.00000000000E+00 0.  1.
          2   -1    0    0  502    0  0.00000000000E+00 -0.00000000000E+00 -0.46972259622E+03  0.46972259622E+03  0.00000000000E+00 0. -1.
         23    2    1    2    0    0 -0.60533759414E+02  0.36083860726E+02 -0.97141819024E+02  0.15144617736E+03  0.92374404463E+02 0.  0.
         24    2    1    2    0    0  0.73156630328E+02 -0.93657957171E+01 -0.27980902254E+03  0.30072990158E+03  0.81888789977E+02 0.  0.
        -13    1    4    4    0    0  0.11853022886E+02  0.30194689578E+02 -0.13155946757E+03  0.13549947209E+03  0.00000000000E+00 0.  1.
         14    1    4    4    0    0  0.61303607442E+02 -0.39560485296E+02 -0.14824955497E+03  0.16523042950E+03  0.00000000000E+00 0. -1.
        -11    1    3    3    0    0 -0.53422582251E+02 -0.21528594807E+01 -0.78334718603E+01  0.54036750270E+02  0.00000000000E+00 0.  1.
         11    1    3    3    0    0 -0.71111771627E+01  0.38236720207E+02 -0.89308347164E+02  0.97409427090E+02  0.00000000000E+00 0. -1.
         21    1    1    2  502  501 -0.12622870914E+02 -0.26718065009E+02 -0.51201532873E+02  0.59116739055E+02  0.00000000000E+00 0.  1.
<scales pt_clust_5="13000.00000" pt_clust_6="13000.00000" pt_clust_7="13000.00000" pt_clust_8="13000.00000" pt_clust_9="29.54982"></scales>
<clustering>
<clus scale="   29.550">  2  9  1 -1</clus>
<clus scale="   81.889">  5  6 -1 -1</clus>
<clus scale="   92.374">  7  8 -1 -1</clus>
<clus scale="  107.846">  2  5  1 -1</clus>
<clus scale="   29.550">  2  5  1 -1</clus>
</clustering>
</event>
<event>
 9    2  0.5608219E-005  0.1167734E+03  0.7546771E-02  0.1253046E+00
         -1   -1    0    0    0  501 -0.00000000000E+00  0.00000000000E+00  0.41103134796E+02  0.41103134796E+02  0.00000000000E+00 0.  1.
          2   -1    0    0  502    0  0.00000000000E+00 -0.00000000000E+00 -0.10615374614E+04  0.10615374614E+04  0.00000000000E+00 0. -1.
         23    2    1    2    0    0 -0.59646634171E+02  0.50593380241E+02 -0.29581207824E+03  0.31971262263E+03  0.92703637189E+02 0.  0.
         24    2    1    2    0    0  0.65555583297E+02 -0.24130577914E+02 -0.74278059723E+03  0.75029484284E+03  0.79621079373E+02 0.  0.
        -11    1    4    4    0    0  0.36871325098E+02 -0.20738840227E+02 -0.12746340514E+03  0.13430008846E+03  0.00000000000E+00 0.  1.
         12    1    4    4    0    0  0.28684258199E+02 -0.33917376870E+01 -0.61531719209E+03  0.61599475439E+03  0.00000000000E+00 0. -1.
        -13    1    3    3    0    0 -0.58707242542E+02 -0.54630948923E+01 -0.20195410911E+03  0.21038499927E+03  0.00000000000E+00 0. -1.
         13    1    3    3    0    0 -0.93939162877E+00  0.56056475134E+02 -0.93857969130E+02  0.10932762336E+03  0.00000000000E+00 0.  1.
         21    1    1    2  502  501 -0.59089491264E+01 -0.26462802328E+02  0.18158348867E+02  0.32633130717E+02  0.00000000000E+00 0.  1.
<scales pt_clust_5="13000.00000" pt_clust_6="13000.00000" pt_clust_7="13000.00000" pt_clust_8="13000.00000" pt_clust_9="27.11449"></scales>
<clustering>
<clus scale="   27.114">  1  9  2 -1</clus>
<clus scale="   79.621">  5  6 -1 -1</clus>
<clus scale="   92.704">  7  8 -1 -1</clus>
<clus scale="  106.684">  2  5  1 -1</clus>
<clus scale="  106.684">  2  5  1 -1</clus>
</clustering>
</event>
<event>
 9    2  0.5608219E-005  0.1661372E+03  0.7546771E-02  0.1183383E+00
         -1   -1    0    0    0  501 -0.00000000000E+00  0.00000000000E+00  0.19606775010E+03  0.19606775010E+03  0.00000000000E+00 0.  1.
          2   -1    0    0  502    0  0.00000000000E+00 -0.00000000000E+00 -0.36078439326E+03  0.36078439326E+03  0.00000000000E+00 0. -1.
         23    2    1    2    0    0  0.94930928819E+02  0.89347805788E+02  0.98443548361E+02  0.18680835988E+03  0.90616331093E+02 0.  0.
         24    2    1    2    0    0 -0.13148905199E+03 -0.53282464375E+02 -0.27274392167E+03  0.31780344366E+03  0.80507081638E+02 0.  0.
        -11    1    4    4    0    0 -0.51898038697E+02 -0.21117892098E+02 -0.37592545130E+02  0.67472744398E+02  0.00000000000E+00 0.  1.
         12    1    4    4    0    0 -0.79591013295E+02 -0.32164572277E+02 -0.23515137654E+03  0.25033069926E+03  0.00000000000E+00 0. -1.
        -13    1    3    3    0    0  0.20212043554E+02  0.17454745787E+02 -0.16982550011E+02  0.31648094098E+02  0.00000000000E+00 0. -1.
         13    1    3    3    0    0  0.74718885265E+02  0.71893060001E+02  0.11542609837E+03  0.15516026578E+03  0.00000000000E+00 0.  1.
         21    1    1    2  502  501  0.36558123174E+02 -0.36065341413E+02  0.95837301445E+01  0.52240339822E+02  0.00000000000E+00 0.  1.
<scales pt_clust_5="13000.00000" pt_clust_6="13000.00000" pt_clust_7="13000.00000" pt_clust_8="13000.00000" pt_clust_9="51.35373"></scales>
<clustering>
<clus scale="   51.354">  1  9  2 -1</clus>
<clus scale="   80.507">  5  6 -1 -1</clus>
<clus scale="   90.616">  7  8 -1 -1</clus>
<clus scale="  160.847">  2  5  1 -1</clus>
<clus scale="  160.847">  2  5  1 -1</clus>
</clustering>
</event>
<event>
 9    2  0.5608219E-005  0.9718648E+02  0.7546771E-02  0.1292403E+00
          2   -1    0    0  502    0  0.00000000000E+00  0.00000000000E+00  0.25266544918E+03  0.25266544918E+03  0.00000000000E+00 0. -1.
         -1   -1    0    0    0  501 -0.00000000000E+00 -0.00000000000E+00 -0.50498805176E+02  0.50498805176E+02  0.00000000000E+00 0.  1.
         23    2    1    2    0    0 -0.33817363615E+02 -0.32470243539E+02  0.10789737191E+03  0.14954832211E+03  0.92330531153E+02 0.  0.
         24    2    1    2    0    0  0.19499145410E+02  0.14463527545E+01  0.82635219743E+02  0.11752099706E+03  0.81242209474E+02 0.  0.
        -11    1    4    4    0    0 -0.17767945588E+02 -0.11076401704E+02 -0.49516083049E+01  0.21515226932E+02  0.00000000000E+00 0.  1.
         12    1    4    4    0    0  0.37267090998E+02  0.12522754458E+02  0.87586828048E+02  0.96005770130E+02  0.00000000000E+00 0. -1.
        -11    1    3    3    0    0 -0.58618186874E+02 -0.18033371106E+02  0.33663664672E+02  0.69960965009E+02  0.00000000000E+00 0.  1.
         11    1    3    3    0    0  0.24800823259E+02 -0.14436872433E+02  0.74233707235E+02  0.79587357097E+02  0.00000000000E+00 0. -1.
         21    1    1    2  502  501  0.14318218206E+02  0.31023890785E+02  0.11634052354E+02  0.36094935187E+02  0.00000000000E+00 0.  1.
<scales pt_clust_5="13000.00000" pt_clust_6="13000.00000" pt_clust_7="13000.00000" pt_clust_8="13000.00000" pt_clust_9="34.16860"></scales>
<clustering>
<clus scale="   34.169">  2  9  1 -1</clus>
<clus scale="   81.242">  5  6 -1 -1</clus>
<clus scale="   86.721">  1  5  2 -1</clus>
<clus scale="   92.331">  7  8 -1 -1</clus>
<clus scale="   86.721">  1  5  2 -1</clus>
</clustering>
</event>
<event>
 9    2  0.5608219E-005  0.1172121E+03  0.7546771E-02  0.1251945E+00
          2   -1    0    0  502    0  0.00000000000E+00  0.00000000000E+00  0.59620756943E+03  0.59620756943E+03  0.00000000000E+00 0. -1.
         -1   -1    0    0    0  501 -0.00000000000E+00 -0.00000000000E+00 -0.19929151483E+03  0.19929151483E+03  0.00000000000E+00 0.  1.
         23    2    1    2    0    0 -0.44117904973E+02 -0.17989737564E+02 -0.11466495405E+03  0.15437629058E+03  0.91727679626E+02 0.  0.
         24    2    1    2    0    0  0.52344076908E+02  0.52424416420E+02  0.56593392499E+03  0.57625634221E+03  0.79384775953E+02 0.  0.
        -11    1    4    4    0    0  0.32212295573E+02  0.66829744195E+02  0.29468126256E+03  0.30387644397E+03  0.00000000000E+00 0.  1.
         12    1    4    4    0    0  0.20131781335E+02 -0.14405327774E+02  0.27125266243E+03  0.27237989824E+03  0.00000000000E+00 0. -1.
        -11    1    3    3    0    0  0.18871476942E+02 -0.29966211498E+02 -0.62005133210E+02  0.71405483108E+02  0.00000000000E+00 0. -1.
         11    1    3    3    0    0 -0.62989381915E+02  0.11976473934E+02 -0.52659820841E+02  0.82970807475E+02  0.00000000000E+00 0.  1.
         21    1    1    2  502  501 -0.82261719357E+01 -0.34434678857E+02 -0.54352916333E+02  0.64866451472E+02  0.00000000000E+00 0. -1.
<scales pt_clust_5="13000.00000" pt_clust_6="13000.00000" pt_clust_7="13000.00000" pt_clust_8="13000.00000" pt_clust_9="35.40363"></scales>
<clustering>
<clus scale="   35.404">  2  9  1 -1</clus>
<clus scale="   79.385">  5  6 -1 -1</clus>
<clus scale="   91.728">  7  8 -1 -1</clus>
<clus scale="  107.827">  1  5  2 -1</clus>
<clus scale="  107.827">  1  5  2 -1</clus>
</clustering>
</event>
<event>
 9    2  0.5608219E-005  0.1411523E+03  0.7546771E-02  0.1217066E+00
         -1   -1    0    0    0  501 -0.00000000000E+00  0.00000000000E+00  0.58331824871E+02  0.58331824871E+02  0.00000000000E+00 0.  1.
          2   -1    0    0  502    0  0.00000000000E+00 -0.00000000000E+00 -0.40573425393E+03  0.40573425393E+03  0.00000000000E+00 0. -1.
         24    2    1    2    0    0  0.52454124776E+02  0.89073317721E+02 -0.86184355234E+02  0.15603062030E+03  0.78945045750E+02 0.  0.
         23    2    1    2    0    0 -0.25799726716E+02 -0.86541964405E+02 -0.22918808278E+03  0.26628878184E+03  0.10113061132E+03 0.  0.
        -11    1    3    3    0    0  0.37533975409E+02  0.89964178590E+02 -0.36405638441E+02  0.10405634651E+03  0.00000000000E+00 0.  1.
         12    1    3    3    0    0  0.14920149367E+02 -0.89086086864E+00 -0.49778716793E+02  0.51974273788E+02  0.00000000000E+00 0. -1.
        -11    1    4    4    0    0 -0.49179271276E+02 -0.94710334739E+02 -0.20765055487E+03  0.23346820162E+03  0.00000000000E+00 0. -1.
         11    1    4    4    0    0  0.23379544560E+02  0.81683703348E+01 -0.21537527915E+02  0.32820580227E+02  0.00000000000E+00 0.  1.
         21    1    1    2  502  501 -0.26654398060E+02 -0.25313533165E+01 -0.32029991041E+02  0.41746676655E+02  0.00000000000E+00 0.  1.
<scales pt_clust_5="13000.00000" pt_clust_6="13000.00000" pt_clust_7="13000.00000" pt_clust_8="13000.00000" pt_clust_9="26.77433"></scales>
<clustering>
<clus scale="   26.774">  2  9  1 -1</clus>
<clus scale="   78.945">  5  6 -1 -1</clus>
<clus scale="  101.131">  7  8 -1 -1</clus>
<clus scale="  126.210">  1  5  2 -1</clus>
<clus scale="   26.774">  2  5  1 -1</clus>
</clustering>
</event>
<event>
 9    2  0.5608219E-005  0.9282489E+02  0.7546771E-02  0.1302154E+00
          2   -1    0    0  502    0  0.00000000000E+00  0.00000000000E+00  0.10608841781E+03  0.10608841781E+03  0.00000000000E+00 0. -1.
         -1   -1    0    0    0  501 -0.00000000000E+00 -0.00000000000E+00 -0.30112926496E+03  0.30112926496E+03  0.00000000000E+00 0.  1.
         24    2    1    2    0    0  0.20463822804E+02 -0.11832128154E+02 -0.52868093882E+02  0.99029062623E+02  0.80330271959E+02 0.  0.
         23    2    1    2    0    0 -0.18501565178E+02 -0.16966220006E+02  0.55127430577E+02  0.10878812402E+03  0.90364051433E+02 0.  0.
        -13    1    3    3    0    0  0.11170863802E+02  0.29211478870E+02  0.23198137150E+00  0.31275429832E+02  0.00000000000E+00 0.  1.
         14    1    3    3    0    0  0.92929590014E+01 -0.41043607023E+02 -0.53100075253E+02  0.67753632791E+02  0.00000000000E+00 0. -1.
        -11    1    4    4    0    0  0.81673852281E+01  0.30423755457E+02  0.42605667690E+02  0.52986356705E+02  0.00000000000E+00 0. -1.
         11    1    4    4    0    0 -0.26668950406E+02 -0.47389975463E+02  0.12521762887E+02  0.55801767319E+02  0.00000000000E+00 0.  1.
         21    1    1    2  502  501 -0.19622576253E+01  0.28798348159E+02 -0.19730018384E+03  0.19940049612E+03  0.00000000000E+00 0.  1.
<scales pt_clust_5="13000.00000" pt_clust_6="13000.00000" pt_clust_7="13000.00000" pt_clust_8="13000.00000" pt_clust_9="28.86512"></scales>
<clustering>
<clus scale="   28.865">  2  9  1 -1</clus>
<clus scale="   80.330">  5  6 -1 -1</clus>
<clus scale="   83.089">  2  5  1 -1</clus>
<clus scale="   90.364">  7  8 -1 -1</clus>
<clus scale="   92.825">  1  5  2 -1</clus>
</clustering>
</event>
<event>
 9    2  0.5608219E-005  0.9903834E+02  0.7546771E-02  0.1293328E+00
         -1   -1    0    0    0  501 -0.00000000000E+00  0.00000000000E+00  0.37744291916E+02  0.37744291916E+02  0.00000000000E+00 0.  1.
          2   -1    0    0  502    0  0.00000000000E+00 -0.00000000000E+00 -0.51409620498E+03  0.51409620498E+03  0.00000000000E+00 0. -1.
         23    2    1    2    0    0  0.26657744712E+02 -0.11861946901E+02 -0.10193573497E+03  0.14445634463E+03  0.98109124460E+02 0.  0.
         24    2    1    2    0    0 -0.16173264464E+01  0.12299548634E+02 -0.37379058718E+03  0.38233209834E+03  0.79401106511E+02 0.  0.
        -11    1    4    4    0    0  0.34015342225E+02 -0.34603077539E+01 -0.97788184997E+02  0.10359317720E+03  0.00000000000E+00 0.  1.
         12    1    4    4    0    0 -0.35632668672E+02  0.15759856388E+02 -0.27600240218E+03  0.27873892114E+03  0.00000000000E+00 0. -1.
        -11    1    3    3    0    0  0.43740192320E+02 -0.45892967564E+02 -0.54312619782E+02  0.83481911595E+02  0.00000000000E+00 0.  1.
         11    1    3    3    0    0 -0.17082447608E+02  0.34031020662E+02 -0.47623115192E+02  0.60974433037E+02  0.00000000000E+00 0. -1.
         21    1    1    2  502  501 -0.25040418265E+02 -0.43760173239E+00 -0.62559091605E+00  0.25052053931E+02  0.00000000000E+00 0.  1.
<scales pt_clust_5="13000.00000" pt_clust_6="13000.00000" pt_clust_7="13000.00000" pt_clust_8="13000.00000" pt_clust_9="25.04424"></scales>
<clustering>
<clus scale="   25.044">  1  9  2 -1</clus>
<clus scale="   79.401">  5  6 -1 -1</clus>
<clus scale="   80.546">  2  5  1 -1</clus>
<clus scale="   98.109">  7  8 -1 -1</clus>
<clus scale="   80.546">  2  5  1 -1</clus>
</clustering>
</event>
<event>
 9    2  0.5608219E-005  0.1056634E+03  0.7546771E-02  0.1275803E+00
         -1   -1    0    0    0  501 -0.00000000000E+00  0.00000000000E+00  0.20288181866E+03  0.20288181866E+03  0.00000000000E+00 0.  1.
          2   -1    0    0  502    0  0.00000000000E+00 -0.00000000000E+00 -0.10397856761E+03  0.10397856761E+03  0.00000000000E+00 0. -1.
         24    2    1    2    0    0 -0.28905521076E+02  0.75156209775E+02  0.78726874652E+02  0.13797736321E+03  0.79723565840E+02 0.  0.
         23    2    1    2    0    0  0.34557214910E+02 -0.14672587862E+02 -0.72364199192E+01  0.10223715624E+03  0.94818692278E+02 0.  0.
        -13    1    3    3    0    0 -0.46021657669E+02  0.65021266881E+02  0.85599633568E+02  0.11693184078E+03  0.00000000000E+00 0.  1.
         14    1    3    3    0    0  0.17116136593E+02  0.10134942894E+02 -0.68727589154E+01  0.21045522432E+02  0.00000000000E+00 0. -1.
        -11    1    4    4    0    0  0.35889060654E+02  0.29935520620E+02 -0.26391630468E+02  0.53671950106E+02  0.00000000000E+00 0. -1.
         11    1    4    4    0    0 -0.13318457440E+01 -0.44608108482E+02  0.19155210549E+02  0.48565206132E+02  0.00000000000E+00 0.  1.
         21    1    1    2  502  501 -0.56516938343E+01 -0.60483621913E+02  0.27412796311E+02  0.66645866822E+02  0.00000000000E+00 0.  1.
<scales pt_clust_5="13000.00000" pt_clust_6="13000.00000" pt_clust_7="13000.00000" pt_clust_8="13000.00000" pt_clust_9="60.74710"></scales>
<clustering>
<clus scale="   60.747">  1  9  2 -1</clus>
<clus scale="   79.724">  5  6 -1 -1</clus>
<clus scale="   92.358">  1  5  2 -1</clus>
<clus scale="   94.819">  7  8 -1 -1</clus>
<clus scale="  105.663">  2  5  1 -1</clus>
</clustering>
</event>
<event>
 9    2  0.5608219E-005  0.1244445E+03  0.7546771E-02  0.1243735E+00
         -1   -1    0    0    0  501 -0.00000000000E+00  0.00000000000E+00  0.11624866460E+03  0.11624866460E+03  0.00000000000E+00 0.  1.
          2   -1    0    0  502    0  0.00000000000E+00 -0.00000000000E+00 -0.26039454374E+03  0.26039454374E+03  0.00000000000E+00 0. -1.
         23    2    1    2    0    0  0.25157638899E+02  0.46755475915E+02 -0.22440138726E+01  0.10624280137E+03  0.91997369096E+02 0.  0.
         24    2    1    2    0    0 -0.35213623350E+01  0.73408997343E+02 -0.65270663324E+02  0.12624781350E+03  0.79227331383E+02 0.  0.
        -13    1    4    4    0    0  0.46695290756E+00  0.83798935847E+02 -0.74238936592E+02  0.11195489896E+03  0.00000000000E+00 0.  1.
         14    1    4    4    0    0 -0.39883152425E+01 -0.10389938504E+02  0.89682732685E+01  0.14292914539E+02  0.00000000000E+00 0. -1.
        -11    1    3    3    0    0 -0.78081289661E+01  0.59855982109E+02 -0.23627744488E+02  0.64822648679E+02  0.00000000000E+00 0. -1.
         11    1    3    3    0    0  0.32965767865E+02 -0.13100506194E+02  0.21383730616E+02  0.41420152686E+02  0.00000000000E+00 0.  1.
         21    1    1    2  502  501 -0.21636276564E+02 -0.12016447326E+03 -0.76631201944E+02  0.14415259348E+03  0.00000000000E+00 0. -1.
<scales pt_clust_5="13000.00000" pt_clust_6="13000.00000" pt_clust_7="13000.00000" pt_clust_8="13000.00000" pt_clust_9="95.96596"></scales>
<clustering>
<clus scale="   79.227">  5  6 -1 -1</clus>
<clus scale="   91.997">  7  8 -1 -1</clus>
<clus scale="  106.219">  1  7  2 -1</clus>
<clus scale="   95.966">  1  9  2 -1</clus>
<clus scale="  124.445">  2  5  1 -1</clus>
</clustering>
</event>
<event>
 9    2  0.5608219E-005  0.1552171E+03  0.7546771E-02  0.1196141E+00
          2   -1    0    0  502    0  0.00000000000E+00  0.00000000000E+00  0.61273515479E+03  0.61273515479E+03  0.00000000000E+00 0. -1.
         -1   -1    0    0    0  501 -0.00000000000E+00 -0.00000000000E+00 -0.12180997832E+03  0.12180997832E+03  0.00000000000E+00 0.  1.
         23    2    1    2    0    0  0.91298289953E+02 -0.60157317562E+02  0.11812909253E+02  0.14221800390E+03  0.90178352188E+02 0.  0.
         24    2    1    2    0    0 -0.10211445506E+03  0.79111957742E+02  0.52240545299E+03  0.54384447513E+03  0.78570299904E+02 0.  0.
        -11    1    4    4    0    0 -0.27682504676E+02 -0.70894844274E+01  0.47151272348E+02  0.55134602008E+02  0.00000000000E+00 0.  1.
         12    1    4    4    0    0 -0.74431950385E+02  0.86201442169E+02  0.47525418064E+03  0.48870987312E+03  0.00000000000E+00 0. -1.
        -13    1    3    3    0    0  0.38012636989E+02 -0.24171552521E+02 -0.39532626962E+02  0.59933739385E+02  0.00000000000E+00 0.  1.
         13    1    3    3    0    0  0.53285652964E+02 -0.35985765041E+02  0.51345536215E+02  0.82284264514E+02  0.00000000000E+00 0. -1.
         21    1    1    2  502  501  0.10816165107E+02 -0.18954640180E+02 -0.43293185779E+02  0.48482654082E+02  0.00000000000E+00 0.  1.
<scales pt_clust_5="13000.00000" pt_clust_6="13000.00000" pt_clust_7="13000.00000" pt_clust_8="13000.00000" pt_clust_9="21.82356"></scales>
<clustering>
<clus scale="   21.824">  2  9  1 -1</clus>
<clus scale="   78.570">  5  6 -1 -1</clus>
<clus scale="   90.178">  7  8 -1 -1</clus>
<clus scale="  148.773">  1  5  2 -1</clus>
<clus scale="  148.773">  1  5  2 -1</clus>
</clustering>
</event>
<event>
 9    2  0.5608219E-005  0.9363553E+02  0.7546771E-02  0.1301101E+00
          2   -1    0    0  502    0  0.00000000000E+00  0.00000000000E+00  0.24313628488E+03  0.24313628488E+03  0.00000000000E+00 0. -1.
         -1   -1    0    0    0  501 -0.00000000000E+00 -0.00000000000E+00 -0.86661901152E+02  0.86661901152E+02  0.00000000000E+00 0.  1.
         23    2    1    2    0    0 -0.19191399168E+02  0.56079355283E+02  0.29395394742E+02  0.11257083311E+03  0.91076338001E+02 0.  0.
         24    2    1    2    0    0  0.14992996223E+02 -0.41755847961E+01  0.14157858177E+03  0.16317306383E+03  0.79616132152E+02 0.  0.
        -13    1    4    4    0    0 -0.19899439258E+02  0.27233135848E+02  0.67763271137E+02  0.75693409793E+02  0.00000000000E+00 0.  1.
         14    1    4    4    0    0  0.34892435480E+02 -0.31408720644E+02  0.73815310633E+02  0.87479654035E+02  0.00000000000E+00 0. -1.
        -11    1    3    3    0    0 -0.29710787223E+02  0.76583978802E+02  0.34283941945E+02  0.89012501155E+02  0.00000000000E+00 0.  1.
         11    1    3    3    0    0  0.10519388055E+02 -0.20504623519E+02 -0.48885472030E+01  0.23558331954E+02  0.00000000000E+00 0. -1.
         21    1    1    2  502  501  0.41984029454E+01 -0.51903770487E+02 -0.14499592789E+02  0.54054289091E+02  0.00000000000E+00 0.  1.
<scales pt_clust_5="13000.00000" pt_clust_6="13000.00000" pt_clust_7="13000.00000" pt_clust_8="13000.00000" pt_clust_9="52.07329"></scales>
<clustering>
<clus scale="   52.073">  2  9  1 -1</clus>
<clus scale="   79.616">  5  6 -1 -1</clus>
<clus scale="   82.531">  1  5  2 -1</clus>
<clus scale="   91.076">  7  8 -1 -1</clus>
<clus scale="   82.531">  1  5  2 -1</clus>
</clustering>
</event>
<event>
 9    2  0.5608219E-005  0.1461381E+03  0.7546771E-02  0.1206912E+00
         -1   -1    0    0    0  501 -0.00000000000E+00  0.00000000000E+00  0.44867525776E+02  0.44867525776E+02  0.00000000000E+00 0.  1.
          2   -1    0    0  502    0  0.00000000000E+00 -0.00000000000E+00 -0.11305468151E+04  0.11305468151E+04  0.00000000000E+00 0. -1.
         23    2    1    2    0    0 -0.55238079884E+02 -0.14140106298E+03 -0.28130264424E+03  0.33195996655E+03  0.89558559920E+02 0.  0.
         24    2    1    2    0    0 -0.12693552055E+02  0.10881938417E+03 -0.70857430543E+03  0.72157590743E+03  0.81187802234E+02 0.  0.
        -11    1    4    4    0    0  0.22099162932E+02  0.30535360327E+02 -0.97613953632E+02  0.10463873650E+03  0.00000000000E+00 0.  1.
         12    1    4    4    0    0 -0.34792714987E+02  0.78284023845E+02 -0.61096035180E+03  0.61693717093E+03  0.00000000000E+00 0. -1.
        -11    1    3    3    0    0 -0.23728984706E+02 -0.12852058604E+02 -0.12151579029E+03  0.12447621225E+03  0.00000000000E+00 0. -1.
         11    1    3    3    0    0 -0.31509095179E+02 -0.12854900437E+03 -0.15978685395E+03  0.20748375430E+03  0.00000000000E+00 0.  1.
         21    1    1    2  502  501  0.67931631940E+02  0.32581678804E+02 -0.95802339684E+02  0.12187846693E+03  0.00000000000E+00 0.  1.
<scales pt_clust_5="13000.00000" pt_clust_6="13000.00000" pt_clust_7="13000.00000" pt_clust_8="13000.00000" pt_clust_9="75.34104"></scales>
<clustering>
<clus scale="   75.341">  1  9  2 -1</clus>
<clus scale="   81.188">  5  6 -1 -1</clus>
<clus scale="   89.559">  7  8 -1 -1</clus>
<clus scale="  141.163">  2  5  1 -1</clus>
<clus scale="  141.163">  2  5  1 -1</clus>
</clustering>
</event>
<event>
 9    2  0.5608219E-005  0.2020835E+03  0.7546771E-02  0.1148946E+00
          2   -1    0    0  502    0  0.00000000000E+00  0.00000000000E+00  0.38786924863E+03  0.38786924863E+03  0.00000000000E+00 0. -1.
         -1   -1    0    0    0  501 -0.00000000000E+00 -0.00000000000E+00 -0.89432828770E+03  0.89432828770E+03  0.00000000000E+00 0.  1.
         23    2    1    2    0    0  0.21981703109E+03 -0.28475415845E+02 -0.48363580422E+03  0.53960785024E+03  0.90236713433E+02 0.  0.
         24    2    1    2    0    0 -0.17682397726E+03 -0.28599553179E+02  0.32933740759E+03  0.38325269543E+03  0.79591752971E+02 0.  0.
        -13    1    4    4    0    0 -0.84709306002E+02 -0.53082927867E+02  0.15206050333E+03  0.18197763717E+03  0.00000000000E+00 0.  1.
         14    1    4    4    0    0 -0.92114671259E+02  0.24483374688E+02  0.17727690425E+03  0.20127505826E+03  0.00000000000E+00 0. -1.
        -13    1    3    3    0    0  0.62170328503E+01 -0.24920629078E+02 -0.52862730697E+02  0.58772081364E+02  0.00000000000E+00 0. -1.
         13    1    3    3    0    0  0.21359999824E+03 -0.35547867670E+01 -0.43077307353E+03  0.48083576888E+03  0.00000000000E+00 0.  1.
         21    1    1    2  502  501 -0.42993053832E+02  0.57074969024E+02 -0.35216064244E+03  0.35933699065E+03  0.00000000000E+00 0.  1.
<scales pt_clust_5="13000.00000" pt_clust_6="13000.00000" pt_clust_7="13000.00000" pt_clust_8="13000.00000" pt_clust_9="71.45596"></scales>
<clustering>
<clus scale="   71.456">  2  9  1 -1</clus>
<clus scale="   79.592">  5  6 -1 -1</clus>
<clus scale="   90.237">  7  8 -1 -1</clus>
<clus scale="  197.560">  1  5  2 -1</clus>
<clus scale="  197.560">  1  5  2 -1</clus>
</clustering>
</event>
<event>
 9    2  0.5608219E-005  0.1044122E+03  0.7546771E-02  0.1275983E+00
         -1   -1    0    0    0  501 -0.00000000000E+00  0.00000000000E+00  0.23973190549E+03  0.23973190549E+03  0.00000000000E+00 0.  1.
          2   -1    0    0  502    0  0.00000000000E+00 -0.00000000000E+00 -0.40536740343E+03  0.40536740343E+03  0.00000000000E+00 0. -1.
         23    2    1    2    0    0 -0.22819953848E+02  0.73620428083E+02  0.18913531617E+03  0.22331886361E+03  0.90324023907E+02 0.  0.
         24    2    1    2    0    0  0.51561697824E+01 -0.51453465610E+02 -0.37506807841E+03  0.38691839674E+03  0.79722876799E+02 0.  0.
        -11    1    4    4    0    0 -0.17401489695E+02  0.16039687338E+02 -0.10474986311E+03  0.10739002391E+03  0.00000000000E+00 0.  1.
         12    1    4    4    0    0  0.22557659477E+02 -0.67493152949E+02 -0.27031821530E+03  0.27952837284E+03  0.00000000000E+00 0. -1.
        -13    1    3    3    0    0  0.15656853728E+02 -0.13942105322E+02  0.19783632182E+02  0.28825535065E+02  0.00000000000E+00 0. -1.
         13    1    3    3    0    0 -0.38476807575E+02  0.87562533405E+02  0.16935168399E+03  0.19449332854E+03  0.00000000000E+00 0.  1.
         21    1    1    2  502  501  0.17663784065E+02 -0.22166962473E+02  0.20297264298E+02  0.34862048574E+02  0.00000000000E+00 0. -1.
<scales pt_clust_5="13000.00000" pt_clust_6="13000.00000" pt_clust_7="13000.00000" pt_clust_8="13000.00000" pt_clust_9="28.34402"></scales>
<clustering>
<clus scale="   28.344">  1  9  2 -1</clus>
<clus scale="   79.723">  5  6 -1 -1</clus>
<clus scale="   90.324">  7  8 -1 -1</clus>
<clus scale="   95.390">  2  5  1 -1</clus>
<clus scale="   95.390">  2  5  1 -1</clus>
</clustering>
</event>
<event>
 9    2  0.5608219E-005  0.1016515E+03  0.7546771E-02  0.1282445E+00
          4   -1    0    0  502    0  0.00000000000E+00  0.00000000000E+00  0.88711781828E+03  0.88711781828E+03  0.00000000000E+00 0. -1.
         -3   -1    0    0    0  501 -0.00000000000E+00 -0.00000000000E+00 -0.43370120521E+02  0.43370120521E+02  0.00000000000E+00 0.  1.
         23    2    1    2    0    0  0.34349735909E+01  0.22203741810E+01  0.38284689096E+02  0.97994583247E+02  0.90113771542E+02 0.  0.
         24    2    1    2    0    0 -0.51071665291E+02  0.41623662502E+01  0.76188348277E+03  0.76761524793E+03  0.78365089506E+02 0.  0.
        -13    1    4    4    0    0 -0.75050020544E+01  0.28495789226E+02  0.11176414256E+03  0.11558355689E+03  0.00000000000E+00 0.  1.
         14    1    4    4    0    0 -0.43566663236E+02 -0.24333422976E+02  0.65011934020E+03  0.65203169104E+03  0.00000000000E+00 0. -1.
        -13    1    3    3    0    0 -0.23470906847E+02  0.37680850413E+02  0.27408965266E+02  0.52172610947E+02  0.00000000000E+00 0.  1.
         13    1    3    3    0    0  0.26905880438E+02 -0.35460476232E+02  0.10875723830E+02  0.45821972301E+02  0.00000000000E+00 0. -1.
         21    1    1    2  502  501  0.47636691700E+02 -0.63827404312E+01  0.43579525899E+02  0.64878107626E+02  0.00000000000E+00 0. -1.
<scales pt_clust_5="13000.00000" pt_clust_6="13000.00000" pt_clust_7="13000.00000" pt_clust_8="13000.00000" pt_clust_9="48.06239"></scales>
<clustering>
<clus scale="   48.062">  2  9  1 -1</clus>
<clus scale="   78.365">  5  6 -1 -1</clus>
<clus scale="   90.114">  7  8 -1 -1</clus>
<clus scale="   91.398">  1  5  2 -1</clus>
<clus scale="   91.398">  1  5  2 -1</clus>
</clustering>
</event>
<event>
 9    2  0.5608219E-005  0.4515301E+03  0.7546771E-02  0.1027427E+00
          2   -1    0    0  502    0  0.00000000000E+00  0.00000000000E+00  0.91629250456E+03  0.91629250456E+03  0.00000000000E+00 0. -1.
         -1   -1    0    0    0  501 -0.00000000000E+00 -0.00000000000E+00 -0.34849519622E+03  0.34849519622E+03  0.00000000000E+00 0.  1.
         23    2    1    2    0    0 -0.28147005903E+03  0.31731444574E+03 -0.51053030877E+02  0.43697693485E+03  0.91807287406E+02 0.  0.
         24    2    1    2    0    0  0.30185101297E+03 -0.33021950294E+03  0.64700683291E+03  0.79073365814E+03  0.80516595367E+02 0.  0.
        -13    1    4    4    0    0  0.64960351448E+02 -0.12592080840E+03  0.19525145861E+03  0.24124474987E+03  0.00000000000E+00 0.  1.
         14    1    4    4    0    0  0.23689066153E+03 -0.20429869454E+03  0.45175537430E+03  0.54948890827E+03  0.00000000000E+00 0. -1.
        -13    1    3    3    0    0 -0.17833354871E+03  0.14601421022E+03 -0.55118913849E+02  0.23698333031E+03  0.00000000000E+00 0.  1.
         13    1    3    3    0    0 -0.10313651032E+03  0.17130023552E+03  0.40658829724E+01  0.19999360453E+03  0.00000000000E+00 0. -1.
         21    1    1    2  502  501 -0.20380953940E+02  0.12905057200E+02 -0.28156493697E+02  0.37077107792E+02  0.00000000000E+00 0. -1.
<scales pt_clust_5="13000.00000" pt_clust_6="13000.00000" pt_clust_7="13000.00000" pt_clust_8="13000.00000" pt_clust_9="24.12310"></scales>
<clustering>
<clus scale="   24.123">  2  9  1 -1</clus>
<clus scale="   80.517">  5  6 -1 -1</clus>
<clus scale="   91.807">  7  8 -1 -1</clus>
<clus scale="  449.370">  1  5  2 -1</clus>
<clus scale="  449.370">  1  5  2 -1</clus>
</clustering>
</event>
<event>
 9    2  0.5608219E-005  0.1252297E+03  0.7546771E-02  0.1245010E+00
         -1   -1    0    0    0  501 -0.00000000000E+00  0.00000000000E+00  0.12592908750E+03  0.12592908750E+03  0.00000000000E+00 0.  1.
          2   -1    0    0  502    0  0.00000000000E+00 -0.00000000000E+00 -0.33937579831E+03  0.33937579831E+03  0.00000000000E+00 0. -1.
         23    2    1    2    0    0 -0.51960064209E+02  0.27998356139E+02 -0.27611963613E+02  0.11146360875E+03  0.90432070206E+02 0.  0.
         24    2    1    2    0    0  0.12289424231E+01  0.65181096329E+02 -0.22004827334E+03  0.24236651555E+03  0.77911485952E+02 0.  0.
        -11    1    4    4    0    0 -0.38066033390E+02  0.37668547057E+02 -0.11168976999E+03  0.12386503565E+03  0.00000000000E+00 0.  1.
         12    1    4    4    0    0  0.39294975813E+02  0.27512549272E+02 -0.10835850335E+03  0.11850147991E+03  0.00000000000E+00 0. -1.
        -13    1    3    3    0    0 -0.23871160364E+02 -0.32464500319E+02 -0.17892716919E+02  0.44089969345E+02  0.00000000000E+00 0. -1.
         13    1    3    3    0    0 -0.28088903846E+02  0.60462856458E+02 -0.97192466940E+01  0.67373639405E+02  0.00000000000E+00 0.  1.
         21    1    1    2  502  501  0.50731121786E+02 -0.93179452467E+02  0.34213526143E+02  0.11147476150E+03  0.00000000000E+00 0. -1.
<scales pt_clust_5="13000.00000" pt_clust_6="13000.00000" pt_clust_7="13000.00000" pt_clust_8="13000.00000" pt_clust_9="86.62869"></scales>
<clustering>
<clus scale="   77.911">  5  6 -1 -1</clus>
<clus scale="   90.432">  7  8 -1 -1</clus>
<clus scale="  101.589">  2  5  1 -1</clus>
<clus scale="   86.629">  1  9  2 -1</clus>
<clus scale="  101.589">  2  5  1 -1</clus>
</clustering>
</event>
<event>
 9    2  0.5608219E-005  0.1661358E+03  0.7546771E-02  0.1183437E+00
         -1   -1    0    0    0  501 -0.00000000000E+00  0.00000000000E+00  0.17067406859E+03  0.17067406859E+03  0.00000000000E+00 0.  1.
          2   -1    0    0  502    0  0.00000000000E+00 -0.00000000000E+00 -0.87634352681E+03  0.87634352681E+03  0.00000000000E+00 0. -1.
         24    2    1    2    0    0  0.10971658242E+03  0.27995385081E+01  0.93927590527E+02  0.16545727529E+03  0.80673117025E+02 0.  0.
         23    2    1    2    0    0 -0.12568148856E+03  0.65723599109E+02 -0.79319893643E+03  0.81091165093E+03  0.91091848173E+02 0.  0.
        -11    1    3    3    0    0  0.81847122671E+02 -0.31151460219E+02  0.81927717400E+02  0.11992295794E+03  0.00000000000E+00 0.  1.
         12    1    3    3    0    0  0.27869459752E+02  0.33950998727E+02  0.11999873127E+02  0.45534317350E+02  0.00000000000E+00 0. -1.
        -13    1    4    4    0    0 -0.46638608572E+02  0.74195655549E+02 -0.46822954970E+03  0.47636022747E+03  0.00000000000E+00 0. -1.
         13    1    4    4    0    0 -0.79042879986E+02 -0.84720564404E+01 -0.32496938674E+03  0.33455142345E+03  0.00000000000E+00 0.  1.
         21    1    1    2  502  501  0.15964906135E+02 -0.68523137617E+02 -0.63981123104E+01  0.70648669187E+02  0.00000000000E+00 0. -1.
<scales pt_clust_5="13000.00000" pt_clust_6="13000.00000" pt_clust_7="13000.00000" pt_clust_8="13000.00000" pt_clust_9="70.35836"></scales>
<clustering>
<clus scale="   70.358">  1  9  2 -1</clus>
<clus scale="   80.673">  5  6 -1 -1</clus>
<clus scale="   91.092">  7  8 -1 -1</clus>
<clus scale="  160.660">  1  5  2 -1</clus>
<clus scale="  166.136">  2  5  1 -1</clus>
</clustering>
</event>
<event>
 9    2  0.5608219E-005  0.1673009E+03  0.7546771E-02  0.1182741E+00
          4   -1    0    0  502    0  0.00000000000E+00  0.00000000000E+00  0.18230960512E+03  0.18230960512E+03  0.00000000000E+00 0. -1.
         -3   -1    0    0    0  501 -0.00000000000E+00 -0.00000000000E+00 -0.28063321485E+03  0.28063321485E+03  0.00000000000E+00 0.  1.
         24    2    1    2    0    0 -0.12935583243E+03  0.74276655424E+02 -0.23535994130E+02  0.16909919187E+03  0.76096259739E+02 0.  0.
         23    2    1    2    0    0  0.12920211238E+03 -0.42682811892E+02  0.45238370565E+02  0.16972903615E+03  0.90809841236E+02 0.  0.
        -13    1    3    3    0    0 -0.79570951298E+02  0.81592786943E+02 -0.10242843432E+01  0.11397354224E+03  0.00000000000E+00 0.  1.
         14    1    3    3    0    0 -0.49784881132E+02 -0.73161315196E+01 -0.22511709787E+02  0.55125649631E+02  0.00000000000E+00 0. -1.
        -13    1    4    4    0    0  0.62910044004E+02 -0.49657119154E+02 -0.13023638616E+02  0.81198018954E+02  0.00000000000E+00 0.  1.
         13    1    4    4    0    0  0.66292068378E+02  0.69743072622E+01  0.58262009180E+02  0.88531017194E+02  0.00000000000E+00 0. -1.
         21    1    1    2  502  501  0.15372004764E+00 -0.31593843532E+02 -0.12002598617E+03  0.12411459195E+03  0.00000000000E+00 0.  1.
<scales pt_clust_5="13000.00000" pt_clust_6="13000.00000" pt_clust_7="13000.00000" pt_clust_8="13000.00000" pt_clust_9="31.59422"></scales>
<clustering>
<clus scale="   31.594">  2  9  1 -1</clus>
<clus scale="   76.096">  5  6 -1 -1</clus>
<clus scale="   90.810">  7  8 -1 -1</clus>
<clus scale="  159.793">  2  5  1 -1</clus>
<clus scale="  167.301">  1  5  2 -1</clus>
</clustering>
</event>
<event>
 9    2  0.5608219E-005  0.2635954E+03  0.7546771E-02  0.1105717E+00
          2   -1    0    0  502    0  0.00000000000E+00  0.00000000000E+00  0.18140172776E+04  0.18140172776E+04  0.00000000000E+00 0. -1.
         -1   -1    0    0    0  501 -0.00000000000E+00 -0.00000000000E+00 -0.61262657852E+02  0.61262657852E+02  0.00000000000E+00 0.  1.
         24    2    1    2    0    0  0.61238962955E+02  0.28033146683E+03  0.53277958891E+03  0.61054608409E+03  0.81095552054E+02 0.  0.
         23    2    1    2    0    0 -0.57107122177E+02 -0.22425673652E+03  0.11388717754E+04  0.11660465394E+04  0.95306369792E+02 0.  0.
        -13    1    3    3    0    0  0.68400704204E+02  0.19438232647E+03  0.31613715535E+03  0.37736699136E+03  0.00000000000E+00 0.  1.
         14    1    3    3    0    0 -0.71617412482E+01  0.85949140362E+02  0.21664243356E+03  0.23317909273E+03  0.00000000000E+00 0. -1.
        -13    1    4    4    0    0  0.78981834353E+01 -0.94597019574E+02  0.29789729024E+03  0.31265599778E+03  0.00000000000E+00 0.  1.
         13    1    4    4    0    0 -0.65005305612E+02 -0.12965971695E+03  0.84097448513E+03  0.85339054166E+03  0.00000000000E+00 0. -1.
         21    1    1    2  502  501 -0.41318407785E+01 -0.56074730311E+02  0.81103255501E+02  0.98687311953E+02  0.00000000000E+00 0. -1.
<scales pt_clust_5="13000.00000" pt_clust_6="13000.00000" pt_clust_7="13000.00000" pt_clust_8="13000.00000" pt_clust_9="56.22675"></scales>
<clustering>
<clus scale="   56.227">  2  9  1 -1</clus>
<clus scale="   81.096">  5  6 -1 -1</clus>
<clus scale="   95.306">  7  8 -1 -1</clus>
<clus scale="  258.797">  2  5  1 -1</clus>
<clus scale="  263.595">  1  5  2 -1</clus>
</clustering>
</event>
<event>
 9    2  0.5608219E-005  0.1157888E+03  0.7546771E-02  0.1254828E+00
         -1   -1    0    0    0  501 -0.00000000000E+00  0.00000000000E+00  0.22796277415E+03  0.22796277415E+03  0.00000000000E+00 0.  1.
          2   -1    0    0  502    0  0.00000000000E+00 -0.00000000000E+00 -0.26267964828E+03  0.26267964828E+03  0.00000000000E+00 0. -1.
         23    2    1    2    0    0 -0.29306915306E+02  0.40771145683E+02  0.87384570461E+02  0.13701048320E+03  0.92815018974E+02 0.  0.
         24    2    1    2    0    0  0.37459176874E+02 -0.60653189847E+02 -0.22466654360E+03  0.24883998064E+03  0.79776442536E+02 0.  0.
        -13    1    4    4    0    0 -0.21423442073E+02 -0.38193575967E+02 -0.99173763407E+02  0.10841193875E+03  0.00000000000E+00 0.  1.
         14    1    4    4    0    0  0.58882618948E+02 -0.22459613881E+02 -0.12549278019E+03  0.14042804189E+03  0.00000000000E+00 0. -1.
        -13    1    3    3    0    0  0.20540959921E+02  0.37237404013E+02  0.73878936650E+02  0.85244663016E+02  0.00000000000E+00 0.  1.
         13    1    3    3    0    0 -0.49847875227E+02  0.35337416699E+01  0.13505633811E+02  0.51765820185E+02  0.00000000000E+00 0. -1.
         21    1    1    2  502  501 -0.81522615686E+01  0.19882044164E+02  0.10256509901E+03  0.10479195858E+03  0.00000000000E+00 0.  1.
<scales pt_clust_5="13000.00000" pt_clust_6="13000.00000" pt_clust_7="13000.00000" pt_clust_8="13000.00000" pt_clust_9="21.48849"></scales>
<clustering>
<clus scale="   21.488">  1  9  2 -1</clus>
<clus scale="   79.776">  5  6 -1 -1</clus>
<clus scale="   92.815">  7  8 -1 -1</clus>
<clus scale="  105.625">  2  5  1 -1</clus>
<clus scale="  105.625">  2  5  1 -1</clus>
</clustering>
</event>
<event>
 9    2  0.5608219E-005  0.9788521E+02  0.7546771E-02  0.1289817E+00
         -1   -1    0    0    0  501 -0.00000000000E+00  0.00000000000E+00  0.42560006052E+03  0.42560006052E+03  0.00000000000E+00 0.  1.
          2   -1    0    0  502    0  0.00000000000E+00 -0.00000000000E+00 -0.10126993604E+03  0.10126993604E+03  0.00000000000E+00 0. -1.
         24    2    1    2    0    0 -0.42538018000E+02  0.65662214188E+02  0.32078147460E+03  0.33974575682E+03  0.80033839604E+02 0.  0.
         23    2    1    2    0    0  0.11154286721E+02 -0.34256475781E+02 -0.56847112233E+02  0.11216487025E+03  0.89729815021E+02 0.  0.
        -11    1    3    3    0    0 -0.18591740396E+02  0.78501514633E+02  0.27417553182E+03  0.28579776567E+03  0.00000000000E+00 0.  1.
         12    1    3    3    0    0 -0.23946277603E+02 -0.12839300445E+02  0.46605942783E+02  0.53947991155E+02  0.00000000000E+00 0. -1.
        -13    1    4    4    0    0  0.35732450083E+02  0.12157305587E+02 -0.44976098838E+01  0.38011005810E+02  0.00000000000E+00 0.  1.
         13    1    4    4    0    0 -0.24578163362E+02 -0.46413781367E+02 -0.52349502349E+02  0.74153864439E+02  0.00000000000E+00 0. -1.
         21    1    1    2  502  501  0.31383731279E+02 -0.31405738408E+02  0.60395762103E+02  0.74959369487E+02  0.00000000000E+00 0. -1.
<scales pt_clust_5="13000.00000" pt_clust_6="13000.00000" pt_clust_7="13000.00000" pt_clust_8="13000.00000" pt_clust_9="44.39886"></scales>
<clustering>
<clus scale="   44.399">  1  9  2 -1</clus>
<clus scale="   80.034">  5  6 -1 -1</clus>
<clus scale="   89.081">  1  5  2 -1</clus>
<clus scale="   89.730">  7  8 -1 -1</clus>
<clus scale="   97.885">  2  5  1 -1</clus>
</clustering>
</event>
<event>
 9    2  0.5608219E-005  0.1922708E+03  0.7546771E-02  0.1157542E+00
         -1   -1    0    0    0  501 -0.00000000000E+00  0.00000000000E+00  0.18930720518E+03  0.18930720518E+03  0.00000000000E+00 0.  1.
          2   -1    0    0  502    0  0.00000000000E+00 -0.00000000000E+00 -0.41485769042E+03  0.41485769042E+03  0.00000000000E+00 0. -1.
         24    2    1    2    0    0  0.14576695946E+03  0.33131856778E+02  0.58681196659E+02  0.17952898719E+03  0.80258631927E+02 0.  0.
         23    2    1    2    0    0 -0.17419357400E+03 -0.79171395201E+01 -0.31789327876E+03  0.37387216659E+03  0.91204045666E+02 0.  0.
        -13    1    3    3    0    0  0.14058572191E+03  0.10411384824E+02  0.32865901013E+02  0.14475119891E+03  0.00000000000E+00 0.  1.
         14    1    3    3    0    0  0.51812375518E+01  0.22720471954E+02  0.25815295646E+02  0.34777788281E+02  0.00000000000E+00 0. -1.
        -13    1    4    4    0    0 -0.21983841882E+02  0.11345231988E+02 -0.12489554844E+03  0.12732203899E+03  0.00000000000E+00 0.  1.
         13    1    4    4    0    0 -0.15220973212E+03 -0.19262371508E+02 -0.19299773031E+03  0.24655012759E+03  0.00000000000E+00 0. -1.
         21    1    1    2  502  501  0.28426614548E+02 -0.25214717258E+02  0.33661596850E+02  0.50763741819E+02  0.00000000000E+00 0.  1.
<scales pt_clust_5="13000.00000" pt_clust_6="13000.00000" pt_clust_7="13000.00000" pt_clust_8="13000.00000" pt_clust_9="37.99808"></scales>
<clustering>
<clus scale="   37.998">  1  9  2 -1</clus>
<clus scale="   80.259">  5  6 -1 -1</clus>
<clus scale="   91.204">  7  8 -1 -1</clus>
<clus scale="  187.327">  1  5  2 -1</clus>
<clus scale="  192.271">  2  5  1 -1</clus>
</clustering>
</event>
<event>
 9    2  0.5608219E-005  0.1326742E+03  0.7546771E-02  0.1226073E+00
          2   -1    0    0  502    0  0.00000000000E+00  0.00000000000E+00  0.23003977486E+03  0.23003977486E+03  0.00000000000E+00 0. -1.
         -1   -1    0    0    0  501 -0.00000000000E+00 -0.00000000000E+00 -0.18696031877E+03  0.18696031877E+03  0.00000000000E+00 0.  1.
         24    2    1    2    0    0 -0.62653178206E+02 -0.31394617739E+02 -0.11812282265E+03  0.15905150238E+03  0.80208081995E+02 0.  0.
         23    2    1    2    0    0  0.86113052418E+02  0.53820432530E+02  0.17585952038E+03  0.22233795239E+03  0.90528986564E+02 0.  0.
        -13    1    3    3    0    0 -0.59536019336E+02  0.10261368437E+02 -0.46896317482E+02  0.76479395095E+02  0.00000000000E+00 0.  1.
         14    1    3    3    0    0 -0.31171588691E+01 -0.41655986176E+02 -0.71226505167E+02  0.82572107288E+02  0.00000000000E+00 0. -1.
        -11    1    4    4    0    0  0.45876252738E+02  0.16354118986E+01  0.14659318105E+02  0.48189218137E+02  0.00000000000E+00 0.  1.
         11    1    4    4    0    0  0.40236799680E+02  0.52185020631E+02  0.16120020228E+03  0.17414873425E+03  0.00000000000E+00 0. -1.
         21    1    1    2  502  501 -0.23459874212E+02 -0.22425814790E+02 -0.14657241642E+02  0.35610638854E+02  0.00000000000E+00 0. -1.
<scales pt_clust_5="13000.00000" pt_clust_6="13000.00000" pt_clust_7="13000.00000" pt_clust_8="13000.00000" pt_clust_9="32.45432"></scales>
<clustering>
<clus scale="   32.454">  2  9  1 -1</clus>
<clus scale="   80.208">  5  6 -1 -1</clus>
<clus scale="   90.529">  7  8 -1 -1</clus>
<clus scale="  125.858">  2  5  1 -1</clus>
<clus scale="  132.674">  1  5  2 -1</clus>
</clustering>
</event>
<event>
 9    2  0.5608219E-005  0.9925166E+02  0.7546771E-02  0.1283847E+00
          2   -1    0    0  502    0  0.00000000000E+00  0.00000000000E+00  0.98518945700E+03  0.98518945700E+03  0.00000000000E+00 0. -1.
         -1   -1    0    0    0  501 -0.00000000000E+00 -0.00000000000E+00 -0.28645031527E+02  0.28645031527E+02  0.00000000000E+00 0.  1.
         23    2    1    2    0    0  0.99085863918E+00  0.17978848338E+02  0.16846557830E+03  0.18925739815E+03  0.84341513479E+02 0.  0.
         24    2    1    2    0    0  0.57217431833E+02 -0.35978813647E+02  0.73887048010E+03  0.74625935789E+03  0.80032076938E+02 0.  0.
        -11    1    4    4    0    0  0.22170438008E+02 -0.52617617266E+02  0.28064248031E+03  0.28639194074E+03  0.00000000000E+00 0.  1.
         12    1    4    4    0    0  0.35046993825E+02  0.16638803619E+02  0.45822799979E+03  0.45986741715E+03  0.00000000000E+00 0. -1.
        -11    1    3    3    0    0  0.22278509734E+02  0.44698744869E+02  0.11984024753E+03  0.12983063859E+03  0.00000000000E+00 0. -1.
         11    1    3    3    0    0 -0.21287651095E+02 -0.26719896532E+02  0.48625330772E+02  0.59426759566E+02  0.00000000000E+00 0.  1.
         21    1    1    2  502  501 -0.58208290472E+02  0.17999965310E+02  0.49208367071E+02  0.78317732479E+02  0.00000000000E+00 0.  1.
<scales pt_clust_5="13000.00000" pt_clust_6="13000.00000" pt_clust_7="13000.00000" pt_clust_8="13000.00000" pt_clust_9="60.92786"></scales>
<clustering>
<clus scale="   60.928">  2  9  1 -1</clus>
<clus scale="   80.032">  5  6 -1 -1</clus>
<clus scale="   84.342">  7  8 -1 -1</clus>
<clus scale="   95.617">  1  5  2 -1</clus>
<clus scale="   95.617">  1  5  2 -1</clus>
</clustering>
</event>
<event>
 9    2  0.5608219E-005  0.9240009E+02  0.7546771E-02  0.1298616E+00
          2   -1    0    0  502    0  0.00000000000E+00  0.00000000000E+00  0.33486575402E+03  0.33486575402E+03  0.00000000000E+00 0. -1.
         -1   -1    0    0    0  501 -0.00000000000E+00 -0.00000000000E+00 -0.63783015887E+02  0.63783015887E+02  0.00000000000E+00 0.  1.
         24    2    1    2    0    0  0.84810760258E+01 -0.61007780286E+01  0.51788791129E+02  0.99203615746E+02  0.83965054322E+02 0.  0.
         23    2    1    2    0    0 -0.33529264020E+02  0.22651936191E+02  0.24303861229E+03  0.26116772363E+03  0.86622693574E+02 0.  0.
        -11    1    3    3    0    0  0.30111979432E+02 -0.20718517879E+02  0.61339973642E+02  0.71404346189E+02  0.00000000000E+00 0.  1.
         12    1    3    3    0    0 -0.21630903406E+02  0.14617739850E+02 -0.95511825127E+01  0.27799269556E+02  0.00000000000E+00 0. -1.
        -13    1    4    4    0    0  0.29483793919E+02  0.54074020207E+01  0.67089707898E+02  0.73481718858E+02  0.00000000000E+00 0.  1.
         13    1    4    4    0    0 -0.63013057939E+02  0.17244534170E+02  0.17594890439E+03  0.18768600477E+03  0.00000000000E+00 0. -1.
         21    1    1    2  502  501  0.25048187994E+02 -0.16551158162E+02 -0.23744665290E+02  0.38277430531E+02  0.00000000000E+00 0.  1.
<scales pt_clust_5="13000.00000" pt_clust_6="13000.00000" pt_clust_7="13000.00000" pt_clust_8="13000.00000" pt_clust_9="30.02253"></scales>
<clustering>
<clus scale="   30.023">  2  9  1 -1</clus>
<clus scale="   83.965">  5  6 -1 -1</clus>
<clus scale="   86.623">  7  8 -1 -1</clus>
<clus scale="   89.913">  2  5  1 -1</clus>
<clus scale="   92.400">  1  5  2 -1</clus>
</clustering>
</event>
<event>
 9    2  0.5608219E-005  0.2019181E+03  0.7546771E-02  0.1149934E+00
          2   -1    0    0  502    0  0.00000000000E+00  0.00000000000E+00  0.54639064265E+03  0.54639064265E+03  0.00000000000E+00 0. -1.
         -1   -1    0    0    0  501 -0.00000000000E+00 -0.00000000000E+00 -0.21206602379E+03  0.21206602379E+03  0.00000000000E+00 0.  1.
         24    2    1    2    0    0 -0.69410331284E+02 -0.15441172577E+03 -0.22410019723E+02  0.18576615634E+03  0.73116897591E+02 0.  0.
         23    2    1    2    0    0  0.95420541135E+02  0.15438158734E+03  0.44024283128E+03  0.48522537321E+03  0.93226381089E+02 0.  0.
        -13    1    3    3    0    0 -0.58973421151E+02 -0.14940409310E+03 -0.39233962378E+02  0.16534434142E+03  0.00000000000E+00 0.  1.
         14    1    3    3    0    0 -0.10436910134E+02 -0.50076326726E+01  0.16823942655E+02  0.20421814919E+02  0.00000000000E+00 0. -1.
        -13    1    4    4    0    0  0.10792347805E+03  0.10113875020E+03  0.34553707794E+03  0.37586220366E+03  0.00000000000E+00 0. -1.
         13    1    4    4    0    0 -0.12502936918E+02  0.53242837142E+02  0.94705753342E+02  0.10936316955E+03  0.00000000000E+00 0.  1.
         21    1    1    2  502  501 -0.26010209851E+02  0.30138427205E-01 -0.83508192695E+02  0.87465136895E+02  0.00000000000E+00 0.  1.
<scales pt_clust_5="13000.00000" pt_clust_6="13000.00000" pt_clust_7="13000.00000" pt_clust_8="13000.00000" pt_clust_9="26.01023"></scales>
<clustering>
<clus scale="   26.010">  2  9  1 -1</clus>
<clus scale="   73.117">  5  6 -1 -1</clus>
<clus scale="   93.226">  7  8 -1 -1</clus>
<clus scale="  193.458">  2  5  1 -1</clus>
<clus scale="  201.918">  1  5  2 -1</clus>
</clustering>
</event>
<event>
 9    2  0.5608219E-005  0.9363211E+02  0.7546771E-02  0.1300972E+00
          4   -1    0    0  502    0  0.00000000000E+00  0.00000000000E+00  0.31908056546E+03  0.31908056546E+03  0.00000000000E+00 0. -1.
         -3   -1    0    0    0  501 -0.00000000000E+00 -0.00000000000E+00 -0.17475577584E+03  0.17475577584E+03  0.00000000000E+00 0.  1.
         23    2    1    2    0    0  0.48580251513E+02 -0.28897294608E+02 -0.25492402616E+02  0.11203884926E+03  0.93315307852E+02 0.  0.
         24    2    1    2    0    0  0.10064037059E+02 -0.92704839869E+01  0.25687390234E+03  0.27010683585E+03  0.82378846548E+02 0.  0.
        -11    1    4    4    0    0 -0.24023715964E+02 -0.17638851434E+02  0.37297723430E+02  0.47742938554E+02  0.00000000000E+00 0.  1.
         12    1    4    4    0    0  0.34087753023E+02  0.83683674476E+01  0.21957617891E+03  0.22236389730E+03  0.00000000000E+00 0. -1.
        -11    1    3    3    0    0  0.72297334971E+02 -0.89074524305E+01 -0.15583979778E+01  0.72860661245E+02  0.00000000000E+00 0. -1.
         11    1    3    3    0    0 -0.23717083458E+02 -0.19989842177E+02 -0.23934004639E+02  0.39178188014E+02  0.00000000000E+00 0.  1.
         21    1    1    2  502  501 -0.58644288572E+02  0.38167778595E+02 -0.87056710106E+02  0.11169065619E+03  0.00000000000E+00 0.  1.
<scales pt_clust_5="13000.00000" pt_clust_6="13000.00000" pt_clust_7="13000.00000" pt_clust_8="13000.00000" pt_clust_9="69.97094"></scales>
<clustering>
<clus scale="   69.971">  2  9  1 -1</clus>
<clus scale="   82.379">  5  6 -1 -1</clus>
<clus scale="   82.738">  1  5  2 -1</clus>
<clus scale="   93.315">  7  8 -1 -1</clus>
<clus scale="   82.738">  1  5  2 -1</clus>
</clustering>
</event>
<event>
 9    2  0.5608219E-005  0.1055839E+03  0.7546771E-02  0.1273938E+00
         -1   -1    0    0    0  501 -0.00000000000E+00  0.00000000000E+00  0.31615520700E+02  0.31615520700E+02  0.00000000000E+00 0.  1.
          2   -1    0    0  502    0  0.00000000000E+00 -0.00000000000E+00 -0.47188730993E+03  0.47188730993E+03  0.00000000000E+00 0. -1.
         23    2    1    2    0    0 -0.23894932584E+02  0.48530688677E+02 -0.11771620552E+03  0.15828325676E+03  0.90941128114E+02 0.  0.
         24    2    1    2    0    0  0.44835350439E+02 -0.34537105294E+02 -0.26433400953E+03  0.28178399099E+03  0.79540736038E+02 0.  0.
        -11    1    4    4    0    0  0.54954017292E+02 -0.22938302137E+00 -0.10530332259E+03  0.11878041245E+03  0.00000000000E+00 0.  1.
         12    1    4    4    0    0 -0.10118666853E+02 -0.34307722272E+02 -0.15903068694E+03  0.16300357854E+03  0.00000000000E+00 0. -1.
        -13    1    3    3    0    0  0.12635338125E+02  0.39008026402E+02 -0.73730796554E+01  0.41661015313E+02  0.00000000000E+00 0.  1.
         13    1    3    3    0    0 -0.36530270709E+02  0.95226622751E+01 -0.11034312587E+03  0.11662224145E+03  0.00000000000E+00 0. -1.
         21    1    1    2  502  501 -0.20940417856E+02 -0.13993583384E+02 -0.58221574176E+02  0.63435582880E+02  0.00000000000E+00 0. -1.
<scales pt_clust_5="13000.00000" pt_clust_6="13000.00000" pt_clust_7="13000.00000" pt_clust_8="13000.00000" pt_clust_9="25.18574"></scales>
<clustering>
<clus scale="   25.186">  2  9  1 -1</clus>
<clus scale="   79.541">  5  6 -1 -1</clus>
<clus scale="   90.941">  7  8 -1 -1</clus>
<clus scale="   95.940">  2  5  1 -1</clus>
<clus scale="   25.186">  2  5  1 -1</clus>
</clustering>
</event>
<event>
 9    2  0.5608219E-005  0.9130239E+02  0.7546771E-02  0.1305273E+00
          2   -1    0    0  502    0  0.00000000000E+00  0.00000000000E+00  0.14114040644E+03  0.14114040644E+03  0.00000000000E+00 0. -1.
         -1   -1    0    0    0  501 -0.00000000000E+00 -0.00000000000E+00 -0.16145554313E+03  0.16145554313E+03  0.00000000000E+00 0.  1.
         23    2    1    2    0    0 -0.34813736998E+02  0.49488123099E+01 -0.10536393683E+03  0.14248767810E+03  0.89245124230E+02 0.  0.
         24    2    1    2    0    0  0.16937476572E+02  0.53720956516E+01  0.10370534873E+03  0.13228474486E+03  0.80179279382E+02 0.  0.
        -11    1    4    4    0    0  0.15821114967E+02  0.42294537795E+02  0.58773633412E+02  0.74117984259E+02  0.00000000000E+00 0.  1.
         12    1    4    4    0    0  0.11163616047E+01 -0.36922442143E+02  0.44931715321E+02  0.58166760601E+02  0.00000000000E+00 0. -1.
        -13    1    3    3    0    0 -0.31337272551E+02 -0.26128609334E+02 -0.98336572667E+01  0.41969389939E+02  0.00000000000E+00 0. -1.
         13    1    3    3    0    0 -0.34764644470E+01  0.31077421644E+02 -0.95530279566E+02  0.10051828816E+03  0.00000000000E+00 0.  1.
         21    1    1    2  502  501  0.17876260426E+02 -0.10320907962E+02 -0.18656548590E+02  0.27823526614E+02  0.00000000000E+00 0. -1.
<scales pt_clust_5="13000.00000" pt_clust_6="13000.00000" pt_clust_7="13000.00000" pt_clust_8="13000.00000" pt_clust_9="20.64175"></scales>
<clustering>
<clus scale="   20.642">  2  9  1 -1</clus>
<clus scale="   80.179">  5  6 -1 -1</clus>
<clus scale="   82.463">  1  5  2 -1</clus>
<clus scale="   89.245">  7  8 -1 -1</clus>
<clus scale="   82.463">  1  5  2 -1</clus>
</clustering>
</event>
<event>
 9    2  0.5608219E-005  0.1436379E+03  0.7546771E-02  0.1211553E+00
         -1   -1    0    0    0  501 -0.00000000000E+00  0.00000000000E+00  0.17862528136E+02  0.17862528136E+02  0.00000000000E+00 0.  1.
          2   -1    0    0  502    0  0.00000000000E+00 -0.00000000000E+00 -0.18358117902E+04  0.18358117902E+04  0.00000000000E+00 0. -1.
         23    2    1    2    0    0 -0.86735587127E+02  0.95244470828E+02 -0.55131622945E+03  0.57327302334E+03  0.89987794395E+02 0.  0.
         24    2    1    2    0    0  0.91913395702E+02 -0.55744261749E+02 -0.11437942328E+04  0.11512639768E+04  0.74752941004E+02 0.  0.
        -13    1    4    4    0    0  0.65343605566E+02 -0.11710246479E+02 -0.38116934265E+03  0.38690694545E+03  0.00000000000E+00 0.  1.
         14    1    4    4    0    0  0.26569790136E+02 -0.44034015270E+02 -0.76262489017E+03  0.76435703133E+03  0.00000000000E+00 0. -1.
        -11    1    3    3    0    0 -0.24926768862E+00  0.49687786016E+02 -0.29093736702E+03  0.29514994451E+03  0.00000000000E+00 0. -1.
         11    1    3    3    0    0 -0.86486319439E+02  0.45556684812E+02 -0.26037886243E+03  0.27812307883E+03  0.00000000000E+00 0.  1.
         21    1    1    2  502  501 -0.51778085749E+01 -0.39500209079E+02 -0.12283879982E+03  0.12913731823E+03  0.00000000000E+00 0. -1.
<scales pt_clust_5="13000.00000" pt_clust_6="13000.00000" pt_clust_7="13000.00000" pt_clust_8="13000.00000" pt_clust_9="39.83813"></scales>
<clustering>
<clus scale="   39.838">  1  9  2 -1</clus>
<clus scale="   74.753">  5  6 -1 -1</clus>
<clus scale="   89.988">  7  8 -1 -1</clus>
<clus scale="  134.618">  2  5  1 -1</clus>
<clus scale="  134.618">  2  5  1 -1</clus>
</clustering>
</event>
<event>
 9    2  0.5608219E-005  0.9307762E+02  0.7546771E-02  0.1302050E+00
          2   -1    0    0  502    0  0.00000000000E+00  0.00000000000E+00  0.27722031881E+03  0.27722031881E+03  0.00000000000E+00 0. -1.
         -1   -1    0    0    0  501 -0.00000000000E+00 -0.00000000000E+00 -0.49012230047E+02  0.49012230047E+02  0.00000000000E+00 0.  1.
         23    2    1    2    0    0 -0.44452416701E+00 -0.16967271523E+02  0.44765676628E+02  0.10324863193E+03  0.91478020791E+02 0.  0.
         24    2    1    2    0    0  0.20730995676E+02  0.33067309576E+01  0.17984791069E+03  0.19826405172E+03  0.80762952981E+02 0.  0.
        -13    1    4    4    0    0 -0.29550306828E+02 -0.10243052481E+02  0.72151843309E+02  0.78638598987E+02  0.00000000000E+00 0.  1.
         14    1    4    4    0    0  0.50281302504E+02  0.13549783439E+02  0.10769606738E+03  0.11962545273E+03  0.00000000000E+00 0. -1.
        -13    1    3    3    0    0 -0.31398490310E+02  0.10097307843E+02 -0.10274967434E+02  0.34545560861E+02  0.00000000000E+00 0.  1.
         13    1    3    3    0    0  0.30953966143E+02 -0.27064579366E+02  0.55040644062E+02  0.68703071074E+02  0.00000000000E+00 0. -1.
         21    1    1    2  502  501 -0.20286471509E+02  0.13660540566E+02  0.35945014449E+01  0.24719865200E+02  0.00000000000E+00 0.  1.
<scales pt_clust_5="13000.00000" pt_clust_6="13000.00000" pt_clust_7="13000.00000" pt_clust_8="13000.00000" pt_clust_9="24.45713"></scales>
<clustering>
<clus scale="   24.457">  2  9  1 -1</clus>
<clus scale="   80.763">  5  6 -1 -1</clus>
<clus scale="   82.570">  1  5  2 -1</clus>
<clus scale="   91.478">  7  8 -1 -1</clus>
<clus scale="   82.570">  1  5  2 -1</clus>
</clustering>
</event>
<event>
 9    2  0.5608219E-005  0.1719976E+03  0.7546771E-02  0.1176318E+00
         -1   -1    0    0    0  501 -0.00000000000E+00  0.00000000000E+00  0.11227766759E+03  0.11227766759E+03  0.00000000000E+00 0.  1.
          2   -1    0    0  502    0  0.00000000000E+00 -0.00000000000E+00 -0.70435270723E+03  0.70435270723E+03  0.00000000000E+00 0. -1.
         23    2    1    2    0    0  0.47714147756E+02 -0.13647128657E+03  0.10504201725E+02  0.16875249177E+03  0.86406095101E+02 0.  0.
         24    2    1    2    0    0 -0.23792870647E+02  0.14763214137E+03 -0.59698807330E+03  0.62089541951E+03  0.82188882768E+02 0.  0.
        -11    1    4    4    0    0 -0.93470313611E+01  0.24047217688E+02 -0.26457669874E+02  0.36954620401E+02  0.00000000000E+00 0.  1.
         12    1    4    4    0    0 -0.14445839286E+02  0.12358492368E+03 -0.57053040342E+03  0.58394079911E+03  0.00000000000E+00 0. -1.
        -11    1    3    3    0    0 -0.11252247624E+02 -0.32190486519E+02 -0.26700956975E+02  0.43310294415E+02  0.00000000000E+00 0. -1.
         11    1    3    3    0    0  0.58966395381E+02 -0.10428080005E+03  0.37205158700E+02  0.12544219735E+03  0.00000000000E+00 0.  1.
         21    1    1    2  502  501 -0.23921277109E+02 -0.11160854802E+02 -0.55911680663E+01  0.26982463541E+02  0.00000000000E+00 0. -1.
<scales pt_clust_5="13000.00000" pt_clust_6="13000.00000" pt_clust_7="13000.00000" pt_clust_8="13000.00000" pt_clust_9="26.39682"></scales>
<clustering>
<clus scale="   26.397">  1  9  2 -1</clus>
<clus scale="   82.189">  5  6 -1 -1</clus>
<clus scale="   86.406">  7  8 -1 -1</clus>
<clus scale="  169.918">  2  5  1 -1</clus>
<clus scale="  169.918">  2  5  1 -1</clus>
</clustering>
</event>
<event>
 9    2  0.5608219E-005  0.1313001E+03  0.7546771E-02  0.1228042E+00
          2   -1    0    0  502    0  0.00000000000E+00  0.00000000000E+00  0.15659371777E+04  0.15659371777E+04  0.00000000000E+00 0. -1.
         -1   -1    0    0    0  501 -0.00000000000E+00 -0.00000000000E+00 -0.23105578884E+02  0.23105578884E+02  0.00000000000E+00 0.  1.
         23    2    1    2    0    0  0.43578513216E+02 -0.68124732244E+02  0.21957026838E+03  0.25097888661E+03  0.90770219829E+02 0.  0.
         24    2    1    2    0    0 -0.63675707112E+02  0.74169583324E+02  0.13020831040E+04  0.13082485266E+04  0.80858362865E+02 0.  0.
        -13    1    4    4    0    0 -0.34293304269E+02  0.46698418540E+02  0.31107630031E+03  0.31642572213E+03  0.00000000000E+00 0.  1.
         14    1    4    4    0    0 -0.29382402843E+02  0.27471164785E+02  0.99100680366E+03  0.99182280443E+03  0.00000000000E+00 0. -1.
        -11    1    3    3    0    0  0.19728940110E+02 -0.86594575747E+02  0.18419390448E+03  0.20448776510E+03  0.00000000000E+00 0. -1.
         11    1    3    3    0    0  0.23849573106E+02  0.18469843503E+02  0.35376363904E+02  0.46491121512E+02  0.00000000000E+00 0.  1.
         21    1    1    2  502  501  0.20097193896E+02 -0.60448510810E+01  0.21178226486E+02  0.29815343435E+02  0.00000000000E+00 0.  1.
<scales pt_clust_5="13000.00000" pt_clust_6="13000.00000" pt_clust_7="13000.00000" pt_clust_8="13000.00000" pt_clust_9="20.98660"></scales>
<clustering>
<clus scale="   20.987">  2  9  1 -1</clus>
<clus scale="   80.858">  5  6 -1 -1</clus>
<clus scale="   90.770">  7  8 -1 -1</clus>
<clus scale="  124.654">  1  5  2 -1</clus>
<clus scale="  124.654">  1  5  2 -1</clus>
</clustering>
</event>
<event>
 9    2  0.5608219E-005  0.2234723E+03  0.7546771E-02  0.1131947E+00
          2   -1    0    0  502    0  0.00000000000E+00  0.00000000000E+00  0.17524129565E+04  0.17524129565E+04  0.00000000000E+00 0. -1.
         -1   -1    0    0    0  501 -0.00000000000E+00 -0.00000000000E+00 -0.67694510814E+02  0.67694510814E+02  0.00000000000E+00 0.  1.
         23    2    1    2    0    0 -0.14685201824E+03  0.10716820055E+03  0.17156031939E+03  0.26557493268E+03  0.89702637676E+02 0.  0.
         24    2    1    2    0    0  0.17418324545E+03 -0.11500851920E+03  0.15093348653E+04  0.15258430958E+04  0.80861949430E+02 0.  0.
        -11    1    4    4    0    0  0.19205568198E+02 -0.35897847720E+02  0.15037114700E+03  0.15578508007E+03  0.00000000000E+00 0.  1.
         12    1    4    4    0    0  0.15497767725E+03 -0.79110671484E+02  0.13589637183E+04  0.13700580157E+04  0.00000000000E+00 0. -1.
        -11    1    3    3    0    0 -0.94650995570E+02  0.34377527811E+02  0.13594762276E+03  0.16918150465E+03  0.00000000000E+00 0. -1.
         11    1    3    3    0    0 -0.52201022667E+02  0.72790672741E+02  0.35612696633E+02  0.96393428028E+02  0.00000000000E+00 0.  1.
         21    1    1    2  502  501 -0.27331227216E+02  0.78403186515E+01  0.38232610062E+01  0.28689438865E+02  0.00000000000E+00 0.  1.
<scales pt_clust_5="13000.00000" pt_clust_6="13000.00000" pt_clust_7="13000.00000" pt_clust_8="13000.00000" pt_clust_9="28.43355"></scales>
<clustering>
<clus scale="   28.434">  2  9  1 -1</clus>
<clus scale="   80.862">  5  6 -1 -1</clus>
<clus scale="   89.703">  7  8 -1 -1</clus>
<clus scale="  220.073">  1  5  2 -1</clus>
<clus scale="  220.073">  1  5  2 -1</clus>
</clustering>
</event>
<event>
 9    2  0.5608219E-005  0.9435360E+02  0.7546771E-02  0.1298840E+00
          2   -1    0    0  502    0  0.00000000000E+00  0.00000000000E+00  0.18396027581E+03  0.18396027581E+03  0.00000000000E+00 0. -1.
         -1   -1    0    0    0  501 -0.00000000000E+00 -0.00000000000E+00 -0.11327690185E+03  0.11327690185E+03  0.00000000000E+00 0.  1.
         24    2    1    2    0    0 -0.24133306576E+02  0.27107927552E+02 -0.61281832791E+02  0.10601141774E+03  0.78521980611E+02 0.  0.
         23    2    1    2    0    0  0.30553337075E+02 -0.17454332346E+01  0.13509765262E+03  0.16487646910E+03  0.89422152594E+02 0.  0.
        -11    1    3    3    0    0 -0.27025080792E+02  0.49978374413E+02 -0.60426400804E+02  0.82943009440E+02  0.00000000000E+00 0.  1.
         12    1    3    3    0    0  0.28917742166E+01 -0.22870446861E+02 -0.85543198706E+00  0.23068408303E+02  0.00000000000E+00 0. -1.
        -13    1    4    4    0    0  0.29272393045E+02  0.27027950215E+02  0.12955918167E+03  0.13554690938E+03  0.00000000000E+00 0. -1.
         13    1    4    4    0    0  0.12809440306E+01 -0.28773383450E+02  0.55384709524E+01  0.29329559718E+02  0.00000000000E+00 0.  1.
         21    1    1    2  502  501 -0.64200304995E+01 -0.25362494318E+02 -0.31324458788E+01  0.26349290822E+02  0.00000000000E+00 0.  1.
<scales pt_clust_5="13000.00000" pt_clust_6="13000.00000" pt_clust_7="13000.00000" pt_clust_8="13000.00000" pt_clust_9="26.16243"></scales>
<clustering>
<clus scale="   26.162">  2  9  1 -1</clus>
<clus scale="   78.522">  5  6 -1 -1</clus>
<clus scale="   84.095">  2  5  1 -1</clus>
<clus scale="   89.422">  7  8 -1 -1</clus>
<clus scale="   94.354">  1  5  2 -1</clus>
</clustering>
</event>
<event>
 9    2  0.5608219E-005  0.1083589E+03  0.7546771E-02  0.1267688E+00
          2   -1    0    0  502    0  0.00000000000E+00  0.00000000000E+00  0.41302600736E+03  0.41302600736E+03  0.00000000000E+00 0. -1.
         -1   -1    0    0    0  501 -0.00000000000E+00 -0.00000000000E+00 -0.19537010064E+03  0.19537010064E+03  0.00000000000E+00 0.  1.
         24    2    1    2    0    0 -0.34434391854E+02  0.29487459818E+02 -0.93670116944E+02  0.13241816843E+03  0.81885547521E+02 0.  0.
         23    2    1    2    0    0  0.59214346718E+02  0.33812304171E+01  0.38028524719E+03  0.39566747033E+03  0.91750238517E+02 0.  0.
        -11    1    3    3    0    0 -0.22423639789E+02 -0.27095653696E+02 -0.42717160917E+02  0.55333081492E+02  0.00000000000E+00 0.  1.
         12    1    3    3    0    0 -0.12010752065E+02  0.56583113514E+02 -0.50952956026E+02  0.77085086936E+02  0.00000000000E+00 0. -1.
        -13    1    4    4    0    0  0.41234907367E+02  0.46210001271E+02  0.24152664261E+03  0.24934073252E+03  0.00000000000E+00 0. -1.
         13    1    4    4    0    0  0.17979439351E+02 -0.42828770854E+02  0.13875860458E+03  0.14632673781E+03  0.00000000000E+00 0.  1.
         21    1    1    2  502  501 -0.24779954864E+02 -0.32868690235E+02 -0.68959223530E+02  0.80310469247E+02  0.00000000000E+00 0.  1.
<scales pt_clust_5="13000.00000" pt_clust_6="13000.00000" pt_clust_7="13000.00000" pt_clust_8="13000.00000" pt_clust_9="41.16305"></scales>
<clustering>
<clus scale="   41.163">  2  9  1 -1</clus>
<clus scale="   81.886">  5  6 -1 -1</clus>
<clus scale="   91.750">  7  8 -1 -1</clus>
<clus scale="  100.144">  2  5  1 -1</clus>
<clus scale="  108.359">  1  5  2 -1</clus>
</clustering>
</event>
<event>
 9    2  0.5608219E-005  0.1820242E+03  0.7546771E-02  0.1166729E+00
          2   -1    0    0  502    0  0.00000000000E+00  0.00000000000E+00  0.30543479508E+03  0.30543479508E+03  0.00000000000E+00 0. -1.
         -1   -1    0    0    0  501 -0.00000000000E+00 -0.00000000000E+00 -0.39595668730E+03  0.39595668730E+03  0.00000000000E+00 0.  1.
         23    2    1    2    0    0 -0.10570089577E+03  0.92784888574E+02 -0.25620663962E+03  0.30668605730E+03  0.92912758233E+02 0.  0.
         24    2    1    2    0    0  0.12651902272E+03 -0.94974304046E+02  0.24991113572E+03  0.30791675970E+03  0.85615265050E+02 0.  0.
        -13    1    4    4    0    0  0.43170526806E+02 -0.18232377351E+00  0.11657131435E+03  0.12430848304E+03  0.00000000000E+00 0.  1.
         14    1    4    4    0    0  0.83348495911E+02 -0.94791980272E+02  0.13333982136E+03  0.18360827665E+03  0.00000000000E+00 0. -1.
        -11    1    3    3    0    0 -0.10729695306E+03  0.51984864304E+02 -0.22725625670E+03  0.25663294500E+03  0.00000000000E+00 0.  1.
         11    1    3    3    0    0  0.15960572845E+01  0.40800024270E+02 -0.28950382917E+02  0.50053112294E+02  0.00000000000E+00 0. -1.
         21    1    1    2  502  501 -0.20818126946E+02  0.21894154718E+01 -0.84226388317E+02  0.86788665381E+02  0.00000000000E+00 0.  1.
<scales pt_clust_5="13000.00000" pt_clust_6="13000.00000" pt_clust_7="13000.00000" pt_clust_8="13000.00000" pt_clust_9="20.93294"></scales>
<clustering>
<clus scale="   20.933">  2  9  1 -1</clus>
<clus scale="   85.615">  5  6 -1 -1</clus>
<clus scale="   92.913">  7  8 -1 -1</clus>
<clus scale="  178.410">  1  5  2 -1</clus>
<clus scale="  178.410">  1  5  2 -1</clus>
</clustering>
</event>
<event>
 9    2  0.5608219E-005  0.1028990E+03  0.7546771E-02  0.1279186E+00
          2   -1    0    0  502    0  0.00000000000E+00  0.00000000000E+00  0.21810207251E+03  0.21810207251E+03  0.00000000000E+00 0. -1.
         -1   -1    0    0    0  501 -0.00000000000E+00 -0.00000000000E+00 -0.11420252862E+03  0.11420252862E+03  0.00000000000E+00 0.  1.
         24    2    1    2    0    0 -0.20591935908E+02 -0.31277475427E+02  0.96608908366E+01  0.89570588105E+02  0.80791392785E+02 0.  0.
         23    2    1    2    0    0  0.96686121552E+01  0.51825583938E+02  0.14941922007E+03  0.18284713014E+03  0.91255665364E+02 0.  0.
        -13    1    3    3    0    0  0.66521924280E+01 -0.52067727773E+02 -0.40768080631E+01  0.52649029464E+02  0.00000000000E+00 0.  1.
         14    1    3    3    0    0 -0.27244128336E+02  0.20790252346E+02  0.13737698900E+02  0.36921558641E+02  0.00000000000E+00 0. -1.
        -11    1    4    4    0    0  0.94007893184E+01  0.76110093609E+02  0.13301947898E+03  0.15354251195E+03  0.00000000000E+00 0. -1.
         11    1    4    4    0    0  0.26782283676E+00 -0.24284509671E+02  0.16399741092E+02  0.29304618184E+02  0.00000000000E+00 0.  1.
         21    1    1    2  502  501  0.10923323753E+02 -0.20548108511E+02 -0.55180567025E+02  0.59886882891E+02  0.00000000000E+00 0. -1.
<scales pt_clust_5="13000.00000" pt_clust_6="13000.00000" pt_clust_7="13000.00000" pt_clust_8="13000.00000" pt_clust_9="23.27109"></scales>
<clustering>
<clus scale="   23.271">  2  9  1 -1</clus>
<clus scale="   80.791">  5  6 -1 -1</clus>
<clus scale="   91.256">  7  8 -1 -1</clus>
<clus scale="   93.744">  2  5  1 -1</clus>
<clus scale="  102.899">  1  5  2 -1</clus>
</clustering>
</event>
<event>
 9    2  0.5608219E-005  0.3053839E+03  0.7546771E-02  0.1083004E+00
         -1   -1    0    0    0  501 -0.00000000000E+00  0.00000000000E+00  0.16709378721E+03  0.16709378721E+03  0.00000000000E+00 0.  1.
          2   -1    0    0  502    0  0.00000000000E+00 -0.00000000000E+00 -0.66444988903E+03  0.66444988903E+03  0.00000000000E+00 0. -1.
         24    2    1    2    0    0  0.53710835797E+02 -0.27947855735E+03 -0.13995656379E+03  0.32662517247E+03  0.78121992050E+02 0.  0.
         23    2    1    2    0    0 -0.90918802882E+02  0.29065672729E+03 -0.32190613551E+03  0.45229563879E+03  0.90555082425E+02 0.  0.
        -11    1    3    3    0    0 -0.93490266464E+01 -0.15372958394E+03 -0.81964434486E+02  0.17446592160E+03  0.00000000000E+00 0.  1.
         12    1    3    3    0    0  0.63059862443E+02 -0.12574897340E+03 -0.57992129309E+02  0.15215925087E+03  0.00000000000E+00 0. -1.
        -13    1    4    4    0    0 -0.85884942911E+02  0.26177828834E+03 -0.24028238070E+03  0.36556766561E+03  0.00000000000E+00 0.  1.
         13    1    4    4    0    0 -0.50338599712E+01  0.28878438948E+02 -0.81623754812E+02  0.86727973179E+02  0.00000000000E+00 0. -1.
         21    1    1    2  502  501  0.37207967085E+02 -0.11178169938E+02 -0.35493402508E+02  0.52622864986E+02  0.00000000000E+00 0.  1.
<scales pt_clust_5="13000.00000" pt_clust_6="13000.00000" pt_clust_7="13000.00000" pt_clust_8="13000.00000" pt_clust_9="38.85080"></scales>
<clustering>
<clus scale="   38.851">  2  9  1 -1</clus>
<clus scale="   78.122">  5  6 -1 -1</clus>
<clus scale="   90.555">  7  8 -1 -1</clus>
<clus scale="  301.931">  1  5  2 -1</clus>
<clus scale="   38.851">  2  5  1 -1</clus>
</clustering>
</event>
<event>
 9    2  0.5608219E-005  0.3623064E+03  0.7546771E-02  0.1057861E+00
         -1   -1    0    0    0  501 -0.00000000000E+00  0.00000000000E+00  0.10335022752E+03  0.10335022752E+03  0.00000000000E+00 0.  1.
          2   -1    0    0  502    0  0.00000000000E+00 -0.00000000000E+00 -0.13793948858E+04  0.13793948858E+04  0.00000000000E+00 0. -1.
         24    2    1    2    0    0  0.35200335614E+03 -0.82256383641E+02 -0.61767048076E+03  0.72245627206E+03  0.98761160708E+02 0.  0.
         23    2    1    2    0    0 -0.32579346457E+03  0.88453128866E+02 -0.63337778158E+03  0.72354407458E+03  0.91560232045E+02 0.  0.
        -13    1    3    3    0    0  0.23050860058E+02  0.15208061650E+02 -0.23117627283E+02  0.36014607866E+02  0.00000000000E+00 0.  1.
         14    1    3    3    0    0  0.32895249608E+03 -0.97464445291E+02 -0.59455285347E+03  0.68644166420E+03  0.00000000000E+00 0. -1.
        -11    1    4    4    0    0 -0.24276838282E+03  0.63606532920E+02 -0.37680094888E+03  0.45272644478E+03  0.00000000000E+00 0.  1.
         11    1    4    4    0    0 -0.83025081750E+02  0.24846595946E+02 -0.25657683270E+03  0.27081762979E+03  0.00000000000E+00 0. -1.
         21    1    1    2  502  501 -0.26209891570E+02 -0.61967452256E+01 -0.24996395933E+02  0.36744766663E+02  0.00000000000E+00 0.  1.
<scales pt_clust_5="13000.00000" pt_clust_6="13000.00000" pt_clust_7="13000.00000" pt_clust_8="13000.00000" pt_clust_9="26.93247"></scales>
<clustering>
<clus scale="   26.932">  1  9  2 -1</clus>
<clus scale="   91.560">  7  8 -1 -1</clus>
<clus scale="   98.761">  5  6 -1 -1</clus>
<clus scale="  360.410">  2  7  1 -1</clus>
<clus scale="  360.410">  2  5  1 -1</clus>
</clustering>
</event>
<event>
 9    2  0.5608219E-005  0.1433711E+03  0.7546771E-02  0.1210609E+00
         -3   -1    0    0    0  501 -0.00000000000E+00  0.00000000000E+00  0.15931787778E+03  0.15931787778E+03  0.00000000000E+00 0.  1.
          4   -1    0    0  502    0  0.00000000000E+00 -0.00000000000E+00 -0.26884058506E+03  0.26884058506E+03  0.00000000000E+00 0. -1.
         24    2    1    2    0    0 -0.46540386667E+02 -0.11860318893E+03  0.72264511148E+02  0.16718983620E+03  0.80607429819E+02 0.  0.
         23    2    1    2    0    0  0.12100318182E+02  0.10904156719E+03 -0.17424626886E+03  0.22443906534E+03  0.89300900149E+02 0.  0.
        -13    1    3    3    0    0 -0.64573986012E+01 -0.10408832622E+03  0.67655050939E+02  0.12431123670E+03  0.00000000000E+00 0.  1.
         14    1    3    3    0    0 -0.40082988066E+02 -0.14514862709E+02  0.46094602087E+01  0.42878599501E+02  0.00000000000E+00 0. -1.
        -13    1    4    4    0    0  0.41778556926E+02  0.21467460430E+02 -0.41597833010E+02  0.62742962851E+02  0.00000000000E+00 0.  1.
         13    1    4    4    0    0 -0.29678238744E+02  0.87574106756E+02 -0.13264843585E+03  0.16169610249E+03  0.00000000000E+00 0. -1.
         21    1    1    2  502  501  0.34440068485E+02  0.95616217468E+01 -0.75409495722E+01  0.36529561291E+02  0.00000000000E+00 0.  1.
<scales pt_clust_5="13000.00000" pt_clust_6="13000.00000" pt_clust_7="13000.00000" pt_clust_8="13000.00000" pt_clust_9="35.74273"></scales>
<clustering>
<clus scale="   35.743">  1  9  2 -1</clus>
<clus scale="   80.607">  5  6 -1 -1</clus>
<clus scale="   89.301">  7  8 -1 -1</clus>
<clus scale="  138.124">  1  5  2 -1</clus>
<clus scale="  143.371">  2  5  1 -1</clus>
</clustering>
</event>
<event>
 9    2  0.5608219E-005  0.1330058E+03  0.7546771E-02  0.1226152E+00
          2   -1    0    0  502    0  0.00000000000E+00  0.00000000000E+00  0.42313182058E+03  0.42313182058E+03  0.00000000000E+00 0. -1.
         -1   -1    0    0    0  501 -0.00000000000E+00 -0.00000000000E+00 -0.71860404683E+02  0.71860404683E+02  0.00000000000E+00 0.  1.
         23    2    1    2    0    0 -0.87489779952E+02 -0.15372650917E+02  0.28752298762E+02  0.13209141346E+03  0.93438037408E+02 0.  0.
         24    2    1    2    0    0  0.96323947527E+02 -0.60793543812E+01  0.31365475746E+03  0.33806519381E+03  0.81200412413E+02 0.  0.
        -13    1    4    4    0    0  0.36790167112E+02  0.17452792122E+02  0.40210847013E+02  0.57227865297E+02  0.00000000000E+00 0.  1.
         14    1    4    4    0    0  0.59533780416E+02 -0.23532146503E+02  0.27344391044E+03  0.28083732852E+03  0.00000000000E+00 0. -1.
        -11    1    3    3    0    0 -0.90153406683E+02 -0.42613612933E+02  0.31521306964E+02  0.10458082777E+03  0.00000000000E+00 0.  1.
         11    1    3    3    0    0  0.26636267309E+01  0.27240962017E+02 -0.27690082024E+01  0.27510585697E+02  0.00000000000E+00 0. -1.
         21    1    1    2  502  501 -0.88341675749E+01  0.21452005298E+02  0.88643596734E+01  0.24835617980E+02  0.00000000000E+00 0. -1.
<scales pt_clust_5="13000.00000" pt_clust_6="13000.00000" pt_clust_7="13000.00000" pt_clust_8="13000.00000" pt_clust_9="23.19981"></scales>
<clustering>
<clus scale="   23.200">  2  9  1 -1</clus>
<clus scale="   81.200">  5  6 -1 -1</clus>
<clus scale="   93.438">  7  8 -1 -1</clus>
<clus scale="  124.713">  1  5  2 -1</clus>
<clus scale="  124.713">  1  5  2 -1</clus>
</clustering>
</event>
<event>
 9    2  0.5608219E-005  0.1285094E+03  0.7546771E-02  0.1233259E+00
         -1   -1    0    0    0  501 -0.00000000000E+00  0.00000000000E+00  0.19080405445E+03  0.19080405445E+03  0.00000000000E+00 0.  1.
          2   -1    0    0  502    0  0.00000000000E+00 -0.00000000000E+00 -0.36219333273E+03  0.36219333273E+03  0.00000000000E+00 0. -1.
         23    2    1    2    0    0  0.63155613999E+02  0.23464034145E+02  0.39490087184E+02  0.12023727381E+03  0.91423971419E+02 0.  0.
         24    2    1    2    0    0 -0.67794174583E+02 -0.65808606404E+02 -0.30540251763E+03  0.32908173887E+03  0.78085019678E+02 0.  0.
        -13    1    4    4    0    0 -0.38201403200E+02  0.92309386896E+01 -0.13404903691E+03  0.13969145189E+03  0.00000000000E+00 0.  1.
         14    1    4    4    0    0 -0.29592771383E+02 -0.75039545093E+02 -0.17135348072E+03  0.18939028697E+03  0.00000000000E+00 0. -1.
        -11    1    3    3    0    0  0.48931933442E+02 -0.22127289596E+02 -0.63037470209E+01  0.54071140933E+02  0.00000000000E+00 0. -1.
         11    1    3    3    0    0  0.14223680557E+02  0.45591323741E+02  0.45793834205E+02  0.66166132880E+02  0.00000000000E+00 0.  1.
         21    1    1    2  502  501  0.46385605842E+01  0.42344572259E+02  0.94523152160E+02  0.10367837450E+03  0.00000000000E+00 0.  1.
<scales pt_clust_5="13000.00000" pt_clust_6="13000.00000" pt_clust_7="13000.00000" pt_clust_8="13000.00000" pt_clust_9="42.59788"></scales>
<clustering>
<clus scale="   42.598">  1  9  2 -1</clus>
<clus scale="   78.085">  5  6 -1 -1</clus>
<clus scale="   91.424">  7  8 -1 -1</clus>
<clus scale="  119.388">  2  5  1 -1</clus>
<clus scale="  119.388">  2  5  1 -1</clus>
</clustering>
</event>
<event>
 9    2  0.5608219E-005  0.1512157E+03  0.7546771E-02  0.1217075E+00
         -1   -1    0    0    0  501 -0.00000000000E+00  0.00000000000E+00  0.80248706194E+03  0.80248706194E+03  0.00000000000E+00 0.  1.
          2   -1    0    0  502    0  0.00000000000E+00 -0.00000000000E+00 -0.97847768960E+02  0.97847768960E+02  0.00000000000E+00 0. -1.
         24    2    1    2    0    0  0.10218752262E+03 -0.82420422458E+01  0.28454955864E+03  0.31301432679E+03  0.80618213920E+02 0.  0.
         23    2    1    2    0    0  0.46001299515E+02 -0.97914297247E+01 -0.34949784810E+02  0.10841957792E+03  0.91221301046E+02 0.  0.
        -13    1    3    3    0    0 -0.32331166478E+01  0.20498560014E+02  0.55009420579E+02  0.58793540108E+02  0.00000000000E+00 0.  1.
         14    1    3    3    0    0  0.10542063927E+03 -0.28740602260E+02  0.22954013806E+03  0.25422078668E+03  0.00000000000E+00 0. -1.
        -11    1    4    4    0    0  0.52745752068E+02  0.22211627440E+02 -0.46492813461E+02  0.73736371339E+02  0.00000000000E+00 0. -1.
         11    1    4    4    0    0 -0.67444525533E+01 -0.32003057165E+02  0.11543028651E+02  0.34683206579E+02  0.00000000000E+00 0.  1.
         21    1    1    2  502  501 -0.14818882214E+03  0.18033471971E+02  0.45503951915E+03  0.47890092619E+03  0.00000000000E+00 0.  1.
<scales pt_clust_5="13000.00000" pt_clust_6="13000.00000" pt_clust_7="13000.00000" pt_clust_8="13000.00000" pt_clust_9="127.93320"></scales>
<clustering>
<clus scale="   80.618">  5  6 -1 -1</clus>
<clus scale="   91.221">  7  8 -1 -1</clus>
<clus scale="  102.632">  2  7  1 -1</clus>
<clus scale="  127.933">  1  9  2 -1</clus>
<clus scale="  102.632">  2  5  1 -1</clus>
</clustering>
</event>
<event>
 9    2  0.5608219E-005  0.1020240E+03  0.7546771E-02  0.1276226E+00
         -1   -1    0    0    0  501 -0.00000000000E+00  0.00000000000E+00  0.32581023707E+03  0.32581023707E+03  0.00000000000E+00 0.  1.
          2   -1    0    0  502    0  0.00000000000E+00 -0.00000000000E+00 -0.20407435929E+03  0.20407435929E+03  0.00000000000E+00 0. -1.
         24    2    1    2    0    0 -0.51598350583E+02 -0.17163240303E+02  0.14349325927E+03  0.17630129200E+03  0.86803591529E+02 0.  0.
         23    2    1    2    0    0 -0.21518453638E+01  0.56942057923E+02 -0.16538805609E+03  0.19514969498E+03  0.86505294384E+02 0.  0.
        -13    1    3    3    0    0 -0.66819083701E+01 -0.21307928344E+02  0.12593116329E+03  0.12789579194E+03  0.00000000000E+00 0.  1.
         14    1    3    3    0    0 -0.44916442213E+02  0.41446880406E+01  0.17562095985E+02  0.48405500053E+02  0.00000000000E+00 0. -1.
        -11    1    4    4    0    0  0.26760068903E+02  0.50279658404E+02 -0.15252292333E+03  0.16281089484E+03  0.00000000000E+00 0. -1.
         11    1    4    4    0    0 -0.28911914266E+02  0.66623995185E+01 -0.12865132757E+02  0.32338800144E+02  0.00000000000E+00 0.  1.
         21    1    1    2  502  501  0.53750195947E+02 -0.39778817620E+02  0.14363067460E+03  0.15843360938E+03  0.00000000000E+00 0.  1.
<scales pt_clust_5="13000.00000" pt_clust_6="13000.00000" pt_clust_7="13000.00000" pt_clust_8="13000.00000" pt_clust_9="66.86881"></scales>
<clustering>
<clus scale="   66.869">  1  9  2 -1</clus>
<clus scale="   86.505">  7  8 -1 -1</clus>
<clus scale="   86.804">  5  6 -1 -1</clus>
<clus scale="  101.770">  2  7  1 -1</clus>
<clus scale="  101.770">  2  5  1 -1</clus>
</clustering>
</event>
<event>
 9    2  0.5608219E-005  0.1082304E+03  0.7546771E-02  0.1268387E+00
         -1   -1    0    0    0  501 -0.00000000000E+00  0.00000000000E+00  0.17019170829E+03  0.17019170829E+03  0.00000000000E+00 0.  1.
          2   -1    0    0  502    0  0.00000000000E+00 -0.00000000000E+00 -0.86572104122E+03  0.86572104122E+03  0.00000000000E+00 0. -1.
         23    2    1    2    0    0 -0.20981485961E+02  0.26173395264E+02  0.13195817161E+02  0.98355933152E+02  0.91512243022E+02 0.  0.
         24    2    1    2    0    0  0.39981916726E+02 -0.43538405986E+02 -0.81861567943E+03  0.82469190416E+03  0.80566492562E+02 0.  0.
        -11    1    4    4    0    0  0.24219707974E+02 -0.46922027378E+02 -0.23524393834E+03  0.24109745215E+03  0.00000000000E+00 0.  1.
         12    1    4    4    0    0  0.15762208752E+02  0.33836213927E+01 -0.58337174109E+03  0.58359445201E+03  0.00000000000E+00 0. -1.
        -13    1    3    3    0    0  0.19852218144E+02  0.21657060621E+02 -0.27706930526E+02  0.40383323776E+02  0.00000000000E+00 0. -1.
         13    1    3    3    0    0 -0.40833704105E+02  0.45163346434E+01  0.40902747688E+02  0.57972609377E+02  0.00000000000E+00 0.  1.
         21    1    1    2  502  501 -0.19000430766E+02  0.17365010721E+02  0.10989052933E+03  0.11286491219E+03  0.00000000000E+00 0.  1.
<scales pt_clust_5="13000.00000" pt_clust_6="13000.00000" pt_clust_7="13000.00000" pt_clust_8="13000.00000" pt_clust_9="25.74024"></scales>
<clustering>
<clus scale="   25.740">  1  9  2 -1</clus>
<clus scale="   80.566">  5  6 -1 -1</clus>
<clus scale="   91.512">  7  8 -1 -1</clus>
<clus scale="   99.148">  2  5  1 -1</clus>
<clus scale="   99.148">  2  5  1 -1</clus>
</clustering>
</event>
<event>
 9    2  0.5608219E-005  0.1065778E+03  0.7546771E-02  0.1271504E+00
         -3   -1    0    0    0  501 -0.00000000000E+00  0.00000000000E+00  0.25320116421E+03  0.25320116421E+03  0.00000000000E+00 0.  1.
          4   -1    0    0  502    0  0.00000000000E+00 -0.00000000000E+00 -0.79761755075E+02  0.79761755075E+02  0.00000000000E+00 0. -1.
         24    2    1    2    0    0  0.21094245648E+02  0.73247836204E+01  0.11488011976E+03  0.14135060395E+03  0.79271253709E+02 0.  0.
         23    2    1    2    0    0 -0.57651398059E+02 -0.47770448389E+02  0.80452435877E+01  0.11728906183E+03  0.89923849133E+02 0.  0.
        -11    1    3    3    0    0 -0.28589378599E+02  0.51498315108E+01  0.23703081726E+02  0.37492791528E+02  0.00000000000E+00 0.  1.
         12    1    3    3    0    0  0.49683624247E+02  0.21749521096E+01  0.91177038037E+02  0.10385781242E+03  0.00000000000E+00 0. -1.
        -13    1    4    4    0    0 -0.79961106531E+02 -0.22010848702E+02  0.57007391289E+01  0.83130947576E+02  0.00000000000E+00 0.  1.
         13    1    4    4    0    0  0.22309708472E+02 -0.25759599687E+02  0.23445044588E+01  0.34158114253E+02  0.00000000000E+00 0. -1.
         21    1    1    2  502  501  0.36557152411E+02  0.40445664769E+02  0.50514045789E+02  0.74323253514E+02  0.00000000000E+00 0. -1.
<scales pt_clust_5="13000.00000" pt_clust_6="13000.00000" pt_clust_7="13000.00000" pt_clust_8="13000.00000" pt_clust_9="54.51859"></scales>
<clustering>
<clus scale="   54.519">  1  9  2 -1</clus>
<clus scale="   79.271">  5  6 -1 -1</clus>
<clus scale="   89.924">  7  8 -1 -1</clus>
<clus scale="   97.757">  1  5  2 -1</clus>
<clus scale="  106.578">  2  5  1 -1</clus>
</clustering>
</event>
<event>
 9    2  0.5608219E-005  0.1134496E+03  0.7546771E-02  0.1255608E+00
          2   -1    0    0  502    0  0.00000000000E+00  0.00000000000E+00  0.93392724028E+02  0.93392724028E+02  0.00000000000E+00 0. -1.
         -1   -1    0    0    0  501 -0.00000000000E+00 -0.00000000000E+00 -0.23045537375E+03  0.23045537375E+03  0.00000000000E+00 0.  1.
         23    2    1    2    0    0 -0.51232438655E+02 -0.65301141282E+02 -0.67402740294E+02  0.13968984105E+03  0.89895052535E+02 0.  0.
         24    2    1    2    0    0  0.14378451311E+02  0.62761105871E+02 -0.26652607132E+01  0.10765367438E+03  0.86235223207E+02 0.  0.
        -11    1    4    4    0    0  0.46943029370E+02  0.45694238964E+02  0.14472136514E+02  0.67089896529E+02  0.00000000000E+00 0.  1.
         12    1    4    4    0    0 -0.32564578060E+02  0.17066866907E+02 -0.17137397228E+02  0.40563777856E+02  0.00000000000E+00 0. -1.
        -13    1    3    3    0    0 -0.71986851863E+02 -0.67146429944E+02 -0.66569185896E+02  0.11883688992E+03  0.00000000000E+00 0.  1.
         13    1    3    3    0    0  0.20754413208E+02  0.18452886615E+01 -0.83355439747E+00  0.20852951129E+02  0.00000000000E+00 0. -1.
         21    1    1    2  502  501  0.36853987345E+02  0.25400354109E+01 -0.66994648719E+02  0.76504582346E+02  0.00000000000E+00 0.  1.
<scales pt_clust_5="13000.00000" pt_clust_6="13000.00000" pt_clust_7="13000.00000" pt_clust_8="13000.00000" pt_clust_9="36.94142"></scales>
<clustering>
<clus scale="   36.941">  2  9  1 -1</clus>
<clus scale="   86.235">  5  6 -1 -1</clus>
<clus scale="   89.895">  7  8 -1 -1</clus>
<clus scale="  110.572">  1  5  2 -1</clus>
<clus scale="  110.572">  1  5  2 -1</clus>
</clustering>
</event>
<event>
 9    2  0.5608219E-005  0.9885344E+02  0.7546771E-02  0.1288265E+00
          4   -1    0    0  502    0  0.00000000000E+00  0.00000000000E+00  0.17986954877E+03  0.17986954877E+03  0.00000000000E+00 0. -1.
         -3   -1    0    0    0  501 -0.00000000000E+00 -0.00000000000E+00 -0.12335199475E+03  0.12335199475E+03  0.00000000000E+00 0.  1.
         24    2    1    2    0    0  0.43894811557E+02  0.43624591935E+02  0.61221328273E+02  0.11867609649E+03  0.80660432309E+02 0.  0.
         23    2    1    2    0    0  0.17201119060E+02 -0.25012943683E+02  0.42379370225E+02  0.10519855872E+03  0.91373956290E+02 0.  0.
        -13    1    3    3    0    0  0.27272657427E+02  0.59523732159E+01 -0.15260982248E+02  0.31813930427E+02  0.00000000000E+00 0.  1.
         14    1    3    3    0    0  0.16622154130E+02  0.37672218719E+02  0.76482310521E+02  0.86862166067E+02  0.00000000000E+00 0. -1.
        -13    1    4    4    0    0 -0.12157288094E+02 -0.17499530928E+02 -0.24081206667E+02  0.32154902442E+02  0.00000000000E+00 0.  1.
         13    1    4    4    0    0  0.29358407155E+02 -0.75134127548E+01  0.66460576893E+02  0.73043656280E+02  0.00000000000E+00 0. -1.
         21    1    1    2  502  501 -0.61095930617E+02 -0.18611648252E+02 -0.47083144480E+02  0.79346888299E+02  0.00000000000E+00 0.  1.
<scales pt_clust_5="13000.00000" pt_clust_6="13000.00000" pt_clust_7="13000.00000" pt_clust_8="13000.00000" pt_clust_9="63.86788"></scales>
<clustering>
<clus scale="   63.868">  2  9  1 -1</clus>
<clus scale="   80.660">  5  6 -1 -1</clus>
<clus scale="   89.044">  2  5  1 -1</clus>
<clus scale="   91.374">  7  8 -1 -1</clus>
<clus scale="   98.853">  1  5  2 -1</clus>
</clustering>
</event>
<event>
 9    2  0.5608219E-005  0.9365820E+02  0.7546771E-02  0.1300802E+00
          2   -1    0    0  502    0  0.00000000000E+00  0.00000000000E+00  0.19754010968E+03  0.19754010968E+03  0.00000000000E+00 0. -1.
         -1   -1    0    0    0  501 -0.00000000000E+00 -0.00000000000E+00 -0.77361871223E+02  0.77361871223E+02  0.00000000000E+00 0.  1.
         23    2    1    2    0    0  0.32204397125E+01  0.20825793280E+02  0.16838426616E+02  0.95422998614E+02  0.91531039303E+02 0.  0.
         24    2    1    2    0    0 -0.25071751385E+02  0.19820357911E+01  0.11768011095E+03  0.14479006378E+03  0.80517283060E+02 0.  0.
        -11    1    4    4    0    0  0.14361246162E+02 -0.18961280495E+02  0.60232108365E+01  0.24536801301E+02  0.00000000000E+00 0.  1.
         12    1    4    4    0    0 -0.39432997546E+02  0.20943316286E+02  0.11165690012E+03  0.12025326248E+03  0.00000000000E+00 0. -1.
        -13    1    3    3    0    0 -0.22515265833E+02  0.26316065229E+02 -0.27256742866E+02  0.44072695814E+02  0.00000000000E+00 0. -1.
         13    1    3    3    0    0  0.25735705546E+02 -0.54902719489E+01  0.44095169482E+02  0.51350302800E+02  0.00000000000E+00 0.  1.
         21    1    1    2  502  501  0.21851311672E+02 -0.22807829072E+02 -0.14340299113E+02  0.34688918510E+02  0.00000000000E+00 0.  1.
<scales pt_clust_5="13000.00000" pt_clust_6="13000.00000" pt_clust_7="13000.00000" pt_clust_8="13000.00000" pt_clust_9="31.58602"></scales>
<clustering>
<clus scale="   31.586">  2  9  1 -1</clus>
<clus scale="   80.517">  5  6 -1 -1</clus>
<clus scale="   82.927">  1  5  2 -1</clus>
<clus scale="   91.531">  7  8 -1 -1</clus>
<clus scale="   82.927">  1  5  2 -1</clus>
</clustering>
</event>
<event>
 9    2  0.5608219E-005  0.1015406E+03  0.7546771E-02  0.1282998E+00
          2   -1    0    0  502    0  0.00000000000E+00  0.00000000000E+00  0.47622127311E+03  0.47622127311E+03  0.00000000000E+00 0. -1.
         -1   -1    0    0    0  501 -0.00000000000E+00 -0.00000000000E+00 -0.35834248119E+02  0.35834248119E+02  0.00000000000E+00 0.  1.
         23    2    1    2    0    0 -0.58670290444E+02  0.36989493634E+02  0.21663258476E+03  0.24509088928E+03  0.91265774592E+02 0.  0.
         24    2    1    2    0    0  0.31291898755E+02 -0.24999277410E+01  0.19905683334E+03  0.21647623453E+03  0.79075309990E+02 0.  0.
        -13    1    4    4    0    0  0.40837096654E+02  0.16703426526E+02  0.53491928395E+02  0.69340171071E+02  0.00000000000E+00 0.  1.
         14    1    4    4    0    0 -0.95451978991E+01 -0.19203354267E+02  0.14556490495E+03  0.14713606346E+03  0.00000000000E+00 0. -1.
        -11    1    3    3    0    0 -0.77932923757E+02  0.17683776634E+02  0.11624194115E+03  0.14106184971E+03  0.00000000000E+00 0. -1.
         11    1    3    3    0    0  0.19262633314E+02  0.19305717000E+02  0.10039064360E+03  0.10402903957E+03  0.00000000000E+00 0.  1.
         21    1    1    2  502  501  0.27378391689E+02 -0.34489565894E+02  0.24697606889E+02  0.50488397410E+02  0.00000000000E+00 0.  1.
<scales pt_clust_5="13000.00000" pt_clust_6="13000.00000" pt_clust_7="13000.00000" pt_clust_8="13000.00000" pt_clust_9="44.03529"></scales>
<clustering>
<clus scale="   44.035">  2  9  1 -1</clus>
<clus scale="   79.075">  5  6 -1 -1</clus>
<clus scale="   90.741">  1  5  2 -1</clus>
<clus scale="   91.266">  7  8 -1 -1</clus>
<clus scale="   90.741">  1  5  2 -1</clus>
</clustering>
</event>
<event>
 9    2  0.5608219E-005  0.1123159E+03  0.7546771E-02  0.1270644E+00
          2   -1    0    0  502    0  0.00000000000E+00  0.00000000000E+00  0.13495123645E+03  0.13495123645E+03  0.00000000000E+00 0. -1.
         -1   -1    0    0    0  501 -0.00000000000E+00 -0.00000000000E+00 -0.18755597161E+03  0.18755597161E+03  0.00000000000E+00 0.  1.
         23    2    1    2    0    0 -0.15152431044E+00  0.40526877466E+01 -0.80242076594E+02  0.13622992931E+03  0.11001525142E+03 0.  0.
         24    2    1    2    0    0 -0.15594865799E+02  0.21964176655E+02  0.85195376293E+02  0.12117924951E+03  0.81856786364E+02 0.  0.
        -13    1    4    4    0    0  0.25925344708E+02  0.11320762853E+01  0.21683951890E+01  0.26040488333E+02  0.00000000000E+00 0.  1.
         14    1    4    4    0    0 -0.41520210507E+02  0.20832100370E+02  0.83026981104E+02  0.95138761173E+02  0.00000000000E+00 0. -1.
        -13    1    3    3    0    0  0.48166729697E+02 -0.21420475306E+02 -0.54579389613E+02  0.75880039422E+02  0.00000000000E+00 0.  1.
         13    1    3    3    0    0 -0.48318254008E+02  0.25473163053E+02 -0.25662686981E+02  0.60349889887E+02  0.00000000000E+00 0. -1.
         21    1    1    2  502  501  0.15746390110E+02 -0.26016864402E+02 -0.57558034861E+02  0.65098029247E+02  0.00000000000E+00 0.  1.
<scales pt_clust_5="13000.00000" pt_clust_6="13000.00000" pt_clust_7="13000.00000" pt_clust_8="13000.00000" pt_clust_9="30.41095"></scales>
<clustering>
<clus scale="   30.411">  2  9  1 -1</clus>
<clus scale="   81.857">  5  6 -1 -1</clus>
<clus scale="   84.924">  1  5  2 -1</clus>
<clus scale="  110.015">  7  8 -1 -1</clus>
<clus scale="   84.924">  1  5  2 -1</clus>
</clustering>
</event>
<event>
 9    2  0.5608219E-005  0.1289146E+03  0.7546771E-02  0.1249196E+00
         -1   -1    0    0    0  501 -0.00000000000E+00  0.00000000000E+00  0.10568288625E+04  0.10568288625E+04  0.00000000000E+00 0.  1.
          2   -1    0    0  502    0  0.00000000000E+00 -0.00000000000E+00 -0.68239698515E+02  0.68239698515E+02  0.00000000000E+00 0. -1.
         23    2    1    2    0    0 -0.75163120162E+02 -0.21808490690E+02  0.27519847793E+03  0.30050659089E+03  0.91896158861E+02 0.  0.
         24    2    1    2    0    0 -0.18870230727E+02  0.25437272503E+02 -0.17709524161E+02  0.87430396720E+02  0.79544368654E+02 0.  0.
        -13    1    4    4    0    0 -0.12811758271E+02 -0.24469232035E+02  0.10776107738E+02  0.29648085340E+02  0.00000000000E+00 0.  1.
         14    1    4    4    0    0 -0.60584724560E+01  0.49906504538E+02 -0.28485631899E+02  0.57782311380E+02  0.00000000000E+00 0. -1.
        -11    1    3    3    0    0 -0.48416708608E+02 -0.43197223252E+02  0.24920111438E+03  0.25750994773E+03  0.00000000000E+00 0.  1.
         11    1    3    3    0    0 -0.26746411554E+02  0.21388732562E+02  0.25997363548E+02  0.42996643161E+02  0.00000000000E+00 0. -1.
         21    1    1    2  502  501  0.94033350889E+02 -0.36287818134E+01  0.73110021017E+03  0.73713157336E+03  0.00000000000E+00 0.  1.
<scales pt_clust_5="13000.00000" pt_clust_6="13000.00000" pt_clust_7="13000.00000" pt_clust_8="13000.00000" pt_clust_9="90.41060"></scales>
<clustering>
<clus scale="   79.544">  5  6 -1 -1</clus>
<clus scale="   85.618">  2  5  1 -1</clus>
<clus scale="   90.411">  1  9  2 -1</clus>
<clus scale="   91.896">  7  8 -1 -1</clus>
<clus scale="   85.618">  2  5  1 -1</clus>
</clustering>
</event>
<event>
 9    2  0.5608219E-005  0.1712447E+03  0.7546771E-02  0.1185482E+00
         -1   -1    0    0    0  501 -0.00000000000E+00  0.00000000000E+00  0.29139849030E+03  0.29139849030E+03  0.00000000000E+00 0.  1.
          2   -1    0    0  502    0  0.00000000000E+00 -0.00000000000E+00 -0.48626637082E+03  0.48626637082E+03  0.00000000000E+00 0. -1.
         23    2    1    2    0    0  0.72872897989E+02  0.87218689442E+02  0.18064405908E+03  0.22864250187E+03  0.82021695491E+02 0.  0.
         24    2    1    2    0    0 -0.16346898662E+03  0.20411031803E+02 -0.36440406135E+03  0.40790115912E+03  0.80338757024E+02 0.  0.
        -11    1    4    4    0    0 -0.70011927212E+02  0.48883175433E+02 -0.17941984561E+03  0.19870258123E+03  0.00000000000E+00 0.  1.
         12    1    4    4    0    0 -0.93457059404E+02 -0.28472143630E+02 -0.18498421574E+03  0.20919857788E+03  0.00000000000E+00 0. -1.
        -11    1    3    3    0    0  0.63239632897E+02  0.64334452087E+02  0.67139361365E+02  0.11245384270E+03  0.00000000000E+00 0.  1.
         11    1    3    3    0    0  0.96332650916E+01  0.22884237356E+02  0.11350469771E+03  0.11618865917E+03  0.00000000000E+00 0. -1.
         21    1    1    2  502  501  0.90596088627E+02 -0.10762972124E+03 -0.11107878254E+02  0.14112120014E+03  0.00000000000E+00 0.  1.
<scales pt_clust_5="13000.00000" pt_clust_6="13000.00000" pt_clust_7="13000.00000" pt_clust_8="13000.00000" pt_clust_9="151.22979"></scales>
<clustering>
<clus scale="   80.339">  5  6 -1 -1</clus>
<clus scale="   82.022">  7  8 -1 -1</clus>
<clus scale="  140.161">  1  7  2 -1</clus>
<clus scale="  151.230">  1  9  2 -1</clus>
<clus scale="  171.245">  2  5  1 -1</clus>
</clustering>
</event>
<event>
 9    2  0.6180677E-005  0.1006991E+03  0.7546771E-02  0.1285487E+00
         -1   -1    0    0    0  501 -0.00000000000E+00  0.00000000000E+00  0.14132307101E+03  0.14132307101E+03  0.00000000000E+00 0.  1.
          2   -1    0    0  502    0  0.00000000000E+00 -0.00000000000E+00 -0.39273655737E+03  0.39273655737E+03  0.00000000000E+00 0. -1.
         23    2    1    2    0    0  0.13714527370E+02 -0.47007975164E+02  0.10093704790E+03  0.14558463134E+03  0.92783399673E+02 0.  0.
         24    2    1    2    0    0 -0.25163660946E+02  0.29638362842E+02 -0.35641875359E+03  0.36727743821E+03  0.79666469264E+02 0.  0.
        -11    1    4    4    0    0  0.23978466594E+02 -0.49901573679E+01 -0.59679821247E+02  0.64510073592E+02  0.00000000000E+00 0.  1.
         12    1    4    4    0    0 -0.49142127541E+02  0.34628520210E+02 -0.29673893234E+03  0.30276736462E+03  0.00000000000E+00 0. -1.
        -11    1    3    3    0    0  0.27504549154E+02 -0.71234009391E+02  0.80962273091E+02  0.11129094295E+03  0.00000000000E+00 0.  1.
         11    1    3    3    0    0 -0.13790021784E+02  0.24226034227E+02  0.19974774804E+02  0.34293688394E+02  0.00000000000E+00 0. -1.
         21    1    1    2  502  501  0.11449133577E+02  0.17369612321E+02  0.40682193291E+01  0.21197558830E+02  0.00000000000E+00 0.  1.
<scales pt_clust_5="13000.00000" pt_clust_6="13000.00000" pt_clust_7="13000.00000" pt_clust_8="13000.00000" pt_clust_9="20.80351"></scales>
<clustering>
<clus scale="   20.804">  1  9  2 -1</clus>
<clus scale="   79.666">  5  6 -1 -1</clus>
<clus scale="   88.760">  2  5  1 -1</clus>
<clus scale="   92.783">  7  8 -1 -1</clus>
<clus scale="   88.760">  2  5  1 -1</clus>
</clustering>
</event>
<event>
 9    2  0.5608219E-005  0.8361451E+02  0.7546771E-02  0.1323157E+00
         -1   -1    0    0    0  501 -0.00000000000E+00  0.00000000000E+00  0.11832083659E+03  0.11832083659E+03  0.00000000000E+00 0.  1.
          2   -1    0    0  502    0  0.00000000000E+00 -0.00000000000E+00 -0.11632383546E+03  0.11632383546E+03  0.00000000000E+00 0. -1.
         23    2    1    2    0    0  0.28700239366E+02 -0.25814028572E+02  0.20418408546E+02  0.86778035902E+02  0.74989654598E+02 0.  0.
         24    2    1    2    0    0 -0.93788847178E+01  0.97279016619E+01 -0.58291470182E+02  0.10073172202E+03  0.81033257221E+02 0.  0.
        -11    1    4    4    0    0 -0.44822884908E+02  0.12162078556E+02 -0.29696983412E+02  0.55126381979E+02  0.00000000000E+00 0.  1.
         12    1    4    4    0    0  0.35444000190E+02 -0.24341768940E+01 -0.28594486769E+02  0.45605340041E+02  0.00000000000E+00 0. -1.
        -11    1    3    3    0    0 -0.11595299396E+02 -0.36276779058E+02  0.23961773274E+02  0.44995802531E+02  0.00000000000E+00 0.  1.
         11    1    3    3    0    0  0.40295538762E+02  0.10462750487E+02 -0.35433647288E+01  0.41782233371E+02  0.00000000000E+00 0. -1.
         21    1    1    2  502  501 -0.19321354648E+02  0.16086126910E+02  0.39870062764E+02  0.47134914121E+02  0.00000000000E+00 0.  1.
<scales pt_clust_5="13000.00000" pt_clust_6="13000.00000" pt_clust_7="13000.00000" pt_clust_8="13000.00000" pt_clust_9="25.14117"></scales>
<clustering>
<clus scale="   25.141">  1  9  2 -1</clus>
<clus scale="   74.990">  7  8 -1 -1</clus>
<clus scale="   77.772">  1  7  2 -1</clus>
<clus scale="   81.033">  5  6 -1 -1</clus>
<clus scale="   83.615">  2  5  1 -1</clus>
</clustering>
</event>
<event>
 9    2  0.5608219E-005  0.1698505E+03  0.7546771E-02  0.1178660E+00
         -1   -1    0    0    0  501 -0.00000000000E+00  0.00000000000E+00  0.87638888211E+02  0.87638888211E+02  0.00000000000E+00 0.  1.
          2   -1    0    0  502    0  0.00000000000E+00 -0.00000000000E+00 -0.21668960451E+04  0.21668960451E+04  0.00000000000E+00 0. -1.
         23    2    1    2    0    0 -0.16266609368E+02 -0.16799476531E+03 -0.15101643408E+03  0.24208990308E+03  0.85526101621E+02 0.  0.
         24    2    1    2    0    0  0.75948883234E+01  0.14486618836E+03 -0.19628932168E+04  0.19698900639E+04  0.80456128084E+02 0.  0.
        -11    1    4    4    0    0 -0.16355273123E+02  0.25482663130E+02 -0.15679072824E+03  0.15968780023E+03  0.00000000000E+00 0.  1.
         12    1    4    4    0    0  0.23950161446E+02  0.11938352523E+03 -0.18061024885E+04  0.18102022637E+04  0.00000000000E+00 0. -1.
        -11    1    3    3    0    0  0.20193629450E+02 -0.10361525778E+02 -0.31675801150E+01  0.22916750437E+02  0.00000000000E+00 0. -1.
         11    1    3    3    0    0 -0.36460238818E+02 -0.15763323953E+03 -0.14784885397E+03  0.21917315265E+03  0.00000000000E+00 0.  1.
         21    1    1    2  502  501  0.86717210447E+01  0.23128576956E+02  0.34652493987E+02  0.42554966307E+02  0.00000000000E+00 0.  1.
<scales pt_clust_5="13000.00000" pt_clust_6="13000.00000" pt_clust_7="13000.00000" pt_clust_8="13000.00000" pt_clust_9="24.70081"></scales>
<clustering>
<clus scale="   24.701">  1  9  2 -1</clus>
<clus scale="   80.456">  5  6 -1 -1</clus>
<clus scale="   85.526">  7  8 -1 -1</clus>
<clus scale="  167.355">  2  5  1 -1</clus>
<clus scale="  167.355">  2  5  1 -1</clus>
</clustering>
</event>
<event>
 9    2  0.5608219E-005  0.1289080E+03  0.7546771E-02  0.1232193E+00
          2   -1    0    0  502    0  0.00000000000E+00  0.00000000000E+00  0.18609621964E+03  0.18609621964E+03  0.00000000000E+00 0. -1.
         -1   -1    0    0    0  501 -0.00000000000E+00 -0.00000000000E+00 -0.30358713109E+03  0.30358713109E+03  0.00000000000E+00 0.  1.
         23    2    1    2    0    0 -0.24737182561E+02  0.73860171400E+02 -0.18778370470E+03  0.21423086804E+03  0.67563984125E+02 0.  0.
         24    2    1    2    0    0  0.38694959821E+02 -0.95542765402E+02  0.14555244341E+03  0.19589766278E+03  0.81022592931E+02 0.  0.
        -11    1    4    4    0    0 -0.24902239001E+02 -0.17592672666E+02  0.35313096699E+02  0.46654457850E+02  0.00000000000E+00 0.  1.
         12    1    4    4    0    0  0.63597198822E+02 -0.77950092736E+02  0.11023934671E+03  0.14924320493E+03  0.00000000000E+00 0. -1.
        -13    1    3    3    0    0  0.13195265212E+02  0.54875284093E+02 -0.75963076938E+02  0.94635093312E+02  0.00000000000E+00 0.  1.
         13    1    3    3    0    0 -0.37932447773E+02  0.18984887306E+02 -0.11182062776E+03  0.11959577473E+03  0.00000000000E+00 0. -1.
         21    1    1    2  502  501 -0.13957777261E+02  0.21682594002E+02 -0.75259650155E+02  0.79554819905E+02  0.00000000000E+00 0. -1.
<scales pt_clust_5="13000.00000" pt_clust_6="13000.00000" pt_clust_7="13000.00000" pt_clust_8="13000.00000" pt_clust_9="25.78671"></scales>
<clustering>
<clus scale="   25.787">  2  9  1 -1</clus>
<clus scale="   67.564">  7  8 -1 -1</clus>
<clus scale="   81.023">  5  6 -1 -1</clus>
<clus scale="  120.903">  2  7  1 -1</clus>
<clus scale="  128.908">  1  5  2 -1</clus>
</clustering>
</event>
<event>
 9    2  0.5608219E-005  0.2173864E+03  0.7546771E-02  0.1136446E+00
         -1   -1    0    0    0  501 -0.00000000000E+00  0.00000000000E+00  0.73998663017E+02  0.73998663017E+02  0.00000000000E+00 0.  1.
          2   -1    0    0  502    0  0.00000000000E+00 -0.00000000000E+00 -0.12587086553E+04  0.12587086553E+04  0.00000000000E+00 0. -1.
         23    2    1    2    0    0 -0.96741795829E+02  0.19126130387E+03 -0.25330506106E+03  0.34368376754E+03  0.89527742600E+02 0.  0.
         24    2    1    2    0    0  0.15891325698E+03 -0.11860026540E+03 -0.78803527739E+03  0.81668732494E+03  0.81603566814E+02 0.  0.
        -13    1    4    4    0    0  0.10184549917E+03 -0.46033469486E+02 -0.30325903955E+03  0.32319905798E+03  0.00000000000E+00 0.  1.
         14    1    4    4    0    0  0.57067757806E+02 -0.72566795917E+02 -0.48477623784E+03  0.49348826696E+03  0.00000000000E+00 0. -1.
        -13    1    3    3    0    0  0.10882548345E+02  0.66694888467E+02 -0.69528687082E+02  0.96958116388E+02  0.00000000000E+00 0. -1.
         13    1    3    3    0    0 -0.10762434417E+03  0.12456641541E+03 -0.18377637398E+03  0.24672565116E+03  0.00000000000E+00 0.  1.
         21    1    1    2  502  501 -0.62171461150E+02 -0.72661038469E+02 -0.14336965383E+03  0.17233622583E+03  0.00000000000E+00 0. -1.
<scales pt_clust_5="13000.00000" pt_clust_6="13000.00000" pt_clust_7="13000.00000" pt_clust_8="13000.00000" pt_clust_9="95.62906"></scales>
<clustering>
<clus scale="   81.604">  5  6 -1 -1</clus>
<clus scale="   89.528">  7  8 -1 -1</clus>
<clus scale="   95.629">  1  9  2 -1</clus>
<clus scale="  214.245">  2  5  1 -1</clus>
<clus scale="  214.245">  2  5  1 -1</clus>
</clustering>
</event>
<event>
 9    2  0.5608219E-005  0.1884246E+03  0.7546771E-02  0.1161416E+00
         -1   -1    0    0    0  501 -0.00000000000E+00  0.00000000000E+00  0.33617446094E+03  0.33617446094E+03  0.00000000000E+00 0.  1.
          2   -1    0    0  502    0  0.00000000000E+00 -0.00000000000E+00 -0.50612801365E+03  0.50612801365E+03  0.00000000000E+00 0. -1.
         23    2    1    2    0    0 -0.10957558797E+02 -0.15119162455E+03  0.21989346466E+03  0.28288124747E+03  0.93218501072E+02 0.  0.
         24    2    1    2    0    0 -0.38068615189E+02  0.16064322335E+03 -0.44729570458E+03  0.48330782410E+03  0.79104619542E+02 0.  0.
        -13    1    4    4    0    0 -0.36989471740E+02  0.15934048231E+03 -0.35366769626E+03  0.38966453483E+03  0.00000000000E+00 0.  1.
         14    1    4    4    0    0 -0.10791434493E+01  0.13027410393E+01 -0.93628008318E+02  0.93643289276E+02  0.00000000000E+00 0. -1.
        -13    1    3    3    0    0  0.39690998644E+02 -0.88047633108E+02  0.10979981205E+03  0.14623186997E+03  0.00000000000E+00 0.  1.
         13    1    3    3    0    0 -0.50648557441E+02 -0.63143991443E+02  0.11009365261E+03  0.13664937750E+03  0.00000000000E+00 0. -1.
         21    1    1    2  502  501  0.49026173986E+02 -0.94515988030E+01  0.57448687207E+02  0.76113403008E+02  0.00000000000E+00 0.  1.
<scales pt_clust_5="13000.00000" pt_clust_6="13000.00000" pt_clust_7="13000.00000" pt_clust_8="13000.00000" pt_clust_9="49.92893"></scales>
<clustering>
<clus scale="   49.929">  1  9  2 -1</clus>
<clus scale="   79.105">  5  6 -1 -1</clus>
<clus scale="   93.219">  7  8 -1 -1</clus>
<clus scale="  181.856">  2  5  1 -1</clus>
<clus scale="  181.856">  2  5  1 -1</clus>
</clustering>
</event>
<event>
 9    2  0.5608219E-005  0.1440889E+03  0.7546771E-02  0.1222763E+00
          2   -1    0    0  502    0  0.00000000000E+00  0.00000000000E+00  0.14603931432E+04  0.14603931432E+04  0.00000000000E+00 0. -1.
         -1   -1    0    0    0  501 -0.00000000000E+00 -0.00000000000E+00 -0.95795520617E+02  0.95795520617E+02  0.00000000000E+00 0.  1.
         23    2    1    2    0    0  0.10104412161E+03  0.16910541242E+02  0.32415057978E+03  0.35185800730E+03  0.90744575654E+02 0.  0.
         24    2    1    2    0    0 -0.19799159950E+02  0.64845595236E+02  0.10779844284E+04  0.10831124031E+04  0.80530068525E+02 0.  0.
        -13    1    4    4    0    0 -0.17680777241E+02  0.39178259816E+02  0.19194837942E+03  0.19670212579E+03  0.00000000000E+00 0.  1.
         14    1    4    4    0    0 -0.21183827088E+01  0.25667335419E+02  0.88603604894E+03  0.88641027728E+03  0.00000000000E+00 0. -1.
        -11    1    3    3    0    0  0.79230617705E+02  0.50244070475E+02  0.25928300244E+03  0.27573471445E+03  0.00000000000E+00 0. -1.
         11    1    3    3    0    0  0.21813503906E+02 -0.33333529232E+02  0.64867577342E+02  0.76123292848E+02  0.00000000000E+00 0.  1.
         21    1    1    2  502  501 -0.81244961661E+02 -0.81756136478E+02 -0.37537385582E+02  0.12121825343E+03  0.00000000000E+00 0.  1.
<scales pt_clust_5="13000.00000" pt_clust_6="13000.00000" pt_clust_7="13000.00000" pt_clust_8="13000.00000" pt_clust_9="111.92417"></scales>
<clustering>
<clus scale="   80.530">  5  6 -1 -1</clus>
<clus scale="   90.745">  7  8 -1 -1</clus>
<clus scale="  105.271">  1  5  2 -1</clus>
<clus scale="  111.924">  2  9  1 -1</clus>
<clus scale="  105.271">  1  5  2 -1</clus>
</clustering>
</event>
<event>
 9    2  0.5608219E-005  0.1153056E+03  0.7546771E-02  0.1256168E+00
         -1   -1    0    0    0  501 -0.00000000000E+00  0.00000000000E+00  0.13048231782E+03  0.13048231782E+03  0.00000000000E+00 0.  1.
          2   -1    0    0  502    0  0.00000000000E+00 -0.00000000000E+00 -0.20793272695E+03  0.20793272695E+03  0.00000000000E+00 0. -1.
         23    2    1    2    0    0 -0.71229318877E+01  0.77787156287E+02 -0.80476282893E+02  0.14583789245E+03  0.93223821656E+02 0.  0.
         24    2    1    2    0    0 -0.13994225440E+02 -0.59367017889E+02 -0.64922675707E+02  0.11907721214E+03  0.79019918190E+02 0.  0.
        -11    1    4    4    0    0  0.27928485337E+02 -0.42441704089E+02 -0.17955467991E+02  0.53885966355E+02  0.00000000000E+00 0.  1.
         12    1    4    4    0    0 -0.41922710777E+02 -0.16925313800E+02 -0.46967207716E+02  0.65191245783E+02  0.00000000000E+00 0. -1.
        -13    1    3    3    0    0  0.34657856758E+02  0.15437808177E+02 -0.54520388698E+02  0.66422629729E+02  0.00000000000E+00 0. -1.
         13    1    3    3    0    0 -0.41780788646E+02  0.62349348110E+02 -0.25955894195E+02  0.79415262721E+02  0.00000000000E+00 0.  1.
         21    1    1    2  502  501  0.21117157328E+02 -0.18420138398E+02  0.67948549471E+02  0.73499940187E+02  0.00000000000E+00 0. -1.
<scales pt_clust_5="13000.00000" pt_clust_6="13000.00000" pt_clust_7="13000.00000" pt_clust_8="13000.00000" pt_clust_9="28.02206"></scales>
<clustering>
<clus scale="   28.022">  1  9  2 -1</clus>
<clus scale="   79.020">  5  6 -1 -1</clus>
<clus scale="   93.224">  7  8 -1 -1</clus>
<clus scale="  104.158">  2  5  1 -1</clus>
<clus scale="  104.158">  2  5  1 -1</clus>
</clustering>
</event>
<event>
 9    2  0.5608219E-005  0.1218947E+03  0.7546771E-02  0.1243216E+00
          2   -1    0    0  502    0  0.00000000000E+00  0.00000000000E+00  0.12394764785E+03  0.12394764785E+03  0.00000000000E+00 0. -1.
         -1   -1    0    0    0  501 -0.00000000000E+00 -0.00000000000E+00 -0.22413705485E+03  0.22413705485E+03  0.00000000000E+00 0.  1.
         23    2    1    2    0    0 -0.28531232647E+02  0.69654507517E+02 -0.14003023418E+03  0.18343954063E+03  0.91519489327E+02 0.  0.
         24    2    1    2    0    0  0.28220644192E+02 -0.98163049659E+02  0.39182392702E+02  0.13612732596E+03  0.81012344117E+02 0.  0.
        -11    1    4    4    0    0  0.19524187880E+02  0.78946805976E+01  0.17826799785E+02  0.27591931514E+02  0.00000000000E+00 0.  1.
         12    1    4    4    0    0  0.86964563119E+01 -0.10605773026E+03  0.21355592918E+02  0.10853539445E+03  0.00000000000E+00 0. -1.
        -13    1    3    3    0    0  0.20861537542E+02 -0.98299492536E+01 -0.16010063201E+02  0.28074076559E+02  0.00000000000E+00 0. -1.
         13    1    3    3    0    0 -0.49392770189E+02  0.79484456771E+02 -0.12402017098E+03  0.15536546407E+03  0.00000000000E+00 0.  1.
         21    1    1    2  502  501  0.31058845549E+00  0.28508542142E+02  0.65843447844E+00  0.28517836107E+02  0.00000000000E+00 0. -1.
<scales pt_clust_5="13000.00000" pt_clust_6="13000.00000" pt_clust_7="13000.00000" pt_clust_8="13000.00000" pt_clust_9="28.51023"></scales>
<clustering>
<clus scale="   28.510">  1  9  2 -1</clus>
<clus scale="   81.012">  5  6 -1 -1</clus>
<clus scale="   91.519">  7  8 -1 -1</clus>
<clus scale="  114.217">  1  5  2 -1</clus>
<clus scale="   28.510">  1  5  2 -1</clus>
</clustering>
</event>
<event>
 9    2  0.5608219E-005  0.1424325E+03  0.7546771E-02  0.1213284E+00
          2   -1    0    0  502    0  0.00000000000E+00  0.00000000000E+00  0.13932244924E+04  0.13932244924E+04  0.00000000000E+00 0. -1.
         -1   -1    0    0    0  501 -0.00000000000E+00 -0.00000000000E+00 -0.38384656328E+02  0.38384656328E+02  0.00000000000E+00 0.  1.
         23    2    1    2    0    0  0.17940345575E+02  0.94396830248E+02  0.17237682254E+03  0.21773202344E+03  0.91982865371E+02 0.  0.
         24    2    1    2    0    0 -0.96344300039E+02 -0.13566126060E+03  0.71572890529E+03  0.73880801338E+03  0.76702105569E+02 0.  0.
        -13    1    4    4    0    0 -0.33039574309E+02 -0.42917789291E+02  0.10831269962E+03  0.12109992158E+03  0.00000000000E+00 0.  1.
         14    1    4    4    0    0 -0.63304725730E+02 -0.92743471308E+02  0.60741620567E+03  0.61770809180E+03  0.00000000000E+00 0. -1.
        -11    1    3    3    0    0 -0.20461870397E+02 -0.77080542740E+00  0.44880073742E+01  0.20962454325E+02  0.00000000000E+00 0. -1.
         11    1    3    3    0    0  0.38402215971E+02  0.95167635675E+02  0.16788881517E+03  0.19676956912E+03  0.00000000000E+00 0.  1.
         21    1    1    2  502  501  0.78403954464E+02  0.41264430351E+02  0.46673410826E+03  0.47506911192E+03  0.00000000000E+00 0.  1.
<scales pt_clust_5="13000.00000" pt_clust_6="13000.00000" pt_clust_7="13000.00000" pt_clust_8="13000.00000" pt_clust_9="88.59985"></scales>
<clustering>
<clus scale="   76.702">  5  6 -1 -1</clus>
<clus scale="   88.600">  1  9  2 -1</clus>
<clus scale="   91.983">  7  8 -1 -1</clus>
<clus scale="  133.077">  1  5  2 -1</clus>
<clus scale="   88.600">  1  5  2 -1</clus>
</clustering>
</event>
<event>
 9    2  0.5608219E-005  0.1090025E+03  0.7546771E-02  0.1266014E+00
         -1   -1    0    0    0  501 -0.00000000000E+00  0.00000000000E+00  0.29153137468E+03  0.29153137468E+03  0.00000000000E+00 0.  1.
          2   -1    0    0  502    0  0.00000000000E+00 -0.00000000000E+00 -0.92189204128E+02  0.92189204128E+02  0.00000000000E+00 0. -1.
         24    2    1    2    0    0  0.47573031212E+02 -0.60155047930E+02  0.10911204173E+03  0.15642238774E+03  0.81735565358E+02 0.  0.
         23    2    1    2    0    0  0.44587263423E+02  0.57681522250E+02  0.52346767843E+02  0.12762478802E+03  0.90734339396E+02 0.  0.
        -11    1    3    3    0    0  0.15988136137E+02 -0.74425238644E+02  0.85541532043E+02  0.11450803617E+03  0.00000000000E+00 0.  1.
         12    1    3    3    0    0  0.31584895075E+02  0.14270190714E+02  0.23570509687E+02  0.41914351562E+02  0.00000000000E+00 0. -1.
        -11    1    4    4    0    0 -0.20398830722E+02 -0.11179172299E+01 -0.72101538494E+01  0.21664449042E+02  0.00000000000E+00 0.  1.
         11    1    4    4    0    0  0.64986094146E+02  0.58799439480E+02  0.59556921693E+02  0.10596033898E+03  0.00000000000E+00 0. -1.
         21    1    1    2  502  501 -0.92160294636E+02  0.24735256798E+01  0.37883360983E+02  0.99673403052E+02  0.00000000000E+00 0.  1.
<scales pt_clust_5="13000.00000" pt_clust_6="13000.00000" pt_clust_7="13000.00000" pt_clust_8="13000.00000" pt_clust_9="92.19348"></scales>
<clustering>
<clus scale="   81.736">  5  6 -1 -1</clus>
<clus scale="   90.734">  7  8 -1 -1</clus>
<clus scale="   92.193">  2  9  1 -1</clus>
<clus scale="  101.634">  1  5  2 -1</clus>
<clus scale="   92.193">  2  5  1 -1</clus>
</clustering>
</event>
<event>
 9    2  0.5608219E-005  0.1294289E+03  0.7546771E-02  0.1231057E+00
         -1   -1    0    0    0  501 -0.00000000000E+00  0.00000000000E+00  0.95900938304E+02  0.95900938304E+02  0.00000000000E+00 0.  1.
          2   -1    0    0  502    0  0.00000000000E+00 -0.00000000000E+00 -0.29537899670E+03  0.29537899670E+03  0.00000000000E+00 0. -1.
         24    2    1    2    0    0  0.19019564891E+01 -0.64380474963E+02  0.10055827807E+01  0.10322506425E+03  0.80659405511E+02 0.  0.
         23    2    1    2    0    0 -0.24839284023E+02  0.10056552345E+03 -0.20264753793E+03  0.24515777088E+03  0.91136674583E+02 0.  0.
        -11    1    3    3    0    0 -0.45118203114E+01 -0.64066373765E+02  0.31871449649E+02  0.71698298953E+02  0.00000000000E+00 0.  1.
         12    1    3    3    0    0  0.64137768005E+01 -0.31410119756E+00 -0.30865866869E+02  0.31526765295E+02  0.00000000000E+00 0. -1.
        -11    1    4    4    0    0 -0.56621993293E+02  0.59214132200E+02 -0.94356914158E+02  0.12496235764E+03  0.00000000000E+00 0. -1.
         11    1    4    4    0    0  0.31782709269E+02  0.41351391252E+02 -0.10829062377E+03  0.12019541324E+03  0.00000000000E+00 0.  1.
         21    1    1    2  502  501  0.22937327534E+02 -0.36185048489E+02  0.21638967570E+01  0.42897099876E+02  0.00000000000E+00 0.  1.
<scales pt_clust_5="13000.00000" pt_clust_6="13000.00000" pt_clust_7="13000.00000" pt_clust_8="13000.00000" pt_clust_9="42.84249"></scales>
<clustering>
<clus scale="   42.842">  1  9  2 -1</clus>
<clus scale="   80.659">  5  6 -1 -1</clus>
<clus scale="   91.137">  7  8 -1 -1</clus>
<clus scale="  122.278">  1  5  2 -1</clus>
<clus scale="  129.429">  2  5  1 -1</clus>
</clustering>
</event>
<event>
 9    2  0.5608219E-005  0.1019643E+03  0.7546771E-02  0.1283708E+00
         -1   -1    0    0    0  501 -0.00000000000E+00  0.00000000000E+00  0.77739553939E+02  0.77739553939E+02  0.00000000000E+00 0.  1.
          2   -1    0    0  502    0  0.00000000000E+00 -0.00000000000E+00 -0.33609432877E+03  0.33609432877E+03  0.00000000000E+00 0. -1.
         23    2    1    2    0    0 -0.31914348958E+02  0.38232637720E+02 -0.85006566989E+02  0.13484528724E+03  0.92069945169E+02 0.  0.
         24    2    1    2    0    0 -0.23835804597E+02 -0.45174933695E+02 -0.19739321883E+03  0.21787855008E+03  0.76798825056E+02 0.  0.
        -13    1    4    4    0    0 -0.49655354820E+02 -0.28663738595E+02 -0.94643819619E+02  0.11065584831E+03  0.00000000000E+00 0.  1.
         14    1    4    4    0    0  0.25819550223E+02 -0.16511195100E+02 -0.10274939921E+03  0.10722270177E+03  0.00000000000E+00 0. -1.
        -11    1    3    3    0    0  0.24699692810E+02  0.37598419002E+02 -0.21802430059E+02  0.49990618048E+02  0.00000000000E+00 0.  1.
         11    1    3    3    0    0 -0.56614041768E+02  0.63421871799E+00 -0.63204136930E+02  0.84854669193E+02  0.00000000000E+00 0. -1.
         21    1    1    2  502  501  0.55750153555E+02  0.69422959748E+01  0.24045010982E+02  0.61110045393E+02  0.00000000000E+00 0.  1.
<scales pt_clust_5="13000.00000" pt_clust_6="13000.00000" pt_clust_7="13000.00000" pt_clust_8="13000.00000" pt_clust_9="56.18074"></scales>
<clustering>
<clus scale="   56.181">  1  9  2 -1</clus>
<clus scale="   76.799">  5  6 -1 -1</clus>
<clus scale="   88.419">  2  5  1 -1</clus>
<clus scale="   92.070">  7  8 -1 -1</clus>
<clus scale="   88.419">  2  5  1 -1</clus>
</clustering>
</event>
<event>
 9    2  0.5608219E-005  0.1836684E+03  0.7546771E-02  0.1165517E+00
          2   -1    0    0  502    0  0.00000000000E+00  0.00000000000E+00  0.89470683523E+03  0.89470683523E+03  0.00000000000E+00 0. -1.
         -1   -1    0    0    0  501 -0.00000000000E+00 -0.00000000000E+00 -0.53142083440E+02  0.53142083440E+02  0.00000000000E+00 0.  1.
         23    2    1    2    0    0 -0.12424396744E+03 -0.51903642619E+02  0.16417692906E+03  0.23101480355E+03  0.91012218223E+02 0.  0.
         24    2    1    2    0    0  0.14726914589E+03  0.86236678379E+02  0.60210593459E+03  0.63094884938E+03  0.80249162219E+02 0.  0.
        -11    1    4    4    0    0  0.14927825869E+02 -0.14189788256E+02  0.42913219713E+02  0.47599732164E+02  0.00000000000E+00 0.  1.
         12    1    4    4    0    0  0.13234132002E+03  0.10042646664E+03  0.55919271488E+03  0.58334911722E+03  0.00000000000E+00 0. -1.
        -11    1    3    3    0    0 -0.11684099134E+03 -0.15324283021E+02  0.15076966887E+03  0.19135867881E+03  0.00000000000E+00 0.  1.
         11    1    3    3    0    0 -0.74029761005E+01 -0.36579359598E+02  0.13407260185E+02  0.39656124740E+02  0.00000000000E+00 0. -1.
         21    1    1    2  502  501 -0.23025178456E+02 -0.34333035761E+02  0.75281888142E+02  0.85885265731E+02  0.00000000000E+00 0.  1.
<scales pt_clust_5="13000.00000" pt_clust_6="13000.00000" pt_clust_7="13000.00000" pt_clust_8="13000.00000" pt_clust_9="41.33904"></scales>
<clustering>
<clus scale="   41.339">  2  9  1 -1</clus>
<clus scale="   80.249">  5  6 -1 -1</clus>
<clus scale="   91.012">  7  8 -1 -1</clus>
<clus scale="  178.580">  1  5  2 -1</clus>
<clus scale="  178.580">  1  5  2 -1</clus>
</clustering>
</event>
<event>
 9    2  0.5608219E-005  0.9656786E+02  0.7546771E-02  0.1298554E+00
          2   -1    0    0  502    0  0.00000000000E+00  0.00000000000E+00  0.10413194706E+04  0.10413194706E+04  0.00000000000E+00 0. -1.
         -1   -1    0    0    0  501 -0.00000000000E+00 -0.00000000000E+00 -0.51752244040E+02  0.51752244040E+02  0.00000000000E+00 0.  1.
         23    2    1    2    0    0 -0.16999179486E+02  0.16455751293E+02  0.91636632663E+01  0.96104350884E+02  0.92694712258E+02 0.  0.
         24    2    1    2    0    0 -0.28373498319E+02 -0.44617217443E+01  0.90271603431E+03  0.90620454760E+03  0.74064033965E+02 0.  0.
        -13    1    4    4    0    0  0.23033347946E+00 -0.26321327053E+02  0.12935173652E+03  0.13200279183E+03  0.00000000000E+00 0.  1.
         14    1    4    4    0    0 -0.28603831798E+02  0.21859605309E+02  0.77336429779E+03  0.77420175577E+03  0.00000000000E+00 0. -1.
        -11    1    3    3    0    0 -0.48739766754E+02 -0.39858453188E+01  0.25285418319E+02  0.55052740220E+02  0.00000000000E+00 0. -1.
         11    1    3    3    0    0  0.31740587268E+02  0.20441596611E+02 -0.16121755053E+02  0.41051610664E+02  0.00000000000E+00 0.  1.
         21    1    1    2  502  501  0.45372677804E+02 -0.11994029548E+02  0.77687528957E+02  0.90762816127E+02  0.00000000000E+00 0.  1.
<scales pt_clust_5="13000.00000" pt_clust_6="13000.00000" pt_clust_7="13000.00000" pt_clust_8="13000.00000" pt_clust_9="46.93119"></scales>
<clustering>
<clus scale="   46.931">  2  9  1 -1</clus>
<clus scale="   74.064">  5  6 -1 -1</clus>
<clus scale="   78.858">  1  5  2 -1</clus>
<clus scale="   92.695">  7  8 -1 -1</clus>
<clus scale="   78.858">  1  5  2 -1</clus>
</clustering>
</event>
<event>
 9    2  0.5608219E-005  0.1357128E+03  0.7546771E-02  0.1221625E+00
         -1   -1    0    0    0  501 -0.00000000000E+00  0.00000000000E+00  0.21037680995E+02  0.21037680995E+02  0.00000000000E+00 0.  1.
          2   -1    0    0  502    0  0.00000000000E+00 -0.00000000000E+00 -0.20843976853E+04  0.20843976853E+04  0.00000000000E+00 0. -1.
         23    2    1    2    0    0  0.95831099083E+02  0.50197524863E+01 -0.29548240953E+03  0.32373918377E+03  0.91040690345E+02 0.  0.
         24    2    1    2    0    0 -0.97146789321E+02 -0.30795959815E+02 -0.17351582976E+04  0.17400224940E+04  0.80734578607E+02 0.  0.
        -11    1    4    4    0    0 -0.20535457509E+02  0.46648411769E+01 -0.80398321809E+02  0.83110504198E+02  0.00000000000E+00 0.  1.
         12    1    4    4    0    0 -0.76611331812E+02 -0.35460800992E+02 -0.16547599758E+04  0.16569119898E+04  0.00000000000E+00 0. -1.
        -11    1    3    3    0    0  0.17334259631E+02 -0.12916726225E+02 -0.48446711054E+01  0.22153762918E+02  0.00000000000E+00 0.  1.
         11    1    3    3    0    0  0.78496839453E+02  0.17936478711E+02 -0.29063773843E+03  0.30158542085E+03  0.00000000000E+00 0. -1.
         21    1    1    2  502  501  0.13156902378E+01  0.25776207328E+02 -0.32719297156E+02  0.41673688479E+02  0.00000000000E+00 0.  1.
<scales pt_clust_5="13000.00000" pt_clust_6="13000.00000" pt_clust_7="13000.00000" pt_clust_8="13000.00000" pt_clust_9="25.80976"></scales>
<clustering>
<clus scale="   25.810">  1  9  2 -1</clus>
<clus scale="   80.735">  5  6 -1 -1</clus>
<clus scale="   91.041">  7  8 -1 -1</clus>
<clus scale="  129.026">  2  5  1 -1</clus>
<clus scale="  129.026">  2  5  1 -1</clus>
</clustering>
</event>
<event>
 9    2  0.5608219E-005  0.1274860E+03  0.7546771E-02  0.1237042E+00
         -1   -1    0    0    0  501 -0.00000000000E+00  0.00000000000E+00  0.31307974808E+02  0.31307974808E+02  0.00000000000E+00 0.  1.
          2   -1    0    0  502    0  0.00000000000E+00 -0.00000000000E+00 -0.78358658662E+03  0.78358658662E+03  0.00000000000E+00 0. -1.
         24    2    1    2    0    0  0.20309216253E+02  0.10228403559E+03 -0.38145309105E+03  0.40361101564E+03  0.80752108802E+02 0.  0.
         23    2    1    2    0    0 -0.18279066501E+00 -0.57427859085E+02 -0.32207412335E+03  0.34204592359E+03  0.99828255024E+02 0.  0.
        -11    1    3    3    0    0  0.33015258955E+02  0.10712447720E+03 -0.28581437967E+03  0.30701061963E+03  0.00000000000E+00 0.  1.
         12    1    3    3    0    0 -0.12706042702E+02 -0.48404416044E+01 -0.95638711374E+02  0.96600396010E+02  0.00000000000E+00 0. -1.
        -13    1    4    4    0    0 -0.28134774772E+02 -0.16804271020E+02 -0.25833087545E+02  0.41728856780E+02  0.00000000000E+00 0.  1.
         13    1    4    4    0    0  0.27951984107E+02 -0.40623588065E+02 -0.29624103580E+03  0.30031706681E+03  0.00000000000E+00 0. -1.
         21    1    1    2  502  501 -0.20126425588E+02 -0.44856176506E+02 -0.48751397416E+02  0.69237622198E+02  0.00000000000E+00 0.  1.
<scales pt_clust_5="13000.00000" pt_clust_6="13000.00000" pt_clust_7="13000.00000" pt_clust_8="13000.00000" pt_clust_9="49.16452"></scales>
<clustering>
<clus scale="   49.165">  1  9  2 -1</clus>
<clus scale="   80.752">  5  6 -1 -1</clus>
<clus scale="   99.828">  7  8 -1 -1</clus>
<clus scale="  113.172">  1  5  2 -1</clus>
<clus scale="  127.486">  2  5  1 -1</clus>
</clustering>
</event>
<event>
 9    2  0.5608219E-005  0.1075263E+03  0.7546771E-02  0.1273518E+00
          2   -1    0    0  502    0  0.00000000000E+00  0.00000000000E+00  0.34414952525E+03  0.34414952525E+03  0.00000000000E+00 0. -1.
         -1   -1    0    0    0  501 -0.00000000000E+00 -0.00000000000E+00 -0.82125920407E+02  0.82125920407E+02  0.00000000000E+00 0.  1.
         24    2    1    2    0    0 -0.53660614982E+02 -0.30126380042E+02 -0.22936028069E+02  0.10193129029E+03  0.77954256978E+02 0.  0.
         23    2    1    2    0    0  0.46098400586E+02  0.60049690604E+01  0.27844523495E+03  0.29823923371E+03  0.96196514834E+02 0.  0.
        -11    1    3    3    0    0 -0.48898749184E+02 -0.51179213315E+02 -0.33020201696E+02  0.78107190881E+02  0.00000000000E+00 0.  1.
         12    1    3    3    0    0 -0.47618657981E+01  0.21052833273E+02  0.10084173627E+02  0.23824099404E+02  0.00000000000E+00 0. -1.
        -11    1    4    4    0    0 -0.25897969771E+02  0.18656254064E+02  0.61165398156E+02  0.68992511083E+02  0.00000000000E+00 0.  1.
         11    1    4    4    0    0  0.71996370357E+02 -0.12651285004E+02  0.21727983680E+03  0.22924672263E+03  0.00000000000E+00 0. -1.
         21    1    1    2  502  501  0.75622143965E+01  0.24121410982E+02  0.65143979638E+01  0.26104921666E+02  0.00000000000E+00 0. -1.
<scales pt_clust_5="13000.00000" pt_clust_6="13000.00000" pt_clust_7="13000.00000" pt_clust_8="13000.00000" pt_clust_9="25.27903"></scales>
<clustering>
<clus scale="   25.279">  2  9  1 -1</clus>
<clus scale="   77.954">  5  6 -1 -1</clus>
<clus scale="   91.570">  2  5  1 -1</clus>
<clus scale="   96.197">  7  8 -1 -1</clus>
<clus scale="  107.526">  1  5  2 -1</clus>
</clustering>
</event>
<event>
 9    2  0.5608219E-005  0.9610571E+02  0.7546771E-02  0.1295875E+00
          2   -1    0    0  502    0  0.00000000000E+00  0.00000000000E+00  0.55068570442E+02  0.55068570442E+02  0.00000000000E+00 0. -1.
         -1   -1    0    0    0  501 -0.00000000000E+00 -0.00000000000E+00 -0.29962386246E+03  0.29962386246E+03  0.00000000000E+00 0.  1.
         23    2    1    2    0    0 -0.45953028406E+02  0.38477986681E+01 -0.61832595026E+02  0.11954754781E+03  0.91333783488E+02 0.  0.
         24    2    1    2    0    0  0.14821536434E+02 -0.14709430800E+02 -0.43765877543E+02  0.92329821051E+02  0.78570341233E+02 0.  0.
        -13    1    4    4    0    0  0.24026037336E+02  0.45783480330E+01  0.15751566477E+02  0.29091641193E+02  0.00000000000E+00 0.  1.
         14    1    4    4    0    0 -0.92045009022E+01 -0.19287778833E+02 -0.59517444020E+02  0.63238179858E+02  0.00000000000E+00 0. -1.
        -13    1    3    3    0    0 -0.42266892628E+02  0.43211925976E+02 -0.49512573919E+02  0.78136135911E+02  0.00000000000E+00 0.  1.
         13    1    3    3    0    0 -0.36861357781E+01 -0.39364127308E+02 -0.12320021107E+02  0.41411411902E+02  0.00000000000E+00 0. -1.
         21    1    1    2  502  501  0.31131491972E+02  0.10861632132E+02 -0.13895681944E+03  0.14281506403E+03  0.00000000000E+00 0.  1.
<scales pt_clust_5="13000.00000" pt_clust_6="13000.00000" pt_clust_7="13000.00000" pt_clust_8="13000.00000" pt_clust_9="32.97188"></scales>
<clustering>
<clus scale="   32.972">  2  9  1 -1</clus>
<clus scale="   78.570">  5  6 -1 -1</clus>
<clus scale="   84.070">  1  5  2 -1</clus>
<clus scale="   91.334">  7  8 -1 -1</clus>
<clus scale="   84.070">  1  5  2 -1</clus>
</clustering>
</event>
<event>
 9    2  0.5608219E-005  0.2554975E+03  0.7546771E-02  0.1110754E+00
          2   -1    0    0  502    0  0.00000000000E+00  0.00000000000E+00  0.60485894677E+03  0.60485894677E+03  0.00000000000E+00 0. -1.
         -1   -1    0    0    0  501 -0.00000000000E+00 -0.00000000000E+00 -0.14298006721E+03  0.14298006721E+03  0.00000000000E+00 0.  1.
         24    2    1    2    0    0  0.99983691915E+02 -0.19586705552E+03  0.52303506600E+02  0.24641767264E+03  0.98108972588E+02 0.  0.
         23    2    1    2    0    0 -0.95305954962E+02  0.22276638599E+03  0.39450281479E+03  0.47023420918E+03  0.82338647199E+02 0.  0.
        -11    1    3    3    0    0  0.10539189984E+03 -0.20461987414E+03  0.47299830322E+02  0.23497663584E+03  0.00000000000E+00 0.  1.
         12    1    3    3    0    0 -0.54082079231E+01  0.87528186211E+01  0.50036762779E+01  0.11441036800E+02  0.00000000000E+00 0. -1.
        -13    1    4    4    0    0 -0.84428299716E+02  0.93810207346E+02  0.18372064458E+03  0.22289407359E+03  0.00000000000E+00 0.  1.
         13    1    4    4    0    0 -0.10877655246E+02  0.12895617865E+03  0.21078217021E+03  0.24734013559E+03  0.00000000000E+00 0. -1.
         21    1    1    2  502  501 -0.46777369533E+01 -0.26899330473E+02  0.15072558168E+02  0.31187132164E+02  0.00000000000E+00 0.  1.
<scales pt_clust_5="13000.00000" pt_clust_6="13000.00000" pt_clust_7="13000.00000" pt_clust_8="13000.00000" pt_clust_9="27.30303"></scales>
<clustering>
<clus scale="   27.303">  2  9  1 -1</clus>
<clus scale="   82.339">  7  8 -1 -1</clus>
<clus scale="   98.109">  5  6 -1 -1</clus>
<clus scale="  249.866">  1  7  2 -1</clus>
<clus scale="  249.866">  1  5  2 -1</clus>
</clustering>
</event>
<event>
 9    2  0.5608219E-005  0.1029784E+03  0.7546771E-02  0.1278666E+00
         -1   -1    0    0    0  501 -0.00000000000E+00  0.00000000000E+00  0.15847692455E+03  0.15847692455E+03  0.00000000000E+00 0.  1.
          2   -1    0    0  502    0  0.00000000000E+00 -0.00000000000E+00 -0.36576830801E+03  0.36576830801E+03  0.00000000000E+00 0. -1.
         24    2    1    2    0    0 -0.16290810835E+02 -0.21653751887E+02  0.71095875657E+02  0.11274662621E+03  0.83203982459E+02 0.  0.
         23    2    1    2    0    0  0.36555542689E+02  0.28405902692E+02 -0.33516654764E+03  0.35083446124E+03  0.92763147442E+02 0.  0.
        -11    1    3    3    0    0 -0.75995528387E+01 -0.49432728592E+02  0.66610026560E+02  0.83296119344E+02  0.00000000000E+00 0.  1.
         12    1    3    3    0    0 -0.86912579959E+01  0.27778976705E+02  0.44858490971E+01  0.29450506863E+02  0.00000000000E+00 0. -1.
        -13    1    4    4    0    0  0.86332198363E+01  0.59390986453E+02 -0.22993240986E+03  0.23763571882E+03  0.00000000000E+00 0. -1.
         13    1    4    4    0    0  0.27922322853E+02 -0.30985083761E+02 -0.10523413779E+03  0.11319874242E+03  0.00000000000E+00 0.  1.
         21    1    1    2  502  501 -0.20264731855E+02 -0.67521508051E+01  0.56779288523E+02  0.60664145117E+02  0.00000000000E+00 0.  1.
<scales pt_clust_5="13000.00000" pt_clust_6="13000.00000" pt_clust_7="13000.00000" pt_clust_8="13000.00000" pt_clust_9="21.36003"></scales>
<clustering>
<clus scale="   21.360">  1  9  2 -1</clus>
<clus scale="   83.204">  5  6 -1 -1</clus>
<clus scale="   92.763">  7  8 -1 -1</clus>
<clus scale="   94.459">  1  5  2 -1</clus>
<clus scale="  102.978">  2  5  1 -1</clus>
</clustering>
</event>
<event>
 9    2  0.5608219E-005  0.1207809E+03  0.7546771E-02  0.1245571E+00
          2   -1    0    0  502    0  0.00000000000E+00  0.00000000000E+00  0.21018882329E+03  0.21018882329E+03  0.00000000000E+00 0. -1.
         -1   -1    0    0    0  501 -0.00000000000E+00 -0.00000000000E+00 -0.13783490087E+03  0.13783490087E+03  0.00000000000E+00 0.  1.
         23    2    1    2    0    0  0.38229941038E+02 -0.65952407880E+02 -0.72556144571E+02  0.13934025717E+03  0.91323954447E+02 0.  0.
         24    2    1    2    0    0 -0.13209056434E+02  0.79262807149E+02  0.14012353650E+03  0.17994112420E+03  0.79291430362E+02 0.  0.
        -13    1    4    4    0    0  0.25389423259E+02  0.15278585420E+02  0.12733544866E+02  0.32252149552E+02  0.00000000000E+00 0.  1.
         14    1    4    4    0    0 -0.38598479693E+02  0.63984221729E+02  0.12738999163E+03  0.14768897465E+03  0.00000000000E+00 0. -1.
        -11    1    3    3    0    0  0.60454910785E+02 -0.59470874872E+02 -0.28310525789E+02  0.89403954424E+02  0.00000000000E+00 0.  1.
         11    1    3    3    0    0 -0.22224969748E+02 -0.64815330081E+01 -0.44245618782E+02  0.49936302745E+02  0.00000000000E+00 0. -1.
         21    1    1    2  502  501 -0.25020884604E+02 -0.13310399269E+02  0.47865304869E+01  0.28742342792E+02  0.00000000000E+00 0. -1.
<scales pt_clust_5="13000.00000" pt_clust_6="13000.00000" pt_clust_7="13000.00000" pt_clust_8="13000.00000" pt_clust_9="28.34098"></scales>
<clustering>
<clus scale="   28.341">  2  9  1 -1</clus>
<clus scale="   79.291">  5  6 -1 -1</clus>
<clus scale="   91.324">  7  8 -1 -1</clus>
<clus scale="  111.960">  1  5  2 -1</clus>
<clus scale="  111.960">  1  5  2 -1</clus>
</clustering>
</event>
<event>
 9    2  0.5608219E-005  0.1594074E+03  0.7546771E-02  0.1190859E+00
         -1   -1    0    0    0  501 -0.00000000000E+00  0.00000000000E+00  0.26712244815E+03  0.26712244815E+03  0.00000000000E+00 0.  1.
          2   -1    0    0  502    0  0.00000000000E+00 -0.00000000000E+00 -0.10097677529E+04  0.10097677529E+04  0.00000000000E+00 0. -1.
         23    2    1    2    0    0  0.10374244434E+03  0.45711959114E+02  0.22133285041E+03  0.26438322189E+03  0.89767362579E+02 0.  0.
         24    2    1    2    0    0 -0.11747225419E+03 -0.60626751411E+02 -0.97650740452E+03  0.98867547059E+03  0.80231798973E+02 0.  0.
        -13    1    4    4    0    0 -0.10330815196E+03 -0.57064218226E+02 -0.57931628381E+03  0.59121591314E+03  0.00000000000E+00 0.  1.
         14    1    4    4    0    0 -0.14164102233E+02 -0.35625331848E+01 -0.39719112071E+03  0.39745955744E+03  0.00000000000E+00 0. -1.
        -13    1    3    3    0    0  0.67543105319E+02  0.56674012801E+02  0.83424592536E+02  0.12138236051E+03  0.00000000000E+00 0.  1.
         13    1    3    3    0    0  0.36199339016E+02 -0.10962053687E+02  0.13790825787E+03  0.14300086138E+03  0.00000000000E+00 0. -1.
         21    1    1    2  502  501  0.13729809859E+02  0.14914792297E+02  0.12529249406E+02  0.23831508528E+02  0.00000000000E+00 0.  1.
<scales pt_clust_5="13000.00000" pt_clust_6="13000.00000" pt_clust_7="13000.00000" pt_clust_8="13000.00000" pt_clust_9="20.27212"></scales>
<clustering>
<clus scale="   20.272">  1  9  2 -1</clus>
<clus scale="   80.232">  5  6 -1 -1</clus>
<clus scale="   89.767">  7  8 -1 -1</clus>
<clus scale="  154.239">  2  5  1 -1</clus>
<clus scale="  154.239">  2  5  1 -1</clus>
</clustering>
</event>
<event>
 9    2  0.5608219E-005  0.1944769E+03  0.7546771E-02  0.1155488E+00
         -1   -1    0    0    0  501 -0.00000000000E+00  0.00000000000E+00  0.83097948817E+02  0.83097948817E+02  0.00000000000E+00 0.  1.
          2   -1    0    0  502    0  0.00000000000E+00 -0.00000000000E+00 -0.25567344842E+04  0.25567344842E+04  0.00000000000E+00 0. -1.
         23    2    1    2    0    0 -0.16383323839E+03 -0.67082491710E+02 -0.12016130233E+03  0.23228090204E+03  0.90411770151E+02 0.  0.
         24    2    1    2    0    0  0.12945020392E+03  0.11397701493E+03 -0.23401860647E+04  0.23479034685E+04  0.80198284290E+02 0.  0.
        -13    1    4    4    0    0  0.51467138229E+01  0.20161489653E+02 -0.91720176872E+02  0.94050864821E+02  0.00000000000E+00 0.  1.
         14    1    4    4    0    0  0.12430349010E+03  0.93815525273E+02 -0.22484658878E+04  0.22538526036E+04  0.00000000000E+00 0. -1.
        -13    1    3    3    0    0 -0.12786044990E+03 -0.35577466397E+02 -0.39431537064E+02  0.13845178540E+03  0.00000000000E+00 0.  1.
         13    1    3    3    0    0 -0.35972788491E+02 -0.31505025313E+02 -0.80729765261E+02  0.93829116648E+02  0.00000000000E+00 0. -1.
         21    1    1    2  502  501  0.34383034473E+02 -0.46894523215E+02 -0.13289168438E+02  0.59648062541E+02  0.00000000000E+00 0.  1.
<scales pt_clust_5="13000.00000" pt_clust_6="13000.00000" pt_clust_7="13000.00000" pt_clust_8="13000.00000" pt_clust_9="58.14886"></scales>
<clustering>
<clus scale="   58.149">  1  9  2 -1</clus>
<clus scale="   80.198">  5  6 -1 -1</clus>
<clus scale="   90.412">  7  8 -1 -1</clus>
<clus scale="  189.944">  2  5  1 -1</clus>
<clus scale="  189.944">  2  5  1 -1</clus>
</clustering>
</event>
<event>
 9    2  0.5608219E-005  0.1938904E+03  0.7546771E-02  0.1155875E+00
          2   -1    0    0  502    0  0.00000000000E+00  0.00000000000E+00  0.98563792375E+03  0.98563792375E+03  0.00000000000E+00 0. -1.
         -1   -1    0    0    0  501 -0.00000000000E+00 -0.00000000000E+00 -0.65816789225E+02  0.65816789225E+02  0.00000000000E+00 0.  1.
         24    2    1    2    0    0 -0.14718826237E+03 -0.92575623718E+02  0.19455247060E+03  0.27359876981E+03  0.82286039764E+02 0.  0.
         23    2    1    2    0    0  0.13025614921E+03  0.11040891377E+03  0.72784716633E+03  0.75313001821E+03  0.91030402325E+02 0.  0.
        -11    1    3    3    0    0 -0.92751888468E+02 -0.96980767794E+02  0.16062158156E+03  0.20930235211E+03  0.00000000000E+00 0.  1.
         12    1    3    3    0    0 -0.54436373903E+02  0.44051440759E+01  0.33930889032E+02  0.64296417696E+02  0.00000000000E+00 0. -1.
        -11    1    4    4    0    0  0.84729298672E+02  0.11642728742E+03  0.60715158970E+03  0.62399312511E+03  0.00000000000E+00 0. -1.
         11    1    4    4    0    0  0.45526850534E+02 -0.60183736551E+01  0.12069557663E+03  0.12913689310E+03  0.00000000000E+00 0.  1.
         21    1    1    2  502  501  0.16932113165E+02 -0.17833290051E+02 -0.25785024023E+01  0.24725924955E+02  0.00000000000E+00 0. -1.
<scales pt_clust_5="13000.00000" pt_clust_6="13000.00000" pt_clust_7="13000.00000" pt_clust_8="13000.00000" pt_clust_9="24.59111"></scales>
<clustering>
<clus scale="   24.591">  2  9  1 -1</clus>
<clus scale="   82.286">  5  6 -1 -1</clus>
<clus scale="   91.030">  7  8 -1 -1</clus>
<clus scale="  189.942">  2  5  1 -1</clus>
<clus scale="  193.890">  1  5  2 -1</clus>
</clustering>
</event>
<event>
 9    2  0.5608219E-005  0.1031012E+03  0.7546771E-02  0.1277736E+00
          2   -1    0    0  502    0  0.00000000000E+00  0.00000000000E+00  0.34473215060E+03  0.34473215060E+03  0.00000000000E+00 0. -1.
         -1   -1    0    0    0  501 -0.00000000000E+00 -0.00000000000E+00 -0.91415111622E+02  0.91415111622E+02  0.00000000000E+00 0.  1.
         23    2    1    2    0    0  0.64789816838E+02  0.21782524814E+02 -0.97480831111E+01  0.11401351188E+03  0.90729581797E+02 0.  0.
         24    2    1    2    0    0 -0.45872548495E+02  0.13307850687E+02  0.26564288499E+03  0.28218575470E+03  0.82348456054E+02 0.  0.
        -11    1    4    4    0    0 -0.40152881321E+02  0.45912398732E+02  0.15081722228E+03  0.16268385529E+03  0.00000000000E+00 0.  1.
         12    1    4    4    0    0 -0.57196671738E+01 -0.32604548045E+02  0.11482566271E+03  0.11950189941E+03  0.00000000000E+00 0. -1.
        -13    1    3    3    0    0  0.37734048675E+02  0.32139311826E+02  0.35020066129E+02  0.60689363366E+02  0.00000000000E+00 0. -1.
         13    1    3    3    0    0  0.27055768163E+02 -0.10356787012E+02 -0.44768149240E+02  0.53324148512E+02  0.00000000000E+00 0.  1.
         21    1    1    2  502  501 -0.18917268343E+02 -0.35090375501E+02 -0.25777629021E+01  0.39947995643E+02  0.00000000000E+00 0. -1.
<scales pt_clust_5="13000.00000" pt_clust_6="13000.00000" pt_clust_7="13000.00000" pt_clust_8="13000.00000" pt_clust_9="39.86474"></scales>
<clustering>
<clus scale="   39.865">  2  9  1 -1</clus>
<clus scale="   82.348">  5  6 -1 -1</clus>
<clus scale="   90.730">  7  8 -1 -1</clus>
<clus scale="   95.808">  1  5  2 -1</clus>
<clus scale="   95.808">  1  5  2 -1</clus>
</clustering>
</event>
<event>
 9    2  0.5608219E-005  0.1110216E+03  0.7546771E-02  0.1261870E+00
         -1   -1    0    0    0  501 -0.00000000000E+00  0.00000000000E+00  0.10148495607E+03  0.10148495607E+03  0.00000000000E+00 0.  1.
          2   -1    0    0  502    0  0.00000000000E+00 -0.00000000000E+00 -0.35945990675E+03  0.35945990675E+03  0.00000000000E+00 0. -1.
         23    2    1    2    0    0  0.67811977750E+02 -0.24471395819E+02 -0.82098849559E+01  0.11564823142E+03  0.90054415105E+02 0.  0.
         24    2    1    2    0    0  0.26719873047E+01  0.73101465488E+02 -0.23376293290E+03  0.25818210184E+03  0.81620617140E+02 0.  0.
        -11    1    4    4    0    0 -0.26410592565E+02 -0.33142091550E+01 -0.42112409199E+02  0.49819257226E+02  0.00000000000E+00 0.  1.
         12    1    4    4    0    0  0.29082579870E+02  0.76415674643E+02 -0.19165052370E+03  0.20836284462E+03  0.00000000000E+00 0. -1.
        -13    1    3    3    0    0 -0.10380595730E+02 -0.32600533969E+02  0.85545722803E+01  0.35266588858E+02  0.00000000000E+00 0.  1.
         13    1    3    3    0    0  0.78192573481E+02  0.81291381499E+01 -0.16764457236E+02  0.80381642562E+02  0.00000000000E+00 0. -1.
         21    1    1    2  502  501 -0.70483965055E+02 -0.48630069668E+02 -0.16002132824E+02  0.87114529561E+02  0.00000000000E+00 0.  1.
<scales pt_clust_5="13000.00000" pt_clust_6="13000.00000" pt_clust_7="13000.00000" pt_clust_8="13000.00000" pt_clust_9="85.63220"></scales>
<clustering>
<clus scale="   81.621">  5  6 -1 -1</clus>
<clus scale="   85.632">  1  9  2 -1</clus>
<clus scale="   90.054">  7  8 -1 -1</clus>
<clus scale="  104.297">  2  5  1 -1</clus>
<clus scale="  104.297">  2  5  1 -1</clus>
</clustering>
</event>
<event>
 9    2  0.5608219E-005  0.8709680E+02  0.7546771E-02  0.1314176E+00
         -1   -1    0    0    0  501 -0.00000000000E+00  0.00000000000E+00  0.10705480485E+03  0.10705480485E+03  0.00000000000E+00 0.  1.
          2   -1    0    0  502    0  0.00000000000E+00 -0.00000000000E+00 -0.17969014641E+03  0.17969014641E+03  0.00000000000E+00 0. -1.
         24    2    1    2    0    0 -0.12808934415E+02 -0.12957819974E+02  0.17690053962E+02  0.83234145935E+02  0.79265447334E+02 0.  0.
         23    2    1    2    0    0 -0.95865045546E+01  0.15505979586E+02 -0.13066583800E+03  0.15730041577E+03  0.85659343381E+02 0.  0.
        -13    1    3    3    0    0  0.27927049477E+02 -0.12479639857E+02  0.27718424786E+02  0.41279202707E+02  0.00000000000E+00 0.  1.
         14    1    3    3    0    0 -0.40735983892E+02 -0.47818011603E+00 -0.10028370824E+02  0.41954943228E+02  0.00000000000E+00 0. -1.
        -11    1    4    4    0    0 -0.30140944363E+02  0.37524027751E+02 -0.11189994851E+03  0.12181185354E+03  0.00000000000E+00 0. -1.
         11    1    4    4    0    0  0.20554439808E+02 -0.22018048165E+02 -0.18765889486E+02  0.35488562229E+02  0.00000000000E+00 0.  1.
         21    1    1    2  502  501  0.22395438969E+02 -0.25481596123E+01  0.40340442477E+02  0.46210389560E+02  0.00000000000E+00 0.  1.
<scales pt_clust_5="13000.00000" pt_clust_6="13000.00000" pt_clust_7="13000.00000" pt_clust_8="13000.00000" pt_clust_9="22.53994"></scales>
<clustering>
<clus scale="   22.540">  1  9  2 -1</clus>
<clus scale="   79.265">  5  6 -1 -1</clus>
<clus scale="   80.817">  1  5  2 -1</clus>
<clus scale="   85.659">  7  8 -1 -1</clus>
<clus scale="   87.097">  2  5  1 -1</clus>
</clustering>
</event>
<event>
 9    2  0.5608219E-005  0.1217926E+03  0.7546771E-02  0.1243874E+00
          2   -1    0    0  502    0  0.00000000000E+00  0.00000000000E+00  0.78684480326E+03  0.78684480326E+03  0.00000000000E+00 0. -1.
         -1   -1    0    0    0  501 -0.00000000000E+00 -0.00000000000E+00 -0.21269770083E+03  0.21269770083E+03  0.00000000000E+00 0.  1.
         23    2    1    2    0    0  0.15729475164E+02  0.98989264035E+02  0.10443610580E+03  0.17201585058E+03  0.92931490222E+02 0.  0.
         24    2    1    2    0    0 -0.64798137309E+02 -0.45859363122E+02  0.63607928048E+03  0.64611847882E+03  0.81057743805E+02 0.  0.
        -13    1    4    4    0    0 -0.31860718392E+02  0.12776713250E+02  0.97703648455E+02  0.10355845064E+03  0.00000000000E+00 0.  1.
         14    1    4    4    0    0 -0.32937418917E+02 -0.58636076372E+02  0.53837563203E+03  0.54256002818E+03  0.00000000000E+00 0. -1.
        -11    1    3    3    0    0  0.49319291938E+01  0.42129970445E+02  0.10594474071E+03  0.11412075368E+03  0.00000000000E+00 0. -1.
         11    1    3    3    0    0  0.10797545970E+02  0.56859293590E+02 -0.15086349156E+01  0.57895096906E+02  0.00000000000E+00 0.  1.
         21    1    1    2  502  501  0.49068662145E+02 -0.53129900913E+02 -0.16636828384E+03  0.18140817469E+03  0.00000000000E+00 0.  1.
<scales pt_clust_5="13000.00000" pt_clust_6="13000.00000" pt_clust_7="13000.00000" pt_clust_8="13000.00000" pt_clust_9="72.32233"></scales>
<clustering>
<clus scale="   72.322">  2  9  1 -1</clus>
<clus scale="   81.058">  5  6 -1 -1</clus>
<clus scale="   92.931">  7  8 -1 -1</clus>
<clus scale="  112.993">  1  5  2 -1</clus>
<clus scale="  112.993">  1  5  2 -1</clus>
</clustering>
</event>
<event>
 9    2  0.5608219E-005  0.9342869E+02  0.7546771E-02  0.1303613E+00
         -1   -1    0    0    0  501 -0.00000000000E+00  0.00000000000E+00  0.20905533911E+03  0.20905533911E+03  0.00000000000E+00 0.  1.
          2   -1    0    0  502    0  0.00000000000E+00 -0.00000000000E+00 -0.89681661980E+02  0.89681661980E+02  0.00000000000E+00 0. -1.
         23    2    1    2    0    0 -0.13425850125E+02  0.24016807307E+02  0.11370420458E+03  0.14905709097E+03  0.92370502566E+02 0.  0.
         24    2    1    2    0    0  0.12273812040E+02 -0.34850574684E+01 -0.47767460531E+02  0.92422720526E+02  0.78086086445E+02 0.  0.
        -11    1    4    4    0    0  0.14849732242E+02 -0.39921481502E+02 -0.25853379973E+02  0.49826062347E+02  0.00000000000E+00 0.  1.
         12    1    4    4    0    0 -0.25759202023E+01  0.36436424034E+02 -0.21914080558E+02  0.42596658178E+02  0.00000000000E+00 0. -1.
        -13    1    3    3    0    0  0.26176983361E+02  0.23122042327E+02  0.75233130811E+01  0.35727629909E+02  0.00000000000E+00 0. -1.
         13    1    3    3    0    0 -0.39602833486E+02  0.89476497973E+00  0.10618089150E+03  0.11332946106E+03  0.00000000000E+00 0.  1.
         21    1    1    2  502  501  0.11520380852E+01 -0.20531749838E+02  0.53436933074E+02  0.57257189588E+02  0.00000000000E+00 0.  1.
<scales pt_clust_5="13000.00000" pt_clust_6="13000.00000" pt_clust_7="13000.00000" pt_clust_8="13000.00000" pt_clust_9="20.56404"></scales>
<clustering>
<clus scale="   20.564">  1  9  2 -1</clus>
<clus scale="   78.086">  5  6 -1 -1</clus>
<clus scale="   79.335">  2  5  1 -1</clus>
<clus scale="   92.371">  7  8 -1 -1</clus>
<clus scale="   79.335">  2  5  1 -1</clus>
</clustering>
</event>
<event>
 9    2  0.5608219E-005  0.1082616E+03  0.7546771E-02  0.1264414E+00
         -1   -1    0    0    0  501 -0.00000000000E+00  0.00000000000E+00  0.10480817278E+03  0.10480817278E+03  0.00000000000E+00 0.  1.
          2   -1    0    0  502    0  0.00000000000E+00 -0.00000000000E+00 -0.31714019120E+03  0.31714019120E+03  0.00000000000E+00 0. -1.
         23    2    1    2    0    0 -0.71347065699E+02  0.51710852170E+01 -0.85688492697E+02  0.14266985557E+03  0.88853958832E+02 0.  0.
         24    2    1    2    0    0  0.51888509938E+02  0.21057656067E+02 -0.18445014847E+03  0.21288432272E+03  0.90343982895E+02 0.  0.
        -13    1    4    4    0    0  0.71134163922E+02 -0.71621724065E+01 -0.11350624463E+03  0.13414556855E+03  0.00000000000E+00 0.  1.
         14    1    4    4    0    0 -0.19245653984E+02  0.28219828473E+02 -0.70943903838E+02  0.78738754169E+02  0.00000000000E+00 0. -1.
        -11    1    3    3    0    0 -0.65899155425E+02 -0.34251567126E+02 -0.55173522127E+02  0.92520192825E+02  0.00000000000E+00 0.  1.
         11    1    3    3    0    0 -0.54479102732E+01  0.39422652343E+02 -0.30514970570E+02  0.50149662741E+02  0.00000000000E+00 0. -1.
         21    1    1    2  502  501  0.19458555760E+02 -0.26228741284E+02  0.57806622745E+02  0.66394185700E+02  0.00000000000E+00 0. -1.
<scales pt_clust_5="13000.00000" pt_clust_6="13000.00000" pt_clust_7="13000.00000" pt_clust_8="13000.00000" pt_clust_9="32.65857"></scales>
<clustering>
<clus scale="   32.659">  1  9  2 -1</clus>
<clus scale="   88.854">  7  8 -1 -1</clus>
<clus scale="   90.344">  5  6 -1 -1</clus>
<clus scale="  107.021">  1  7  2 -1</clus>
<clus scale="  108.262">  2  5  1 -1</clus>
</clustering>
</event>
<event>
 9    2  0.5608219E-005  0.9647165E+02  0.7546771E-02  0.1291486E+00
          2   -1    0    0  502    0  0.00000000000E+00  0.00000000000E+00  0.10654007895E+03  0.10654007895E+03  0.00000000000E+00 0. -1.
         -1   -1    0    0    0  501 -0.00000000000E+00 -0.00000000000E+00 -0.14912521433E+03  0.14912521433E+03  0.00000000000E+00 0.  1.
         24    2    1    2    0    0  0.32887606478E+02 -0.44474254239E+02 -0.35287030926E+02  0.10486892285E+03  0.81809305578E+02 0.  0.
         23    2    1    2    0    0 -0.28242108183E+02  0.13710442765E+02  0.33168966849E+02  0.99751521412E+02  0.88682539131E+02 0.  0.
        -13    1    3    3    0    0  0.12143156875E+02  0.23053240101E+02 -0.19340533741E+02  0.32449412682E+02  0.00000000000E+00 0.  1.
         14    1    3    3    0    0  0.20744449603E+02 -0.67527494340E+02 -0.15946497185E+02  0.72419510172E+02  0.00000000000E+00 0. -1.
        -11    1    4    4    0    0 -0.55590344488E+02 -0.45925013254E+01  0.42481144532E+01  0.55941254411E+02  0.00000000000E+00 0. -1.
         11    1    4    4    0    0  0.27348236305E+02  0.18302944091E+02  0.28920852396E+02  0.43810267001E+02  0.00000000000E+00 0.  1.
         21    1    1    2  502  501 -0.46454982955E+01  0.30763811474E+02 -0.40467071304E+02  0.51044849013E+02  0.00000000000E+00 0. -1.
<scales pt_clust_5="13000.00000" pt_clust_6="13000.00000" pt_clust_7="13000.00000" pt_clust_8="13000.00000" pt_clust_9="31.11258"></scales>
<clustering>
<clus scale="   31.113">  2  9  1 -1</clus>
<clus scale="   81.809">  5  6 -1 -1</clus>
<clus scale="   88.683">  7  8 -1 -1</clus>
<clus scale="   90.194">  2  5  1 -1</clus>
<clus scale="   96.472">  1  5  2 -1</clus>
</clustering>
</event>
<event>
 9    2  0.5608219E-005  0.1272138E+03  0.7546771E-02  0.1250249E+00
          2   -1    0    0  502    0  0.00000000000E+00  0.00000000000E+00  0.58192684829E+03  0.58192684829E+03  0.00000000000E+00 0. -1.
         -1   -1    0    0    0  501 -0.00000000000E+00 -0.00000000000E+00 -0.93304109945E+02  0.93304109945E+02  0.00000000000E+00 0.  1.
         24    2    1    2    0    0 -0.20631961523E+02 -0.29750379911E+02  0.42972800227E+02  0.97252072705E+02  0.79375948151E+02 0.  0.
         23    2    1    2    0    0 -0.62608070471E+02 -0.54924396942E+02  0.44209460977E+03  0.45918763534E+03  0.92028151081E+02 0.  0.
        -11    1    3    3    0    0 -0.34031462644E+02  0.14246064701E+02  0.34451436734E+02  0.50477641607E+02  0.00000000000E+00 0.  1.
         12    1    3    3    0    0  0.13399501121E+02 -0.43996444612E+02  0.85213634928E+01  0.46774431098E+02  0.00000000000E+00 0. -1.
        -11    1    4    4    0    0 -0.69542672872E+00  0.20855003873E+02  0.37369175350E+02  0.42800351298E+02  0.00000000000E+00 0.  1.
         11    1    4    4    0    0 -0.61912643742E+02 -0.75779400815E+02  0.40472543442E+03  0.41638728404E+03  0.00000000000E+00 0. -1.
         21    1    1    2  502  501  0.83240031994E+02  0.84674776853E+02  0.35553283418E+01  0.11879125019E+03  0.00000000000E+00 0.  1.
<scales pt_clust_5="13000.00000" pt_clust_6="13000.00000" pt_clust_7="13000.00000" pt_clust_8="13000.00000" pt_clust_9="87.83036"></scales>
<clustering>
<clus scale="   79.376">  5  6 -1 -1</clus>
<clus scale="   87.243">  2  5  1 -1</clus>
<clus scale="   87.830">  2  9  1 -1</clus>
<clus scale="   92.028">  7  8 -1 -1</clus>
<clus scale="  127.214">  1  5  2 -1</clus>
</clustering>
</event>
<event>
 9    2  0.5608219E-005  0.1082103E+03  0.7546771E-02  0.1268143E+00
          2   -1    0    0  502    0  0.00000000000E+00  0.00000000000E+00  0.10594131184E+04  0.10594131184E+04  0.00000000000E+00 0. -1.
         -1   -1    0    0    0  501 -0.00000000000E+00 -0.00000000000E+00 -0.36002001251E+02  0.36002001251E+02  0.00000000000E+00 0.  1.
         23    2    1    2    0    0  0.82107484358E+01 -0.56418552851E+02  0.86679151819E+02  0.13716447854E+03  0.89723738877E+02 0.  0.
         24    2    1    2    0    0 -0.31279239276E+02  0.52697535750E+02  0.92787033144E+03  0.93326004702E+03  0.79218320610E+02 0.  0.
        -13    1    4    4    0    0 -0.17973942821E+02  0.15050860674E+02  0.59204517886E+02  0.63677044260E+02  0.00000000000E+00 0.  1.
         14    1    4    4    0    0 -0.13305296454E+02  0.37646675076E+02  0.86866581355E+03  0.86958300276E+03  0.00000000000E+00 0. -1.
        -13    1    3    3    0    0  0.28827054913E+02 -0.55601782447E+02  0.17580173907E+02  0.65050901768E+02  0.00000000000E+00 0.  1.
         13    1    3    3    0    0 -0.20616306477E+02 -0.81677040344E+00  0.69098977912E+02  0.72113576774E+02  0.00000000000E+00 0. -1.
         21    1    1    2  502  501  0.23068490840E+02  0.37210171003E+01  0.88616339023E+01  0.24990594097E+02  0.00000000000E+00 0.  1.
<scales pt_clust_5="13000.00000" pt_clust_6="13000.00000" pt_clust_7="13000.00000" pt_clust_8="13000.00000" pt_clust_9="23.36667"></scales>
<clustering>
<clus scale="   23.367">  2  9  1 -1</clus>
<clus scale="   79.218">  5  6 -1 -1</clus>
<clus scale="   89.724">  7  8 -1 -1</clus>
<clus scale="   99.673">  1  5  2 -1</clus>
<clus scale="   99.673">  1  5  2 -1</clus>
</clustering>
</event>
<event>
 9    2  0.5608219E-005  0.9770160E+02  0.7546771E-02  0.1286137E+00
         -1   -1    0    0    0  501 -0.00000000000E+00  0.00000000000E+00  0.31148827635E+03  0.31148827635E+03  0.00000000000E+00 0.  1.
          2   -1    0    0  502    0  0.00000000000E+00 -0.00000000000E+00 -0.69919863142E+02  0.69919863142E+02  0.00000000000E+00 0. -1.
         24    2    1    2    0    0 -0.61421996953E+02  0.64326491891E+01  0.19530807152E+03  0.22189644845E+03  0.85315592654E+02 0.  0.
         23    2    1    2    0    0  0.37748155625E+02 -0.15322878277E+02 -0.11016694376E+02  0.96900623354E+02  0.87227572474E+02 0.  0.
        -13    1    3    3    0    0 -0.83089408824E+02  0.40581597866E+01  0.14719043332E+03  0.16907200295E+03  0.00000000000E+00 0.  1.
         14    1    3    3    0    0  0.21667411871E+02  0.23744894025E+01  0.48117638194E+02  0.52824445501E+02  0.00000000000E+00 0. -1.
        -11    1    4    4    0    0  0.60568358024E+01  0.35667270160E+02 -0.25102461370E+01  0.36264869451E+02  0.00000000000E+00 0.  1.
         11    1    4    4    0    0  0.31691319823E+02 -0.50990148437E+02 -0.85064482393E+01  0.60635753903E+02  0.00000000000E+00 0. -1.
         21    1    1    2  502  501  0.23673841328E+02  0.88902290875E+01  0.57277036069E+02  0.62611067690E+02  0.00000000000E+00 0. -1.
<scales pt_clust_5="13000.00000" pt_clust_6="13000.00000" pt_clust_7="13000.00000" pt_clust_8="13000.00000" pt_clust_9="25.28808"></scales>
<clustering>
<clus scale="   25.288">  1  9  2 -1</clus>
<clus scale="   85.316">  5  6 -1 -1</clus>
<clus scale="   87.228">  7  8 -1 -1</clus>
<clus scale="   95.998">  1  5  2 -1</clus>
<clus scale="   97.702">  2  5  1 -1</clus>
</clustering>
</event>
<event>
 9    2  0.5608219E-005  0.1916467E+03  0.7546771E-02  0.1157115E+00
         -1   -1    0    0    0  501 -0.00000000000E+00  0.00000000000E+00  0.12780742787E+03  0.12780742787E+03  0.00000000000E+00 0.  1.
          2   -1    0    0  502    0  0.00000000000E+00 -0.00000000000E+00 -0.65784368595E+03  0.65784368595E+03  0.00000000000E+00 0. -1.
         23    2    1    2    0    0  0.17213915682E+03 -0.41878938574E+02 -0.91685965699E+02  0.21904289813E+03  0.90486132134E+02 0.  0.
         24    2    1    2    0    0 -0.16578727934E+03  0.19354115247E+02 -0.48158634934E+03  0.51744450311E+03  0.89237874019E+02 0.  0.
        -11    1    4    4    0    0 -0.96160732838E+02 -0.52426766724E+01 -0.15395319901E+03  0.18159284040E+03  0.00000000000E+00 0.  1.
         12    1    4    4    0    0 -0.69626546502E+02  0.24596791920E+02 -0.32763315033E+03  0.33585166271E+03  0.00000000000E+00 0. -1.
        -11    1    3    3    0    0  0.53802240314E+02 -0.34425825361E+02 -0.76254689358E+02  0.99471584704E+02  0.00000000000E+00 0. -1.
         11    1    3    3    0    0  0.11833691651E+03 -0.74531132130E+01 -0.15431276342E+02  0.11957131343E+03  0.00000000000E+00 0.  1.
         21    1    1    2  502  501 -0.63518774853E+01  0.22524823327E+02  0.43236056955E+02  0.49163712579E+02  0.00000000000E+00 0. -1.
<scales pt_clust_5="13000.00000" pt_clust_6="13000.00000" pt_clust_7="13000.00000" pt_clust_8="13000.00000" pt_clust_9="23.40329"></scales>
<clustering>
<clus scale="   23.403">  1  9  2 -1</clus>
<clus scale="   89.238">  5  6 -1 -1</clus>
<clus scale="   90.486">  7  8 -1 -1</clus>
<clus scale="  191.060">  2  5  1 -1</clus>
<clus scale="  191.060">  2  5  1 -1</clus>
</clustering>
</event>
<event>
 9    2  0.5608219E-005  0.1259837E+03  0.7546771E-02  0.1237110E+00
         -1   -1    0    0    0  501 -0.00000000000E+00  0.00000000000E+00  0.36979290046E+02  0.36979290046E+02  0.00000000000E+00 0.  1.
          2   -1    0    0  502    0  0.00000000000E+00 -0.00000000000E+00 -0.66978373897E+03  0.66978373897E+03  0.00000000000E+00 0. -1.
         23    2    1    2    0    0  0.27734162426E+02 -0.10703074116E+03 -0.29511515684E+03  0.32846453340E+03  0.92580940733E+02 0.  0.
         24    2    1    2    0    0  0.12999541533E+02  0.72059486986E+02 -0.27574154443E+03  0.29632443450E+03  0.80082541252E+02 0.  0.
        -13    1    4    4    0    0 -0.51625018049E+01  0.75134083142E+02 -0.13674017351E+03  0.15610783749E+03  0.00000000000E+00 0.  1.
         14    1    4    4    0    0  0.18162043338E+02 -0.30745961558E+01 -0.13900137092E+03  0.14021659701E+03  0.00000000000E+00 0. -1.
        -13    1    3    3    0    0  0.21391370703E+02 -0.68773016986E+02 -0.27597501061E+03  0.28521838139E+03  0.00000000000E+00 0. -1.
         13    1    3    3    0    0  0.63427917231E+01 -0.38257724170E+02 -0.19140146235E+02  0.43246152007E+02  0.00000000000E+00 0.  1.
         21    1    1    2  502  501 -0.40733703960E+02  0.34971254170E+02 -0.61947747660E+02  0.81974061121E+02  0.00000000000E+00 0. -1.
<scales pt_clust_5="13000.00000" pt_clust_6="13000.00000" pt_clust_7="13000.00000" pt_clust_8="13000.00000" pt_clust_9="53.68634"></scales>
<clustering>
<clus scale="   53.686">  1  9  2 -1</clus>
<clus scale="   80.083">  5  6 -1 -1</clus>
<clus scale="   92.581">  7  8 -1 -1</clus>
<clus scale="  117.106">  2  5  1 -1</clus>
<clus scale="  117.106">  2  5  1 -1</clus>
</clustering>
</event>
<event>
 9    2  0.5608219E-005  0.9696184E+02  0.7546771E-02  0.1288965E+00
         -1   -1    0    0    0  501 -0.00000000000E+00  0.00000000000E+00  0.15921961032E+03  0.15921961032E+03  0.00000000000E+00 0.  1.
          2   -1    0    0  502    0  0.00000000000E+00 -0.00000000000E+00 -0.82809833062E+02  0.82809833062E+02  0.00000000000E+00 0. -1.
         24    2    1    2    0    0  0.52613150703E+02  0.29183202418E+01  0.59437947476E+02  0.11472810456E+03  0.82782897719E+02 0.  0.
         23    2    1    2    0    0 -0.27430340586E+02  0.18289910544E+02  0.15111678033E+02  0.94325239251E+02  0.87074356353E+02 0.  0.
        -11    1    3    3    0    0  0.21445176293E+02  0.12834466175E+01  0.76290750431E+02  0.79257942333E+02  0.00000000000E+00 0.  1.
         12    1    3    3    0    0  0.31167974410E+02  0.16348736243E+01 -0.16852802956E+02  0.35470162222E+02  0.00000000000E+00 0. -1.
        -13    1    4    4    0    0 -0.18992942600E+02 -0.12485210538E+02 -0.30882620217E+02  0.38345124621E+02  0.00000000000E+00 0. -1.
         13    1    4    4    0    0 -0.84373979865E+01  0.30775121082E+02  0.45994298250E+02  0.55980114629E+02  0.00000000000E+00 0.  1.
         21    1    1    2  502  501 -0.25182810117E+02 -0.21208230786E+02  0.18601517441E+01  0.32976099572E+02  0.00000000000E+00 0. -1.
<scales pt_clust_5="13000.00000" pt_clust_6="13000.00000" pt_clust_7="13000.00000" pt_clust_8="13000.00000" pt_clust_9="32.92359"></scales>
<clustering>
<clus scale="   32.924">  2  9  1 -1</clus>
<clus scale="   82.783">  5  6 -1 -1</clus>
<clus scale="   87.074">  7  8 -1 -1</clus>
<clus scale="   93.127">  1  5  2 -1</clus>
<clus scale="   32.924">  2  5  1 -1</clus>
</clustering>
</event>
<event>
 9    2  0.5608219E-005  0.1281297E+03  0.7546771E-02  0.1230357E+00
          2   -1    0    0  502    0  0.00000000000E+00  0.00000000000E+00  0.54325006287E+03  0.54325006287E+03  0.00000000000E+00 0. -1.
         -1   -1    0    0    0  501 -0.00000000000E+00 -0.00000000000E+00 -0.45117097400E+02  0.45117097400E+02  0.00000000000E+00 0.  1.
         23    2    1    2    0    0 -0.56743715372E+02  0.72145602235E+02  0.10813044053E+03  0.16334282604E+03  0.81017587556E+02 0.  0.
         24    2    1    2    0    0  0.70983141509E+02 -0.93403691103E+02  0.31202910616E+03  0.34296020300E+03  0.80601996617E+02 0.  0.
        -11    1    4    4    0    0  0.75310306856E+02 -0.49608091913E+02  0.14963939569E+03  0.17471277527E+03  0.00000000000E+00 0.  1.
         12    1    4    4    0    0 -0.43271653462E+01 -0.43795599190E+02  0.16238971048E+03  0.16824742773E+03  0.00000000000E+00 0. -1.
        -11    1    3    3    0    0  0.19887881097E+02  0.12703286362E+02  0.33456505045E+02  0.40941898207E+02  0.00000000000E+00 0.  1.
         11    1    3    3    0    0 -0.76631596469E+02  0.59442315872E+02  0.74673935490E+02  0.12240092784E+03  0.00000000000E+00 0. -1.
         21    1    1    2  502  501 -0.14239426137E+02  0.21258088868E+02  0.77973418772E+02  0.82064131227E+02  0.00000000000E+00 0. -1.
<scales pt_clust_5="13000.00000" pt_clust_6="13000.00000" pt_clust_7="13000.00000" pt_clust_8="13000.00000" pt_clust_9="25.58647"></scales>
<clustering>
<clus scale="   25.586">  1  9  2 -1</clus>
<clus scale="   80.602">  5  6 -1 -1</clus>
<clus scale="   81.018">  7  8 -1 -1</clus>
<clus scale="  127.867">  1  5  2 -1</clus>
<clus scale="   25.586">  1  5  2 -1</clus>
</clustering>
</event>
<event>
 9    2  0.5608219E-005  0.1074903E+03  0.7546771E-02  0.1269536E+00
         -1   -1    0    0    0  501 -0.00000000000E+00  0.00000000000E+00  0.24915687342E+02  0.24915687342E+02  0.00000000000E+00 0.  1.
          2   -1    0    0  502    0  0.00000000000E+00 -0.00000000000E+00 -0.14203732597E+04  0.14203732597E+04  0.00000000000E+00 0. -1.
         23    2    1    2    0    0  0.20240054263E+02 -0.42049350266E+02 -0.10790424313E+03  0.14970656690E+03  0.92687231224E+02 0.  0.
         24    2    1    2    0    0 -0.45848129489E+01  0.55262582874E+02 -0.12375261117E+04  0.12415231664E+04  0.82667539077E+02 0.  0.
        -13    1    4    4    0    0  0.10539598169E+02  0.31434795139E+02 -0.14954908796E+03  0.15318015271E+03  0.00000000000E+00 0.  1.
         14    1    4    4    0    0 -0.15124411118E+02  0.23827787734E+02 -0.10879770237E+04  0.10883430137E+04  0.00000000000E+00 0. -1.
        -13    1    3    3    0    0  0.45566852271E+02 -0.57793350020E+02 -0.82240194118E+02  0.11036239786E+03  0.00000000000E+00 0.  1.
         13    1    3    3    0    0 -0.25326798008E+02  0.15743999754E+02 -0.25664049014E+02  0.39344169039E+02  0.00000000000E+00 0. -1.
         21    1    1    2  502  501 -0.15655241314E+02 -0.13213232608E+02 -0.50027217573E+02  0.54059213782E+02  0.00000000000E+00 0. -1.
<scales pt_clust_5="13000.00000" pt_clust_6="13000.00000" pt_clust_7="13000.00000" pt_clust_8="13000.00000" pt_clust_9="20.48600"></scales>
<clustering>
<clus scale="   20.486">  1  9  2 -1</clus>
<clus scale="   82.668">  5  6 -1 -1</clus>
<clus scale="   92.687">  7  8 -1 -1</clus>
<clus scale="   98.981">  2  5  1 -1</clus>
<clus scale="   98.981">  2  5  1 -1</clus>
</clustering>
</event>
<event>
 9    2  0.5608219E-005  0.1324911E+03  0.7546771E-02  0.1225648E+00
         -1   -1    0    0    0  501 -0.00000000000E+00  0.00000000000E+00  0.26988628731E+02  0.26988628731E+02  0.00000000000E+00 0.  1.
          2   -1    0    0  502    0  0.00000000000E+00 -0.00000000000E+00 -0.81190077728E+03  0.81190077728E+03  0.00000000000E+00 0. -1.
         23    2    1    2    0    0 -0.35827606757E+02 -0.10269844884E+03 -0.37333917788E+03  0.39858688810E+03  0.87514437840E+02 0.  0.
         24    2    1    2    0    0  0.34798293436E+01  0.93218621309E+02 -0.32255959847E+03  0.34512044888E+03  0.79759695954E+02 0.  0.
        -13    1    4    4    0    0 -0.71494982867E+01  0.42607867172E+02 -0.43498469334E+02  0.61307931828E+02  0.00000000000E+00 0.  1.
         14    1    4    4    0    0  0.10629327630E+02  0.50610754137E+02 -0.27906112913E+03  0.28381251705E+03  0.00000000000E+00 0. -1.
        -13    1    3    3    0    0  0.23921013520E+02 -0.35938855553E+02 -0.18575315141E+03  0.19070408880E+03  0.00000000000E+00 0. -1.
         13    1    3    3    0    0 -0.59748620277E+02 -0.66759593286E+02 -0.18758602647E+03  0.20788279930E+03  0.00000000000E+00 0.  1.
         21    1    1    2  502  501  0.32347777413E+02  0.94798275302E+01 -0.89013372203E+02  0.95182069028E+02  0.00000000000E+00 0. -1.
<scales pt_clust_5="13000.00000" pt_clust_6="13000.00000" pt_clust_7="13000.00000" pt_clust_8="13000.00000" pt_clust_9="33.70825"></scales>
<clustering>
<clus scale="   33.708">  1  9  2 -1</clus>
<clus scale="   79.760">  5  6 -1 -1</clus>
<clus scale="   87.514">  7  8 -1 -1</clus>
<clus scale="  127.502">  2  5  1 -1</clus>
<clus scale="  127.502">  2  5  1 -1</clus>
</clustering>
</event>
<event>
 9    2  0.5608219E-005  0.9546334E+02  0.7546771E-02  0.1298433E+00
         -1   -1    0    0    0  501 -0.00000000000E+00  0.00000000000E+00  0.69763015949E+03  0.69763015949E+03  0.00000000000E+00 0.  1.
          2   -1    0    0  502    0  0.00000000000E+00 -0.00000000000E+00 -0.52719992864E+02  0.52719992864E+02  0.00000000000E+00 0. -1.
         23    2    1    2    0    0  0.22085623998E+02 -0.31107070702E+02  0.13634712546E+03  0.16867424323E+03  0.91678989265E+02 0.  0.
         24    2    1    2    0    0  0.80264095817E+01 -0.52128404231E+02  0.35071316177E+02  0.99981719325E+02  0.77359894018E+02 0.  0.
        -13    1    4    4    0    0  0.14722762470E+02 -0.44102809678E+02  0.58264312447E+02  0.74542254199E+02  0.00000000000E+00 0.  1.
         14    1    4    4    0    0 -0.66963528883E+01 -0.80255945525E+01 -0.23192996270E+02  0.25439465126E+02  0.00000000000E+00 0. -1.
        -13    1    3    3    0    0 -0.24353511740E+02 -0.18654866624E+02  0.81261845696E+01  0.31735350297E+02  0.00000000000E+00 0.  1.
         13    1    3    3    0    0  0.46439135738E+02 -0.12452204079E+02  0.12822094089E+03  0.13693889293E+03  0.00000000000E+00 0. -1.
         21    1    1    2  502  501 -0.30112033579E+02  0.83235474933E+02  0.47349172498E+03  0.48169418979E+03  0.00000000000E+00 0.  1.
<scales pt_clust_5="13000.00000" pt_clust_6="13000.00000" pt_clust_7="13000.00000" pt_clust_8="13000.00000" pt_clust_9="88.51485"></scales>
<clustering>
<clus scale="   77.360">  5  6 -1 -1</clus>
<clus scale="   88.515">  1  9  2 -1</clus>
<clus scale="   81.809">  2  5  1 -1</clus>
<clus scale="   91.679">  7  8 -1 -1</clus>
<clus scale="   81.809">  2  5  1 -1</clus>
</clustering>
</event>
<event>
 9    2  0.5608219E-005  0.1924657E+03  0.7546771E-02  0.1157623E+00
          2   -1    0    0  502    0  0.00000000000E+00  0.00000000000E+00  0.15402108448E+04  0.15402108448E+04  0.00000000000E+00 0. -1.
         -1   -1    0    0    0  501 -0.00000000000E+00 -0.00000000000E+00 -0.30407702257E+02  0.30407702257E+02  0.00000000000E+00 0.  1.
         24    2    1    2    0    0 -0.11605866436E+02 -0.15208928911E+03  0.55365957716E+03  0.57977243129E+03  0.79569445765E+02 0.  0.
         23    2    1    2    0    0 -0.13038809281E+02  0.19160077913E+03  0.77818236840E+03  0.80689311765E+03  0.92886143841E+02 0.  0.
        -13    1    3    3    0    0 -0.67318096659E+01 -0.14774075311E+03  0.40819097324E+03  0.43415725034E+03  0.00000000000E+00 0.  1.
         14    1    3    3    0    0 -0.48740567701E+01 -0.43485360062E+01  0.14546860392E+03  0.14561518095E+03  0.00000000000E+00 0. -1.
        -11    1    4    4    0    0 -0.35768271063E+02  0.21579335488E+02  0.14805303696E+03  0.15383347714E+03  0.00000000000E+00 0. -1.
         11    1    4    4    0    0  0.22729461782E+02  0.17002144364E+03  0.63012933144E+03  0.65305964051E+03  0.00000000000E+00 0.  1.
         21    1    1    2  502  501  0.24644675717E+02 -0.39511490017E+02  0.17796119698E+03  0.18395299811E+03  0.00000000000E+00 0.  1.
<scales pt_clust_5="13000.00000" pt_clust_6="13000.00000" pt_clust_7="13000.00000" pt_clust_8="13000.00000" pt_clust_9="46.56735"></scales>
<clustering>
<clus scale="   46.567">  1  9  2 -1</clus>
<clus scale="   79.569">  5  6 -1 -1</clus>
<clus scale="   92.886">  7  8 -1 -1</clus>
<clus scale="  186.404">  2  5  1 -1</clus>
<clus scale="   46.567">  1  5  2 -1</clus>
</clustering>
</event>
<event>
 9    2  0.5608219E-005  0.9812224E+02  0.7546771E-02  0.1289595E+00
         -1   -1    0    0    0  501 -0.00000000000E+00  0.00000000000E+00  0.81690240874E+02  0.81690240874E+02  0.00000000000E+00 0.  1.
          2   -1    0    0  502    0  0.00000000000E+00 -0.00000000000E+00 -0.33016766512E+03  0.33016766512E+03  0.00000000000E+00 0. -1.
         24    2    1    2    0    0  0.43734619893E+02  0.36944738064E+02 -0.36479373977E+02  0.10543114257E+03  0.80668150159E+02 0.  0.
         23    2    1    2    0    0 -0.30109226807E+02 -0.11834289042E+02 -0.24469707925E+03  0.26300542669E+03  0.90821682088E+02 0.  0.
        -11    1    3    3    0    0  0.48306625294E+02  0.55785016229E+02 -0.42466683342E+02  0.85140573624E+02  0.00000000000E+00 0.  1.
         12    1    3    3    0    0 -0.45720054009E+01 -0.18840278165E+02  0.59873093651E+01  0.20290568946E+02  0.00000000000E+00 0. -1.
        -13    1    4    4    0    0  0.30483087700E+02 -0.46784143067E+00 -0.47907657894E+02  0.56785395977E+02  0.00000000000E+00 0.  1.
         13    1    4    4    0    0 -0.60592314507E+02 -0.11366447611E+02 -0.19678942136E+03  0.20622003071E+03  0.00000000000E+00 0. -1.
         21    1    1    2  502  501 -0.13625393086E+02 -0.25110449022E+02  0.32699028988E+02  0.43421336732E+02  0.00000000000E+00 0. -1.
<scales pt_clust_5="13000.00000" pt_clust_6="13000.00000" pt_clust_7="13000.00000" pt_clust_8="13000.00000" pt_clust_9="28.56897"></scales>
<clustering>
<clus scale="   28.569">  1  9  2 -1</clus>
<clus scale="   80.668">  5  6 -1 -1</clus>
<clus scale="   88.807">  1  5  2 -1</clus>
<clus scale="   90.822">  7  8 -1 -1</clus>
<clus scale="   98.122">  2  5  1 -1</clus>
</clustering>
</event>
<event>
 9    2  0.5608219E-005  0.1039191E+03  0.7546771E-02  0.1277098E+00
          2   -1    0    0  502    0  0.00000000000E+00  0.00000000000E+00  0.10581110889E+04  0.10581110889E+04  0.00000000000E+00 0. -1.
         -1   -1    0    0    0  501 -0.00000000000E+00 -0.00000000000E+00 -0.24691833807E+02  0.24691833807E+02  0.00000000000E+00 0.  1.
         23    2    1    2    0    0  0.84157614355E+02 -0.21259201894E+02  0.24078285360E+03  0.27184707223E+03  0.91596890623E+02 0.  0.
         24    2    1    2    0    0 -0.39252935017E+02  0.15341333269E+02  0.71703398143E+03  0.72282425958E+03  0.81000186951E+02 0.  0.
        -11    1    4    4    0    0 -0.31445462772E+02 -0.29037329130E+02  0.25165782966E+03  0.25527171179E+03  0.00000000000E+00 0.  1.
         12    1    4    4    0    0 -0.78074722453E+01  0.44378662399E+02  0.46537615177E+03  0.46755254778E+03  0.00000000000E+00 0. -1.
        -13    1    3    3    0    0  0.80613432812E+02 -0.45746150503E+02  0.13878153189E+03  0.16688783487E+03  0.00000000000E+00 0.  1.
         13    1    3    3    0    0  0.35441815430E+01  0.24486948609E+02  0.10200132171E+03  0.10495923735E+03  0.00000000000E+00 0. -1.
         21    1    1    2  502  501 -0.44904679338E+02  0.59178686249E+01  0.75602420020E+02  0.88131590865E+02  0.00000000000E+00 0. -1.
<scales pt_clust_5="13000.00000" pt_clust_6="13000.00000" pt_clust_7="13000.00000" pt_clust_8="13000.00000" pt_clust_9="45.29295"></scales>
<clustering>
<clus scale="   45.293">  2  9  1 -1</clus>
<clus scale="   81.000">  5  6 -1 -1</clus>
<clus scale="   91.597">  7  8 -1 -1</clus>
<clus scale="   94.711">  1  5  2 -1</clus>
<clus scale="   94.711">  1  5  2 -1</clus>
</clustering>
</event>
<event>
 9    2  0.5608219E-005  0.2642469E+03  0.7546771E-02  0.1137979E+00
         -3   -1    0    0    0  501 -0.00000000000E+00  0.00000000000E+00  0.41786468607E+03  0.41786468607E+03  0.00000000000E+00 0.  1.
          4   -1    0    0  502    0  0.00000000000E+00 -0.00000000000E+00 -0.27886313237E+03  0.27886313237E+03  0.00000000000E+00 0. -1.
         23    2    1    2    0    0  0.10989596566E+02 -0.68237839096E+02  0.67363916871E+02  0.13321828736E+03  0.91826144829E+02 0.  0.
         24    2    1    2    0    0  0.14989477695E+03 -0.17591535318E+03 -0.42779590877E+02  0.24952567013E+03  0.83775360450E+02 0.  0.
        -13    1    4    4    0    0  0.14108679065E+03 -0.14560601996E+03 -0.62676657817E+02  0.21221441747E+03  0.00000000000E+00 0.  1.
         14    1    4    4    0    0  0.88079862986E+01 -0.30309333219E+02  0.19897066940E+02  0.37311252668E+02  0.00000000000E+00 0. -1.
        -11    1    3    3    0    0 -0.16076502307E+02 -0.74997096462E+02  0.71689457211E+02  0.10498760250E+03  0.00000000000E+00 0.  1.
         11    1    3    3    0    0  0.27066098873E+02  0.67592573661E+01 -0.43255403402E+01  0.28230684858E+02  0.00000000000E+00 0. -1.
         21    1    1    2  502  501 -0.16088437351E+03  0.24415319228E+03  0.11441722770E+03  0.31398386095E+03  0.00000000000E+00 0. -1.
<scales pt_clust_5="13000.00000" pt_clust_6="13000.00000" pt_clust_7="13000.00000" pt_clust_8="13000.00000" pt_clust_9="250.61546"></scales>
<clustering>
<clus scale="   83.775">  5  6 -1 -1</clus>
<clus scale="   91.826">  7  8 -1 -1</clus>
<clus scale="  114.931">  1  7  2 -1</clus>
<clus scale="  250.615">  1  9  2 -1</clus>
<clus scale="  264.247">  2  5  1 -1</clus>
</clustering>
</event>
<event>
 9    2  0.5608219E-005  0.1529501E+03  0.7546771E-02  0.1196940E+00
          2   -1    0    0  502    0  0.00000000000E+00  0.00000000000E+00  0.22775454095E+03  0.22775454095E+03  0.00000000000E+00 0. -1.
         -1   -1    0    0    0  501 -0.00000000000E+00 -0.00000000000E+00 -0.27812512124E+03  0.27812512124E+03  0.00000000000E+00 0.  1.
         24    2    1    2    0    0  0.12733952633E+03 -0.41158768823E+02 -0.22118377169E+03  0.27048676876E+03  0.79570295935E+02 0.  0.
         23    2    1    2    0    0 -0.10281110907E+03  0.27759164083E+02  0.14997936583E+03  0.20053258722E+03  0.79867471639E+02 0.  0.
        -11    1    3    3    0    0  0.54067765412E+02 -0.16880012624E+02 -0.16655264281E+03  0.17592055284E+03  0.00000000000E+00 0.  1.
         12    1    3    3    0    0  0.73271760916E+02 -0.24278756199E+02 -0.54631128880E+02  0.94566215918E+02  0.00000000000E+00 0. -1.
        -11    1    4    4    0    0 -0.44129455462E+02 -0.13560850825E+02  0.16581346320E+02  0.49053507114E+02  0.00000000000E+00 0.  1.
         11    1    4    4    0    0 -0.58681653604E+02  0.41320014908E+02  0.13339801951E+03  0.15147908011E+03  0.00000000000E+00 0. -1.
         21    1    1    2  502  501 -0.24528417262E+02  0.13399604740E+02  0.20833825575E+02  0.34860306205E+02  0.00000000000E+00 0. -1.
<scales pt_clust_5="13000.00000" pt_clust_6="13000.00000" pt_clust_7="13000.00000" pt_clust_8="13000.00000" pt_clust_9="27.94982"></scales>
<clustering>
<clus scale="   27.950">  1  9  2 -1</clus>
<clus scale="   79.570">  5  6 -1 -1</clus>
<clus scale="   79.867">  7  8 -1 -1</clus>
<clus scale="  152.795">  2  5  1 -1</clus>
<clus scale="   27.950">  1  5  2 -1</clus>
</clustering>
</event>
<event>
 9    2  0.5608219E-005  0.9327275E+02  0.7546771E-02  0.1300089E+00
         -1   -1    0    0    0  501 -0.00000000000E+00  0.00000000000E+00  0.68133023622E+02  0.68133023622E+02  0.00000000000E+00 0.  1.
          2   -1    0    0  502    0  0.00000000000E+00 -0.00000000000E+00 -0.55054114966E+03  0.55054114966E+03  0.00000000000E+00 0. -1.
         24    2    1    2    0    0 -0.24344539926E+02  0.21029722536E+02  0.24143391048E+02  0.89930656069E+02  0.80434530617E+02 0.  0.
         23    2    1    2    0    0 -0.94305935835E+01 -0.27296778277E+02 -0.46727811284E+03  0.47656654996E+03  0.89066220289E+02 0.  0.
        -13    1    3    3    0    0 -0.31208919889E+02  0.40030979142E+02 -0.85741010834E+01  0.51478065048E+02  0.00000000000E+00 0.  1.
         14    1    3    3    0    0  0.68643799633E+01 -0.19001256606E+02  0.32717492131E+02  0.38452591021E+02  0.00000000000E+00 0. -1.
        -13    1    4    4    0    0 -0.80481949349E+01  0.32590889912E+02 -0.18131237814E+03  0.18439392076E+03  0.00000000000E+00 0.  1.
         13    1    4    4    0    0 -0.13823986485E+01 -0.59887668189E+02 -0.28596573470E+03  0.29217262919E+03  0.00000000000E+00 0. -1.
         21    1    1    2  502  501  0.33775133510E+02  0.62670557407E+01 -0.39273404247E+02  0.52176967259E+02  0.00000000000E+00 0. -1.
<scales pt_clust_5="13000.00000" pt_clust_6="13000.00000" pt_clust_7="13000.00000" pt_clust_8="13000.00000" pt_clust_9="34.35165"></scales>
<clustering>
<clus scale="   34.352">  1  9  2 -1</clus>
<clus scale="   80.435">  5  6 -1 -1</clus>
<clus scale="   85.069">  1  5  2 -1</clus>
<clus scale="   89.066">  7  8 -1 -1</clus>
<clus scale="   93.273">  2  5  1 -1</clus>
</clustering>
</event>
<event>
 9    2  0.5608219E-005  0.9437576E+02  0.7546771E-02  0.1297377E+00
         -1   -1    0    0    0  501 -0.00000000000E+00  0.00000000000E+00  0.11420824345E+03  0.11420824345E+03  0.00000000000E+00 0.  1.
          2   -1    0    0  502    0  0.00000000000E+00 -0.00000000000E+00 -0.37415922071E+03  0.37415922071E+03  0.00000000000E+00 0. -1.
         24    2    1    2    0    0 -0.76982837751E+01 -0.33073681635E+02  0.69422676763E+02  0.11199515547E+03  0.81057231691E+02 0.  0.
         23    2    1    2    0    0 -0.44432400734E+02 -0.14558842619E+02 -0.25262352442E+03  0.27207922154E+03  0.89567067416E+02 0.  0.
        -13    1    3    3    0    0 -0.22135957693E+02 -0.36379665432E+02  0.16436573205E+01  0.42616690267E+02  0.00000000000E+00 0.  1.
         14    1    3    3    0    0  0.14437673918E+02  0.33059837973E+01  0.67779019442E+02  0.69378465201E+02  0.00000000000E+00 0. -1.
        -13    1    4    4    0    0 -0.48702356618E+02  0.22086674285E+02 -0.84840310211E+02  0.10028768099E+03  0.00000000000E+00 0.  1.
         13    1    4    4    0    0  0.42699558831E+01 -0.36645516904E+02 -0.16778321421E+03  0.17179154055E+03  0.00000000000E+00 0. -1.
         21    1    1    2  502  501  0.52130684509E+02  0.47632524254E+02 -0.76750129596E+02  0.10429308715E+03  0.00000000000E+00 0. -1.
<scales pt_clust_5="13000.00000" pt_clust_6="13000.00000" pt_clust_7="13000.00000" pt_clust_8="13000.00000" pt_clust_9="70.61491"></scales>
<clustering>
<clus scale="   70.615">  2  9  1 -1</clus>
<clus scale="   81.057">  5  6 -1 -1</clus>
<clus scale="   86.341">  1  5  2 -1</clus>
<clus scale="   89.567">  7  8 -1 -1</clus>
<clus scale="   70.615">  2  5  1 -1</clus>
</clustering>
</event>
<event>
 9    2  0.5608219E-005  0.2025233E+03  0.7546771E-02  0.1148678E+00
         -1   -1    0    0    0  501 -0.00000000000E+00  0.00000000000E+00  0.14485759494E+03  0.14485759494E+03  0.00000000000E+00 0.  1.
          2   -1    0    0  502    0  0.00000000000E+00 -0.00000000000E+00 -0.39364208109E+03  0.39364208109E+03  0.00000000000E+00 0. -1.
         23    2    1    2    0    0  0.13950528999E+03  0.11804000890E+03 -0.88372523739E+02  0.22223991945E+03  0.90474909270E+02 0.  0.
         24    2    1    2    0    0 -0.15897519269E+03 -0.87756071223E+02 -0.18639964739E+03  0.27185757462E+03  0.78660488183E+02 0.  0.
        -11    1    4    4    0    0 -0.25603388792E+02  0.14661110480E+02 -0.23293901317E+02  0.37591056339E+02  0.00000000000E+00 0.  1.
         12    1    4    4    0    0 -0.13337180390E+03 -0.10241718170E+03 -0.16310574608E+03  0.23426651828E+03  0.00000000000E+00 0. -1.
        -13    1    3    3    0    0  0.32045792468E+02  0.58793168680E+02 -0.72197482625E+02  0.98468502556E+02  0.00000000000E+00 0. -1.
         13    1    3    3    0    0  0.10745949753E+03  0.59246840216E+02 -0.16175041114E+02  0.12377141689E+03  0.00000000000E+00 0.  1.
         21    1    1    2  502  501  0.19469902701E+02 -0.30283937673E+02  0.25987684983E+02  0.44402181962E+02  0.00000000000E+00 0. -1.
<scales pt_clust_5="13000.00000" pt_clust_6="13000.00000" pt_clust_7="13000.00000" pt_clust_8="13000.00000" pt_clust_9="36.00269"></scales>
<clustering>
<clus scale="   36.003">  1  9  2 -1</clus>
<clus scale="   78.660">  5  6 -1 -1</clus>
<clus scale="   90.475">  7  8 -1 -1</clus>
<clus scale="  197.528">  2  5  1 -1</clus>
<clus scale="  197.528">  2  5  1 -1</clus>
</clustering>
</event>
<event>
 9    2  0.5608219E-005  0.1909279E+03  0.7546771E-02  0.1157726E+00
         -1   -1    0    0    0  501 -0.00000000000E+00  0.00000000000E+00  0.30723051785E+03  0.30723051785E+03  0.00000000000E+00 0.  1.
          2   -1    0    0  502    0  0.00000000000E+00 -0.00000000000E+00 -0.33732681079E+03  0.33732681079E+03  0.00000000000E+00 0. -1.
         23    2    1    2    0    0  0.12316076975E+03  0.90107203628E+02  0.22659697957E+03  0.29363334706E+03  0.10764045708E+03 0.  0.
         24    2    1    2    0    0 -0.13973273190E+03 -0.74721649891E+02 -0.26508973003E+03  0.32680250376E+03  0.10685855216E+03 0.  0.
        -11    1    4    4    0    0 -0.68320184853E+02  0.78609403831E+01 -0.16472029414E+03  0.17849990852E+03  0.00000000000E+00 0.  1.
         12    1    4    4    0    0 -0.71412547048E+02 -0.82582590275E+02 -0.10036943589E+03  0.14830259524E+03  0.00000000000E+00 0. -1.
        -11    1    3    3    0    0  0.22641222496E+02 -0.24026286901E+02  0.56675391046E+02  0.65589537036E+02  0.00000000000E+00 0. -1.
         11    1    3    3    0    0  0.10051954725E+03  0.11413349053E+03  0.16992158853E+03  0.22804381002E+03  0.00000000000E+00 0.  1.
         21    1    1    2  502  501  0.16571962151E+02 -0.15385553737E+02  0.83964575198E+01  0.24121477819E+02  0.00000000000E+00 0.  1.
<scales pt_clust_5="13000.00000" pt_clust_6="13000.00000" pt_clust_7="13000.00000" pt_clust_8="13000.00000" pt_clust_9="22.61294"></scales>
<clustering>
<clus scale="   22.613">  1  9  2 -1</clus>
<clus scale="  106.859">  5  6 -1 -1</clus>
<clus scale="  107.640">  7  8 -1 -1</clus>
<clus scale="  190.488">  2  5  1 -1</clus>
<clus scale="  190.488">  2  5  1 -1</clus>
</clustering>
</event>
<event>
 9    2  0.5608219E-005  0.1124125E+03  0.7546771E-02  0.1258856E+00
         -1   -1    0    0    0  501 -0.00000000000E+00  0.00000000000E+00  0.46496223163E+02  0.46496223163E+02  0.00000000000E+00 0.  1.
          2   -1    0    0  502    0  0.00000000000E+00 -0.00000000000E+00 -0.50615700299E+03  0.50615700299E+03  0.00000000000E+00 0. -1.
         23    2    1    2    0    0 -0.16143185774E+02  0.10066864643E+03 -0.25442153908E+03  0.28803458556E+03  0.88537134065E+02 0.  0.
         24    2    1    2    0    0  0.27527692341E+02 -0.39421070822E+02 -0.16634614205E+03  0.19117787784E+03  0.81031767404E+02 0.  0.
        -13    1    4    4    0    0  0.42499133962E+02 -0.25896753148E+02 -0.16337221345E+03  0.17078436210E+03  0.00000000000E+00 0.  1.
         14    1    4    4    0    0 -0.14971441621E+02 -0.13524317674E+02 -0.29739286036E+01  0.20393515737E+02  0.00000000000E+00 0. -1.
        -13    1    3    3    0    0 -0.13181778403E+02  0.43708923670E+02 -0.25870185415E+02  0.52473762812E+02  0.00000000000E+00 0.  1.
         13    1    3    3    0    0 -0.29614073716E+01  0.56959722764E+02 -0.22855135367E+03  0.23556082275E+03  0.00000000000E+00 0. -1.
         21    1    1    2  502  501 -0.11384506567E+02 -0.61247575612E+02 -0.38893098693E+02  0.73440762755E+02  0.00000000000E+00 0. -1.
<scales pt_clust_5="13000.00000" pt_clust_6="13000.00000" pt_clust_7="13000.00000" pt_clust_8="13000.00000" pt_clust_9="62.29665"></scales>
<clustering>
<clus scale="   62.297">  1  9  2 -1</clus>
<clus scale="   81.032">  5  6 -1 -1</clus>
<clus scale="   88.537">  7  8 -1 -1</clus>
<clus scale="  106.602">  2  5  1 -1</clus>
<clus scale="  106.602">  2  5  1 -1</clus>
</clustering>
</event>
<event>
 9    2  0.5608219E-005  0.1628949E+03  0.7546771E-02  0.1203251E+00
          2   -1    0    0  502    0  0.00000000000E+00  0.00000000000E+00  0.23137311248E+03  0.23137311248E+03  0.00000000000E+00 0. -1.
         -1   -1    0    0    0  501 -0.00000000000E+00 -0.00000000000E+00 -0.97895342471E+03  0.97895342471E+03  0.00000000000E+00 0.  1.
         24    2    1    2    0    0  0.38486522490E+02 -0.80076903857E+02 -0.58675393600E+02  0.13361762806E+03  0.80730079713E+02 0.  0.
         23    2    1    2    0    0  0.43974545930E+02 -0.46205328689E+02  0.17110831252E+03  0.20357101176E+03  0.89968934239E+02 0.  0.
        -11    1    3    3    0    0 -0.22855948381E+02 -0.17694174064E+02 -0.11842802610E+01  0.28928890264E+02  0.00000000000E+00 0.  1.
         12    1    3    3    0    0  0.61342470871E+02 -0.62382729793E+02 -0.57491113339E+02  0.10468873780E+03  0.00000000000E+00 0. -1.
        -13    1    4    4    0    0  0.25698206178E+01 -0.34012562633E+02  0.82541184540E+01  0.35094000432E+02  0.00000000000E+00 0.  1.
         13    1    4    4    0    0  0.41404725312E+02 -0.12192766055E+02  0.16285419406E+03  0.16847701133E+03  0.00000000000E+00 0. -1.
         21    1    1    2  502  501 -0.82461068420E+02  0.12628223255E+03 -0.86001323115E+03  0.87313789737E+03  0.00000000000E+00 0.  1.
<scales pt_clust_5="13000.00000" pt_clust_6="13000.00000" pt_clust_7="13000.00000" pt_clust_8="13000.00000" pt_clust_9="141.48289"></scales>
<clustering>
<clus scale="   80.730">  5  6 -1 -1</clus>
<clus scale="   89.969">  7  8 -1 -1</clus>
<clus scale="  110.286">  1  7  2 -1</clus>
<clus scale="  141.483">  2  9  1 -1</clus>
<clus scale="  110.286">  1  5  2 -1</clus>
</clustering>
</event>
<event>
 9    2  0.5608219E-005  0.1103282E+03  0.7546771E-02  0.1264058E+00
         -1   -1    0    0    0  501 -0.00000000000E+00  0.00000000000E+00  0.40570499517E+03  0.40570499517E+03  0.00000000000E+00 0.  1.
          2   -1    0    0  502    0  0.00000000000E+00 -0.00000000000E+00 -0.89868433121E+02  0.89868433121E+02  0.00000000000E+00 0. -1.
         23    2    1    2    0    0 -0.39177423581E+02  0.15686630385E+02  0.30950672240E+03  0.32554335988E+03  0.91668571809E+02 0.  0.
         24    2    1    2    0    0  0.49664504607E+02 -0.39759483896E+02 -0.44850439712E+02  0.11250701095E+03  0.81233527517E+02 0.  0.
        -11    1    4    4    0    0 -0.21513292336E+02 -0.48153333947E+01 -0.19009454064E+02  0.29109595095E+02  0.00000000000E+00 0.  1.
         12    1    4    4    0    0  0.71177796943E+02 -0.34944150501E+02 -0.25840985649E+02  0.83397415854E+02  0.00000000000E+00 0. -1.
        -11    1    3    3    0    0 -0.53839024959E+02  0.43654563147E+02  0.20926773237E+03  0.22044805579E+03  0.00000000000E+00 0.  1.
         11    1    3    3    0    0  0.14661601378E+02 -0.27967932762E+02  0.10023899003E+03  0.10509530408E+03  0.00000000000E+00 0. -1.
         21    1    1    2  502  501 -0.10487081026E+02  0.24072853511E+02  0.51180279365E+02  0.57523057468E+02  0.00000000000E+00 0.  1.
<scales pt_clust_5="13000.00000" pt_clust_6="13000.00000" pt_clust_7="13000.00000" pt_clust_8="13000.00000" pt_clust_9="26.25797"></scales>
<clustering>
<clus scale="   26.258">  1  9  2 -1</clus>
<clus scale="   81.234">  5  6 -1 -1</clus>
<clus scale="   91.669">  7  8 -1 -1</clus>
<clus scale="  101.824">  2  5  1 -1</clus>
<clus scale="  101.824">  2  5  1 -1</clus>
</clustering>
</event>
<event>
 9    2  0.5608219E-005  0.1254801E+03  0.7546771E-02  0.1237708E+00
         -1   -1    0    0    0  501 -0.00000000000E+00  0.00000000000E+00  0.12587678176E+03  0.12587678176E+03  0.00000000000E+00 0.  1.
          2   -1    0    0  502    0  0.00000000000E+00 -0.00000000000E+00 -0.40704820183E+03  0.40704820183E+03  0.00000000000E+00 0. -1.
         23    2    1    2    0    0 -0.46503402063E+02  0.40317800022E+02  0.79273898214E+02  0.13620666432E+03  0.92085900469E+02 0.  0.
         24    2    1    2    0    0  0.63803488631E+02 -0.59735148818E+02 -0.34840378731E+03  0.36805955276E+03  0.80271179144E+02 0.  0.
        -11    1    4    4    0    0  0.89521724043E+01 -0.21120593799E+02 -0.13741004708E+02  0.26740158630E+02  0.00000000000E+00 0.  1.
         12    1    4    4    0    0  0.54851316226E+02 -0.38614555019E+02 -0.33466278261E+03  0.34131939413E+03  0.00000000000E+00 0. -1.
        -11    1    3    3    0    0 -0.64830931022E+02  0.56035567276E+02  0.68779904216E+02  0.10988043339E+03  0.00000000000E+00 0.  1.
         11    1    3    3    0    0  0.18327528959E+02 -0.15717767254E+02  0.10493993998E+02  0.26326230934E+02  0.00000000000E+00 0. -1.
         21    1    1    2  502  501 -0.17300086567E+02  0.19417348796E+02 -0.12041530977E+02  0.28658766508E+02  0.00000000000E+00 0.  1.
<scales pt_clust_5="13000.00000" pt_clust_6="13000.00000" pt_clust_7="13000.00000" pt_clust_8="13000.00000" pt_clust_9="26.00628"></scales>
<clustering>
<clus scale="   26.006">  1  9  2 -1</clus>
<clus scale="   80.271">  5  6 -1 -1</clus>
<clus scale="   92.086">  7  8 -1 -1</clus>
<clus scale="  117.085">  2  5  1 -1</clus>
<clus scale="  117.085">  2  5  1 -1</clus>
</clustering>
</event>
<event>
 9    2  0.5608219E-005  0.1062491E+03  0.7546771E-02  0.1274997E+00
         -1   -1    0    0    0  501 -0.00000000000E+00  0.00000000000E+00  0.11632291947E+03  0.11632291947E+03  0.00000000000E+00 0.  1.
          2   -1    0    0  502    0  0.00000000000E+00 -0.00000000000E+00 -0.57903788674E+03  0.57903788674E+03  0.00000000000E+00 0. -1.
         23    2    1    2    0    0 -0.11309713338E+02  0.23047837178E+02 -0.29479740824E+02  0.10339053401E+03  0.95715385335E+02 0.  0.
         24    2    1    2    0    0 -0.11995032386E+01 -0.48808240726E+02 -0.50557299925E+03  0.51417032191E+03  0.79896052467E+02 0.  0.
        -11    1    4    4    0    0  0.15427110504E+02  0.14454165171E+02 -0.55884250206E+02  0.59749209622E+02  0.00000000000E+00 0.  1.
         12    1    4    4    0    0 -0.16626613742E+02 -0.63262405897E+02 -0.44968874904E+03  0.45442111229E+03  0.00000000000E+00 0. -1.
        -11    1    3    3    0    0 -0.33712264979E+02 -0.21780383978E+02 -0.34632029233E+02  0.53012068296E+02  0.00000000000E+00 0. -1.
         11    1    3    3    0    0  0.22402551641E+02  0.44828221156E+02  0.51522884092E+01  0.50378465716E+02  0.00000000000E+00 0.  1.
         21    1    1    2  502  501  0.12509216576E+02  0.25760403548E+02  0.72337772797E+02  0.77799950280E+02  0.00000000000E+00 0.  1.
<scales pt_clust_5="13000.00000" pt_clust_6="13000.00000" pt_clust_7="13000.00000" pt_clust_8="13000.00000" pt_clust_9="28.63702"></scales>
<clustering>
<clus scale="   28.637">  1  9  2 -1</clus>
<clus scale="   79.896">  5  6 -1 -1</clus>
<clus scale="   92.254">  2  5  1 -1</clus>
<clus scale="   95.715">  7  8 -1 -1</clus>
<clus scale="   92.254">  2  5  1 -1</clus>
</clustering>
</event>
<event>
 9    2  0.5608219E-005  0.1197179E+03  0.7546771E-02  0.1245739E+00
         -1   -1    0    0    0  501 -0.00000000000E+00  0.00000000000E+00  0.38120380612E+03  0.38120380612E+03  0.00000000000E+00 0.  1.
          2   -1    0    0  502    0  0.00000000000E+00 -0.00000000000E+00 -0.43681934767E+03  0.43681934767E+03  0.00000000000E+00 0. -1.
         23    2    1    2    0    0  0.49479047593E+02  0.34015001115E+02  0.22756647505E+03  0.25221426748E+03  0.90666089065E+02 0.  0.
         24    2    1    2    0    0 -0.50058245663E+02 -0.60916126629E+02 -0.41532107767E+03  0.43095808917E+03  0.83765593298E+02 0.  0.
        -13    1    4    4    0    0  0.21155779897E+02 -0.24638538195E+00 -0.89925889813E+02  0.92381239369E+02  0.00000000000E+00 0.  1.
         14    1    4    4    0    0 -0.71214025559E+02 -0.60669741247E+02 -0.32539518786E+03  0.33857684980E+03  0.00000000000E+00 0. -1.
        -13    1    3    3    0    0  0.17924375269E+01 -0.25096004914E+02  0.23323311872E+02  0.34307421524E+02  0.00000000000E+00 0. -1.
         13    1    3    3    0    0  0.47686610066E+02  0.59111006029E+02  0.20424316317E+03  0.21790684596E+03  0.00000000000E+00 0.  1.
         21    1    1    2  502  501  0.57919806959E+00  0.26901125515E+02  0.13213906108E+03  0.13485079713E+03  0.00000000000E+00 0.  1.
<scales pt_clust_5="13000.00000" pt_clust_6="13000.00000" pt_clust_7="13000.00000" pt_clust_8="13000.00000" pt_clust_9="26.90736"></scales>
<clustering>
<clus scale="   26.907">  1  9  2 -1</clus>
<clus scale="   83.766">  5  6 -1 -1</clus>
<clus scale="   90.666">  7  8 -1 -1</clus>
<clus scale="  114.581">  2  5  1 -1</clus>
<clus scale="  114.581">  2  5  1 -1</clus>
</clustering>
</event>
<event>
 9    2  0.5608219E-005  0.1407603E+03  0.7546771E-02  0.1214410E+00
          2   -1    0    0  502    0  0.00000000000E+00  0.00000000000E+00  0.77370360241E+03  0.77370360241E+03  0.00000000000E+00 0. -1.
         -1   -1    0    0    0  501 -0.00000000000E+00 -0.00000000000E+00 -0.55517236789E+02  0.55517236789E+02  0.00000000000E+00 0.  1.
         23    2    1    2    0    0 -0.53150845385E+01  0.75380758603E+02  0.11146119542E+03  0.16260727643E+03  0.91142851466E+02 0.  0.
         24    2    1    2    0    0 -0.70682881688E+02 -0.10307745479E+03  0.54452868396E+03  0.56457827107E+03  0.81339443457E+02 0.  0.
        -13    1    4    4    0    0 -0.56136172710E+02 -0.30799605684E+02  0.14805327513E+03  0.16130609993E+03  0.00000000000E+00 0.  1.
         14    1    4    4    0    0 -0.14546708977E+02 -0.72277849107E+02  0.39647540883E+03  0.40327217114E+03  0.00000000000E+00 0. -1.
        -11    1    3    3    0    0  0.25977079603E+01  0.94675451725E+02  0.75853673223E+02  0.12134236271E+03  0.00000000000E+00 0.  1.
         11    1    3    3    0    0 -0.79127924988E+01 -0.19294693122E+02  0.35607522198E+02  0.41264913727E+02  0.00000000000E+00 0. -1.
         21    1    1    2  502  501  0.75997966226E+02  0.27696696188E+02  0.62196486240E+02  0.10203529169E+03  0.00000000000E+00 0.  1.
<scales pt_clust_5="13000.00000" pt_clust_6="13000.00000" pt_clust_7="13000.00000" pt_clust_8="13000.00000" pt_clust_9="80.88756"></scales>
<clustering>
<clus scale="   80.888">  2  9  1 -1</clus>
<clus scale="   81.339">  5  6 -1 -1</clus>
<clus scale="   91.143">  7  8 -1 -1</clus>
<clus scale="  134.620">  1  5  2 -1</clus>
<clus scale="  134.620">  1  5  2 -1</clus>
</clustering>
</event>
<event>
 9    2  0.5608219E-005  0.1778184E+03  0.7546771E-02  0.1203367E+00
          2   -1    0    0  502    0  0.00000000000E+00  0.00000000000E+00  0.18454985167E+03  0.18454985167E+03  0.00000000000E+00 0. -1.
         -1   -1    0    0    0  501 -0.00000000000E+00 -0.00000000000E+00 -0.43761485660E+03  0.43761485660E+03  0.00000000000E+00 0.  1.
         24    2    1    2    0    0  0.14689222229E+02  0.22870773471E+02 -0.19431352671E+03  0.21192031171E+03  0.80085119234E+02 0.  0.
         23    2    1    2    0    0  0.73364298643E+02  0.12657527172E+03  0.78198488847E+02  0.18924024175E+03  0.91067259288E+02 0.  0.
        -13    1    3    3    0    0  0.18154784969E+02 -0.26651840228E+02 -0.51904456991E+02  0.61106378229E+02  0.00000000000E+00 0.  1.
         14    1    3    3    0    0 -0.34655627399E+01  0.49522613700E+02 -0.14240906972E+03  0.15081393348E+03  0.00000000000E+00 0. -1.
        -11    1    4    4    0    0  0.34370898635E+02  0.73999819900E+02 -0.68947346747E+01  0.81883266816E+02  0.00000000000E+00 0.  1.
         11    1    4    4    0    0  0.38993400008E+02  0.52575451819E+02  0.85093223521E+02  0.10735697494E+03  0.00000000000E+00 0. -1.
         21    1    1    2  502  501 -0.88053520872E+02 -0.14944604519E+03 -0.13694996707E+03  0.22100415480E+03  0.00000000000E+00 0. -1.
<scales pt_clust_5="13000.00000" pt_clust_6="13000.00000" pt_clust_7="13000.00000" pt_clust_8="13000.00000" pt_clust_9="152.72902"></scales>
<clustering>
<clus scale="   80.085">  5  6 -1 -1</clus>
<clus scale="   84.572">  2  5  1 -1</clus>
<clus scale="   91.067">  7  8 -1 -1</clus>
<clus scale="  152.729">  2  9  1 -1</clus>
<clus scale="  177.818">  1  5  2 -1</clus>
</clustering>
</event>
<event>
 9    2  0.5608219E-005  0.9194145E+02  0.7546771E-02  0.1305386E+00
         -1   -1    0    0    0  501 -0.00000000000E+00  0.00000000000E+00  0.11019675701E+03  0.11019675701E+03  0.00000000000E+00 0.  1.
          2   -1    0    0  502    0  0.00000000000E+00 -0.00000000000E+00 -0.60758061417E+03  0.60758061417E+03  0.00000000000E+00 0. -1.
         23    2    1    2    0    0 -0.21004384179E+02  0.27594129587E+02  0.26321817534E+02  0.10062577370E+03  0.90719833066E+02 0.  0.
         24    2    1    2    0    0 -0.14310880716E+02 -0.68517235483E+01 -0.55794999674E+03  0.56376537326E+03  0.79192485782E+02 0.  0.
        -11    1    4    4    0    0  0.17417932219E+02 -0.98424273599E+01 -0.38948662358E+02  0.43786482373E+02  0.00000000000E+00 0.  1.
         12    1    4    4    0    0 -0.31728812935E+02  0.29907038116E+01 -0.51900133438E+03  0.51997889089E+03  0.00000000000E+00 0. -1.
        -13    1    3    3    0    0 -0.40534104502E+02  0.33501413142E+02 -0.14877669832E+02  0.54650739885E+02  0.00000000000E+00 0. -1.
         13    1    3    3    0    0  0.19529720323E+02 -0.59072835548E+01  0.41199487366E+02  0.45975033813E+02  0.00000000000E+00 0.  1.
         21    1    1    2  502  501  0.35315264895E+02 -0.20742406039E+02  0.34244322051E+02  0.53386224212E+02  0.00000000000E+00 0.  1.
<scales pt_clust_5="13000.00000" pt_clust_6="13000.00000" pt_clust_7="13000.00000" pt_clust_8="13000.00000" pt_clust_9="40.95626"></scales>
<clustering>
<clus scale="   40.956">  1  9  2 -1</clus>
<clus scale="   79.192">  5  6 -1 -1</clus>
<clus scale="   80.589">  2  5  1 -1</clus>
<clus scale="   90.720">  7  8 -1 -1</clus>
<clus scale="   80.589">  2  5  1 -1</clus>
</clustering>
</event>
<event>
 9    2  0.5608219E-005  0.8410229E+02  0.7546771E-02  0.1332380E+00
         -1   -1    0    0    0  501 -0.00000000000E+00  0.00000000000E+00  0.18480173323E+03  0.18480173323E+03  0.00000000000E+00 0.  1.
          2   -1    0    0  502    0  0.00000000000E+00 -0.00000000000E+00 -0.18306796482E+03  0.18306796482E+03  0.00000000000E+00 0. -1.
         24    2    1    2    0    0 -0.50641022348E+02 -0.32076437077E+02  0.16180111666E+02  0.10412404570E+03  0.83585943307E+02 0.  0.
         23    2    1    2    0    0  0.37386054329E+01 -0.23802034785E+01 -0.12397447271E+03  0.13971538212E+03  0.64273443812E+02 0.  0.
        -11    1    3    3    0    0  0.16925799904E+02 -0.29960902957E+02 -0.81325899271E+00  0.34420920943E+02  0.00000000000E+00 0.  1.
         12    1    3    3    0    0 -0.67566822252E+02 -0.21155341192E+01  0.16993370659E+02  0.69703124752E+02  0.00000000000E+00 0. -1.
        -13    1    4    4    0    0  0.12993498058E+02 -0.24264146083E+02 -0.10708010291E+03  0.11056097058E+03  0.00000000000E+00 0.  1.
         13    1    4    4    0    0 -0.92548926255E+01  0.21883942605E+02 -0.16894369800E+02  0.29154411542E+02  0.00000000000E+00 0. -1.
         21    1    1    2  502  501  0.46902416915E+02  0.34456640555E+02  0.10952812945E+03  0.12403027023E+03  0.00000000000E+00 0.  1.
<scales pt_clust_5="13000.00000" pt_clust_6="13000.00000" pt_clust_7="13000.00000" pt_clust_8="13000.00000" pt_clust_9="58.19877"></scales>
<clustering>
<clus scale="   58.199">  1  9  2 -1</clus>
<clus scale="   64.273">  7  8 -1 -1</clus>
<clus scale="   64.944">  2  7  1 -1</clus>
<clus scale="   83.586">  5  6 -1 -1</clus>
<clus scale="   64.944">  2  5  1 -1</clus>
</clustering>
</event>
<event>
 9    2  0.5608219E-005  0.2043908E+03  0.7546771E-02  0.1147052E+00
          2   -1    0    0  502    0  0.00000000000E+00  0.00000000000E+00  0.19893965208E+04  0.19893965208E+04  0.00000000000E+00 0. -1.
         -1   -1    0    0    0  501 -0.00000000000E+00 -0.00000000000E+00 -0.31561642390E+02  0.31561642390E+02  0.00000000000E+00 0.  1.
         23    2    1    2    0    0 -0.15664891029E+03  0.14430486209E+03  0.82513568682E+03  0.85688813874E+03  0.89697303939E+02 0.  0.
         24    2    1    2    0    0  0.14562420549E+03 -0.86671423890E+02  0.10205226355E+04  0.10374732747E+04  0.78523889231E+02 0.  0.
        -13    1    4    4    0    0  0.18749100986E+02 -0.32670356548E+02  0.10349496615E+03  0.11013668327E+03  0.00000000000E+00 0.  1.
         14    1    4    4    0    0  0.12687510451E+03 -0.54001067343E+02  0.91702766934E+03  0.92733659141E+03  0.00000000000E+00 0. -1.
        -13    1    3    3    0    0 -0.64364333234E+02  0.78274004660E+02  0.23464651455E+03  0.25559454999E+03  0.00000000000E+00 0.  1.
         13    1    3    3    0    0 -0.92284577054E+02  0.66030857429E+02  0.59048917228E+03  0.60129358875E+03  0.00000000000E+00 0. -1.
         21    1    1    2  502  501  0.11024704796E+02 -0.57633438199E+02  0.11217655611E+03  0.12659674978E+03  0.00000000000E+00 0. -1.
<scales pt_clust_5="13000.00000" pt_clust_6="13000.00000" pt_clust_7="13000.00000" pt_clust_8="13000.00000" pt_clust_9="58.67842"></scales>
<clustering>
<clus scale="   58.678">  2  9  1 -1</clus>
<clus scale="   78.524">  5  6 -1 -1</clus>
<clus scale="   89.697">  7  8 -1 -1</clus>
<clus scale="  199.740">  1  5  2 -1</clus>
<clus scale="  199.740">  1  5  2 -1</clus>
</clustering>
</event>
<event>
 9    2  0.5608219E-005  0.9285982E+02  0.7546771E-02  0.1298452E+00
          2   -1    0    0  502    0  0.00000000000E+00  0.00000000000E+00  0.45643913617E+03  0.45643913617E+03  0.00000000000E+00 0. -1.
         -1   -1    0    0    0  501 -0.00000000000E+00 -0.00000000000E+00 -0.53980009553E+02  0.53980009553E+02  0.00000000000E+00 0.  1.
         23    2    1    2    0    0 -0.31822559722E+02  0.40703307994E+02  0.15447148964E+02  0.10250178405E+03  0.87169758131E+02 0.  0.
         24    2    1    2    0    0  0.21012515526E+02 -0.20989535997E+02  0.36826281375E+03  0.37864244052E+03  0.82888547680E+02 0.  0.
        -11    1    4    4    0    0  0.51596543138E+02 -0.12981517316E+01  0.22291902374E+03  0.22881603879E+03  0.00000000000E+00 0.  1.
         12    1    4    4    0    0 -0.30584027612E+02 -0.19691384265E+02  0.14534379001E+03  0.14982640173E+03  0.00000000000E+00 0. -1.
        -11    1    3    3    0    0  0.19351240610E+02 -0.15577612393E+02 -0.19262726695E+00  0.24842898910E+02  0.00000000000E+00 0. -1.
         11    1    3    3    0    0 -0.51173800332E+02  0.56280920387E+02  0.15639776231E+02  0.77658885136E+02  0.00000000000E+00 0.  1.
         21    1    1    2  502  501  0.10810044196E+02 -0.19713771998E+02  0.18749163895E+02  0.29274921156E+02  0.00000000000E+00 0. -1.
<scales pt_clust_5="13000.00000" pt_clust_6="13000.00000" pt_clust_7="13000.00000" pt_clust_8="13000.00000" pt_clust_9="22.48310"></scales>
<clustering>
<clus scale="   22.483">  2  9  1 -1</clus>
<clus scale="   82.889">  5  6 -1 -1</clus>
<clus scale="   87.170">  7  8 -1 -1</clus>
<clus scale="   88.853">  1  5  2 -1</clus>
<clus scale="   88.853">  1  5  2 -1</clus>
</clustering>
</event>
<event>
 9    2  0.5608219E-005  0.1108446E+03  0.7546771E-02  0.1263757E+00
          2   -1    0    0  502    0  0.00000000000E+00  0.00000000000E+00  0.22117597246E+03  0.22117597246E+03  0.00000000000E+00 0. -1.
         -1   -1    0    0    0  501 -0.00000000000E+00 -0.00000000000E+00 -0.23969866675E+03  0.23969866675E+03  0.00000000000E+00 0.  1.
         23    2    1    2    0    0 -0.16480892523E+02 -0.63397324358E+02 -0.20418650904E+03  0.23311654414E+03  0.91434961165E+02 0.  0.
         24    2    1    2    0    0  0.35223898629E+02  0.26874290439E+02  0.12352027661E+03  0.15327956381E+03  0.79211207712E+02 0.  0.
        -13    1    4    4    0    0  0.51024820403E+02 -0.69387071090E+01  0.86775991624E+02  0.10090466132E+03  0.00000000000E+00 0.  1.
         14    1    4    4    0    0 -0.15800921773E+02  0.33812997548E+02  0.36744284987E+02  0.52374902494E+02  0.00000000000E+00 0. -1.
        -11    1    3    3    0    0  0.27028468429E+02  0.62589802019E+01 -0.32040040817E+02  0.42382510005E+02  0.00000000000E+00 0. -1.
         11    1    3    3    0    0 -0.43509360951E+02 -0.69656304560E+02 -0.17214646822E+03  0.19073403413E+03  0.00000000000E+00 0.  1.
         21    1    1    2  502  501 -0.18743006106E+02  0.36523033919E+02  0.62143538146E+02  0.74478531255E+02  0.00000000000E+00 0. -1.
<scales pt_clust_5="13000.00000" pt_clust_6="13000.00000" pt_clust_7="13000.00000" pt_clust_8="13000.00000" pt_clust_9="41.05158"></scales>
<clustering>
<clus scale="   41.052">  1  9  2 -1</clus>
<clus scale="   79.211">  5  6 -1 -1</clus>
<clus scale="   91.435">  7  8 -1 -1</clus>
<clus scale="  100.998">  1  5  2 -1</clus>
<clus scale="   41.052">  1  5  2 -1</clus>
</clustering>
</event>
<event>
 9    2  0.5608219E-005  0.9225055E+02  0.7546771E-02  0.1303709E+00
          4   -1    0    0  502    0  0.00000000000E+00  0.00000000000E+00  0.12116056388E+03  0.12116056388E+03  0.00000000000E+00 0. -1.
         -3   -1    0    0    0  501 -0.00000000000E+00 -0.00000000000E+00 -0.10426805870E+03  0.10426805870E+03  0.00000000000E+00 0.  1.
         24    2    1    2    0    0 -0.32158671309E+00  0.19898107155E+02 -0.37493372341E+02  0.91697119576E+02  0.81280813743E+02 0.  0.
         23    2    1    2    0    0 -0.14928116849E+02 -0.19079932407E+01  0.58863246724E+02  0.10972640996E+03  0.91370203662E+02 0.  0.
        -11    1    3    3    0    0 -0.22798774253E+02  0.44659507127E+02 -0.20315762365E+02  0.54101625528E+02  0.00000000000E+00 0.  1.
         12    1    3    3    0    0  0.22477187540E+02 -0.24761399972E+02 -0.17177609976E+02  0.37595494048E+02  0.00000000000E+00 0. -1.
        -11    1    4    4    0    0 -0.14618936212E+02 -0.28658709619E+02 -0.11722448885E+02  0.34241068045E+02  0.00000000000E+00 0.  1.
         11    1    4    4    0    0 -0.30918063638E+00  0.26750716378E+02  0.70585695610E+02  0.75485341916E+02  0.00000000000E+00 0. -1.
         21    1    1    2  502  501  0.15249703562E+02 -0.17990113914E+02 -0.44773692039E+01  0.24005093050E+02  0.00000000000E+00 0.  1.
<scales pt_clust_5="13000.00000" pt_clust_6="13000.00000" pt_clust_7="13000.00000" pt_clust_8="13000.00000" pt_clust_9="23.58384"></scales>
<clustering>
<clus scale="   23.584">  2  9  1 -1</clus>
<clus scale="   81.281">  5  6 -1 -1</clus>
<clus scale="   82.269">  2  5  1 -1</clus>
<clus scale="   91.370">  7  8 -1 -1</clus>
<clus scale="   92.251">  1  5  2 -1</clus>
</clustering>
</event>
<event>
 9    2  0.5608219E-005  0.1051945E+03  0.7546771E-02  0.1276018E+00
          2   -1    0    0  502    0  0.00000000000E+00  0.00000000000E+00  0.26020039847E+03  0.26020039847E+03  0.00000000000E+00 0. -1.
         -1   -1    0    0    0  501 -0.00000000000E+00 -0.00000000000E+00 -0.15165190447E+03  0.15165190447E+03  0.00000000000E+00 0.  1.
         24    2    1    2    0    0 -0.38364589230E+02  0.34132857602E+02 -0.10814447815E+03  0.14384865256E+03  0.79751570607E+02 0.  0.
         23    2    1    2    0    0  0.33570125502E+01 -0.12734172954E+02  0.20444419964E+03  0.22518465274E+03  0.93473356472E+02 0.  0.
        -13    1    3    3    0    0 -0.33018646679E+02  0.59742027518E+02 -0.84112825687E+02  0.10832501246E+03  0.00000000000E+00 0.  1.
         14    1    3    3    0    0 -0.53459425512E+01 -0.25609169916E+02 -0.24031652468E+02  0.35523640099E+02  0.00000000000E+00 0. -1.
        -13    1    4    4    0    0  0.46346938488E+02  0.44077962058E+01  0.82137005009E+02  0.94413743526E+02  0.00000000000E+00 0.  1.
         13    1    4    4    0    0 -0.42989925938E+02 -0.17141969160E+02  0.12230719463E+03  0.13077090922E+03  0.00000000000E+00 0. -1.
         21    1    1    2  502  501  0.35007576680E+02 -0.21398684647E+02  0.12248772509E+02  0.42818997625E+02  0.00000000000E+00 0.  1.
<scales pt_clust_5="13000.00000" pt_clust_6="13000.00000" pt_clust_7="13000.00000" pt_clust_8="13000.00000" pt_clust_9="41.02967"></scales>
<clustering>
<clus scale="   41.030">  1  9  2 -1</clus>
<clus scale="   79.752">  5  6 -1 -1</clus>
<clus scale="   93.214">  2  5  1 -1</clus>
<clus scale="   93.473">  7  8 -1 -1</clus>
<clus scale="   41.030">  1  5  2 -1</clus>
</clustering>
</event>
<event>
 9    2  0.5608219E-005  0.1174078E+03  0.7546771E-02  0.1252163E+00
         -1   -1    0    0    0  501 -0.00000000000E+00  0.00000000000E+00  0.77848638363E+02  0.77848638363E+02  0.00000000000E+00 0.  1.
          2   -1    0    0  502    0  0.00000000000E+00 -0.00000000000E+00 -0.36935577954E+03  0.36935577954E+03  0.00000000000E+00 0. -1.
         24    2    1    2    0    0  0.31899977726E+02  0.99590647295E+02 -0.83899962810E+02  0.15504740589E+03  0.77875469219E+02 0.  0.
         23    2    1    2    0    0  0.40777354868E+02 -0.56301840037E+02 -0.15280766573E+03  0.19136563296E+03  0.91858221790E+02 0.  0.
        -11    1    3    3    0    0 -0.21649747218E+02  0.62000223792E+01 -0.17950140507E+02  0.28798600250E+02  0.00000000000E+00 0.  1.
         12    1    3    3    0    0  0.53549724944E+02  0.93390624916E+02 -0.65949822302E+02  0.12624880564E+03  0.00000000000E+00 0. -1.
        -13    1    4    4    0    0 -0.26986003931E+02 -0.22843930200E+02 -0.74900104781E+02  0.82825812711E+02  0.00000000000E+00 0. -1.
         13    1    4    4    0    0  0.67763358799E+02 -0.33457909837E+02 -0.77907560947E+02  0.10853982025E+03  0.00000000000E+00 0.  1.
         21    1    1    2  502  501 -0.72677332595E+02 -0.43288807258E+02 -0.54799512643E+02  0.10079137906E+03  0.00000000000E+00 0. -1.
<scales pt_clust_5="13000.00000" pt_clust_6="13000.00000" pt_clust_7="13000.00000" pt_clust_8="13000.00000" pt_clust_9="84.59264"></scales>
<clustering>
<clus scale="   77.875">  5  6 -1 -1</clus>
<clus scale="   84.593">  1  9  2 -1</clus>
<clus scale="   91.858">  7  8 -1 -1</clus>
<clus scale="  106.823">  1  5  2 -1</clus>
<clus scale="  117.408">  2  5  1 -1</clus>
</clustering>
</event>
<event>
 9    2  0.5608219E-005  0.1269262E+03  0.7546771E-02  0.1253573E+00
          4   -1    0    0  502    0  0.00000000000E+00  0.00000000000E+00  0.43211452400E+03  0.43211452400E+03  0.00000000000E+00 0. -1.
         -3   -1    0    0    0  501 -0.00000000000E+00 -0.00000000000E+00 -0.13863312474E+03  0.13863312474E+03  0.00000000000E+00 0.  1.
         24    2    1    2    0    0 -0.27902353413E+02 -0.17888490612E+02 -0.98024534090E+01  0.82792229094E+02  0.75232477582E+02 0.  0.
         23    2    1    2    0    0 -0.40891997922E+02  0.84309685000E+02  0.35650180095E+03  0.37851782164E+03  0.86034462514E+02 0.  0.
        -11    1    3    3    0    0 -0.47604012089E+02 -0.26204938625E+02 -0.21474307254E+02  0.58429330369E+02  0.00000000000E+00 0.  1.
         12    1    3    3    0    0  0.19701658676E+02  0.83164480130E+01  0.11671853845E+02  0.24362898725E+02  0.00000000000E+00 0. -1.
        -11    1    4    4    0    0 -0.36932811281E+02 -0.94429160919E+00  0.16125035182E+03  0.16542853501E+03  0.00000000000E+00 0.  1.
         11    1    4    4    0    0 -0.39591866418E+01  0.85253976609E+02  0.19525144913E+03  0.21308928663E+03  0.00000000000E+00 0. -1.
         21    1    1    2  502  501  0.68794351335E+02 -0.66421194388E+02 -0.53217948275E+02  0.10943759801E+03  0.00000000000E+00 0.  1.
<scales pt_clust_5="13000.00000" pt_clust_6="13000.00000" pt_clust_7="13000.00000" pt_clust_8="13000.00000" pt_clust_9="93.31849"></scales>
<clustering>
<clus scale="   75.232">  5  6 -1 -1</clus>
<clus scale="   82.210">  2  5  1 -1</clus>
<clus scale="   86.034">  7  8 -1 -1</clus>
<clus scale="   93.318">  2  9  1 -1</clus>
<clus scale="  126.926">  1  5  2 -1</clus>
</clustering>
</event>
<event>
 9    2  0.5608219E-005  0.9416209E+02  0.7546771E-02  0.1297262E+00
         -1   -1    0    0    0  501 -0.00000000000E+00  0.00000000000E+00  0.36943507526E+03  0.36943507526E+03  0.00000000000E+00 0.  1.
          2   -1    0    0  502    0  0.00000000000E+00 -0.00000000000E+00 -0.11836820048E+03  0.11836820048E+03  0.00000000000E+00 0. -1.
         24    2    1    2    0    0 -0.38423872769E+02  0.55696492635E+02  0.29754196409E+03  0.31572622639E+03  0.81076114511E+02 0.  0.
         23    2    1    2    0    0  0.20715364692E+02 -0.20849274082E+02 -0.78165629705E+02  0.12175597773E+03  0.88604931478E+02 0.  0.
        -13    1    3    3    0    0 -0.47636602038E+02  0.38469107819E+02  0.28713543889E+03  0.29359134589E+03  0.00000000000E+00 0.  1.
         14    1    3    3    0    0  0.92127292689E+01  0.17227384816E+02  0.10406525195E+02  0.22134880502E+02  0.00000000000E+00 0. -1.
        -11    1    4    4    0    0 -0.30006101185E+02 -0.28404987509E+02 -0.27273985727E+02  0.49508380313E+02  0.00000000000E+00 0.  1.
         11    1    4    4    0    0  0.50721465877E+02  0.75557134270E+01 -0.50891643978E+02  0.72247597420E+02  0.00000000000E+00 0. -1.
         21    1    1    2  502  501  0.17708508077E+02 -0.34847218553E+02  0.31690540394E+02  0.50321071627E+02  0.00000000000E+00 0. -1.
<scales pt_clust_5="13000.00000" pt_clust_6="13000.00000" pt_clust_7="13000.00000" pt_clust_8="13000.00000" pt_clust_9="39.08862"></scales>
<clustering>
<clus scale="   39.089">  1  9  2 -1</clus>
<clus scale="   81.076">  5  6 -1 -1</clus>
<clus scale="   87.115">  1  5  2 -1</clus>
<clus scale="   88.605">  7  8 -1 -1</clus>
<clus scale="   94.162">  2  5  1 -1</clus>
</clustering>
</event>
<event>
 9    2  0.5608219E-005  0.1065414E+03  0.7546771E-02  0.1271586E+00
         -1   -1    0    0    0  501 -0.00000000000E+00  0.00000000000E+00  0.98736141717E+02  0.98736141717E+02  0.00000000000E+00 0.  1.
          2   -1    0    0  502    0  0.00000000000E+00 -0.00000000000E+00 -0.32053573582E+03  0.32053573582E+03  0.00000000000E+00 0. -1.
         23    2    1    2    0    0  0.37186926884E+02 -0.60315229237E+02  0.41039904049E+02  0.12270763915E+03  0.91389805629E+02 0.  0.
         24    2    1    2    0    0 -0.36994887517E+02  0.38200008178E+02 -0.25555105933E+03  0.27327816482E+03  0.80911983748E+02 0.  0.
        -13    1    4    4    0    0  0.81264525450E+01 -0.19504789430E+02 -0.86419867259E+02  0.88965552315E+02  0.00000000000E+00 0.  1.
         14    1    4    4    0    0 -0.45121340062E+02  0.57704797608E+02 -0.16913119207E+03  0.18431261250E+03  0.00000000000E+00 0. -1.
        -13    1    3    3    0    0  0.66266468940E+02 -0.27369002232E+02  0.25726539519E+02  0.76171924122E+02  0.00000000000E+00 0.  1.
         13    1    3    3    0    0 -0.29079542056E+02 -0.32946227005E+02  0.15313364531E+02  0.46535715029E+02  0.00000000000E+00 0. -1.
         21    1    1    2  502  501 -0.19203936690E+00  0.22115221059E+02 -0.72884388183E+01  0.23286073564E+02  0.00000000000E+00 0. -1.
<scales pt_clust_5="13000.00000" pt_clust_6="13000.00000" pt_clust_7="13000.00000" pt_clust_8="13000.00000" pt_clust_9="22.11605"></scales>
<clustering>
<clus scale="   22.116">  1  9  2 -1</clus>
<clus scale="   80.912">  5  6 -1 -1</clus>
<clus scale="   91.390">  7  8 -1 -1</clus>
<clus scale="   97.702">  2  5  1 -1</clus>
<clus scale="   97.702">  2  5  1 -1</clus>
</clustering>
</event>
<event>
 9    2  0.5608219E-005  0.1616477E+03  0.7546771E-02  0.1189137E+00
         -1   -1    0    0    0  501 -0.00000000000E+00  0.00000000000E+00  0.48181932284E+02  0.48181932284E+02  0.00000000000E+00 0.  1.
          2   -1    0    0  502    0  0.00000000000E+00 -0.00000000000E+00 -0.88012973873E+03  0.88012973873E+03  0.00000000000E+00 0. -1.
         23    2    1    2    0    0 -0.35270364550E+02 -0.13359710367E+03 -0.14896061364E+03  0.22398081358E+03  0.94265347360E+02 0.  0.
         24    2    1    2    0    0  0.15232955964E+02  0.10835938760E+03 -0.60455525181E+03  0.61953693417E+03  0.79781955808E+02 0.  0.
        -13    1    4    4    0    0 -0.94220054495E+01  0.78269912622E+02 -0.23352216882E+03  0.24647019442E+03  0.00000000000E+00 0.  1.
         14    1    4    4    0    0  0.24654961414E+02  0.30089474977E+02 -0.37103308300E+03  0.37306673975E+03  0.00000000000E+00 0. -1.
        -11    1    3    3    0    0  0.17856594345E+01 -0.97639568491E+02 -0.44212885129E+02  0.10719819554E+03  0.00000000000E+00 0.  1.
         11    1    3    3    0    0 -0.37056023984E+02 -0.35957535175E+02 -0.10474772851E+03  0.11678261804E+03  0.00000000000E+00 0. -1.
         21    1    1    2  502  501  0.20037408586E+02  0.25237716067E+02 -0.78431940998E+02  0.84793923271E+02  0.00000000000E+00 0. -1.
<scales pt_clust_5="13000.00000" pt_clust_6="13000.00000" pt_clust_7="13000.00000" pt_clust_8="13000.00000" pt_clust_9="32.22484"></scales>
<clustering>
<clus scale="   32.225">  2  9  1 -1</clus>
<clus scale="   79.782">  5  6 -1 -1</clus>
<clus scale="   94.265">  7  8 -1 -1</clus>
<clus scale="  153.653">  2  5  1 -1</clus>
<clus scale="   32.225">  2  5  1 -1</clus>
</clustering>
</event>
<event>
 9    2  0.5608219E-005  0.9969033E+02  0.7546771E-02  0.1286507E+00
         -1   -1    0    0    0  501 -0.00000000000E+00  0.00000000000E+00  0.84335854889E+02  0.84335854889E+02  0.00000000000E+00 0.  1.
          2   -1    0    0  502    0  0.00000000000E+00 -0.00000000000E+00 -0.20685806173E+03  0.20685806173E+03  0.00000000000E+00 0. -1.
         24    2    1    2    0    0 -0.31920221786E+02  0.46364779502E+02 -0.52613023214E+01  0.97206992233E+02  0.79075436766E+02 0.  0.
         23    2    1    2    0    0  0.93167007663E+01 -0.37249215753E+02 -0.13280921951E+03  0.16507736257E+03  0.90210541830E+02 0.  0.
        -13    1    3    3    0    0 -0.18508301799E+02  0.20233829418E+02  0.36807357328E+02  0.45899309819E+02  0.00000000000E+00 0.  1.
         14    1    3    3    0    0 -0.13411919986E+02  0.26130950084E+02 -0.42068659649E+02  0.51307682414E+02  0.00000000000E+00 0. -1.
        -13    1    4    4    0    0  0.27343925531E+02 -0.65743113219E+01 -0.56331473701E+00  0.28128795855E+02  0.00000000000E+00 0.  1.
         13    1    4    4    0    0 -0.18027224764E+02 -0.30674904431E+02 -0.13224590478E+03  0.13694856671E+03  0.00000000000E+00 0. -1.
         21    1    1    2  502  501  0.22603521020E+02 -0.91155637497E+01  0.15548314998E+02  0.28909561813E+02  0.00000000000E+00 0.  1.
<scales pt_clust_5="13000.00000" pt_clust_6="13000.00000" pt_clust_7="13000.00000" pt_clust_8="13000.00000" pt_clust_9="24.37238"></scales>
<clustering>
<clus scale="   24.372">  1  9  2 -1</clus>
<clus scale="   79.075">  5  6 -1 -1</clus>
<clus scale="   89.739">  1  5  2 -1</clus>
<clus scale="   90.211">  7  8 -1 -1</clus>
<clus scale="   99.690">  2  5  1 -1</clus>
</clustering>
</event>
<event>
 9    2  0.5608219E-005  0.1035564E+03  0.7546771E-02  0.1282490E+00
          2   -1    0    0  502    0  0.00000000000E+00  0.00000000000E+00  0.48597285054E+03  0.48597285054E+03  0.00000000000E+00 0. -1.
         -1   -1    0    0    0  501 -0.00000000000E+00 -0.00000000000E+00 -0.73428702567E+02  0.73428702567E+02  0.00000000000E+00 0.  1.
         24    2    1    2    0    0 -0.21486704803E+01 -0.26557090216E+02  0.75473374443E+02  0.11463454437E+03  0.82066757509E+02 0.  0.
         23    2    1    2    0    0  0.21611604057E+02  0.19407216796E+02  0.38165107664E+03  0.39560065948E+03  0.99993179688E+02 0.  0.
        -13    1    3    3    0    0 -0.29128752755E+02 -0.40690953765E+02  0.65820326235E+02  0.82683452402E+02  0.00000000000E+00 0.  1.
         14    1    3    3    0    0  0.26980082275E+02  0.14133863549E+02  0.96530482073E+01  0.31951091970E+02  0.00000000000E+00 0. -1.
        -11    1    4    4    0    0  0.51404914444E+02 -0.12085114089E+02  0.28239895095E+03  0.28729372201E+03  0.00000000000E+00 0. -1.
         11    1    4    4    0    0 -0.29793310387E+02  0.31492330885E+02  0.99252125696E+02  0.10830693747E+03  0.00000000000E+00 0.  1.
         21    1    1    2  502  501 -0.19462933577E+02  0.71498734200E+01 -0.44580303114E+02  0.49166349255E+02  0.00000000000E+00 0.  1.
<scales pt_clust_5="13000.00000" pt_clust_6="13000.00000" pt_clust_7="13000.00000" pt_clust_8="13000.00000" pt_clust_9="20.73467"></scales>
<clustering>
<clus scale="   20.735">  2  9  1 -1</clus>
<clus scale="   82.067">  5  6 -1 -1</clus>
<clus scale="   86.373">  2  5  1 -1</clus>
<clus scale="   99.993">  7  8 -1 -1</clus>
<clus scale="  103.556">  1  5  2 -1</clus>
</clustering>
</event>
<event>
 9    2  0.5608219E-005  0.1027035E+03  0.7546771E-02  0.1277947E+00
          2   -1    0    0  502    0  0.00000000000E+00  0.00000000000E+00  0.58117872974E+03  0.58117872974E+03  0.00000000000E+00 0. -1.
         -1   -1    0    0    0  501 -0.00000000000E+00 -0.00000000000E+00 -0.36553018042E+02  0.36553018042E+02  0.00000000000E+00 0.  1.
         24    2    1    2    0    0  0.30469439890E+02  0.18178069803E+02  0.43049621567E+02  0.97916068162E+02  0.80470227403E+02 0.  0.
         23    2    1    2    0    0 -0.48317547704E+02 -0.30371904024E+02  0.47019409749E+03  0.48170959076E+03  0.87775865431E+02 0.  0.
        -11    1    3    3    0    0  0.23173763726E+02  0.36221241890E+02 -0.75904332406E+01  0.43664818402E+02  0.00000000000E+00 0.  1.
         12    1    3    3    0    0  0.72956761634E+01 -0.18043172087E+02  0.50640054807E+02  0.54251249760E+02  0.00000000000E+00 0. -1.
        -11    1    4    4    0    0  0.22190191719E+02 -0.15777510387E+02  0.70366521821E+02  0.75450525748E+02  0.00000000000E+00 0. -1.
         11    1    4    4    0    0 -0.70507739424E+02 -0.14594393637E+02  0.39982757567E+03  0.40625906502E+03  0.00000000000E+00 0.  1.
         21    1    1    2  502  501  0.17848107815E+02  0.12193834221E+02  0.31381992649E+02  0.38106088860E+02  0.00000000000E+00 0. -1.
<scales pt_clust_5="13000.00000" pt_clust_6="13000.00000" pt_clust_7="13000.00000" pt_clust_8="13000.00000" pt_clust_9="21.61584"></scales>
<clustering>
<clus scale="   21.616">  2  9  1 -1</clus>
<clus scale="   80.470">  5  6 -1 -1</clus>
<clus scale="   87.776">  7  8 -1 -1</clus>
<clus scale="   96.534">  2  5  1 -1</clus>
<clus scale="  102.704">  1  5  2 -1</clus>
</clustering>
</event>
<event>
 9    2  0.5608219E-005  0.1191499E+03  0.7546771E-02  0.1248531E+00
          2   -1    0    0  502    0  0.00000000000E+00  0.00000000000E+00  0.17394497229E+03  0.17394497229E+03  0.00000000000E+00 0. -1.
         -1   -1    0    0    0  501 -0.00000000000E+00 -0.00000000000E+00 -0.21876427493E+03  0.21876427493E+03  0.00000000000E+00 0.  1.
         24    2    1    2    0    0  0.32489790873E+02  0.54691169871E+02 -0.13614910323E+03  0.16978418839E+03  0.79015072908E+02 0.  0.
         23    2    1    2    0    0 -0.25793885284E+02 -0.74153519915E+02  0.13113605942E+03  0.17811260002E+03  0.91451425202E+02 0.  0.
        -13    1    3    3    0    0  0.26517211794E+02  0.53605499667E+02 -0.14624657849E+03  0.15800244883E+03  0.00000000000E+00 0.  1.
         14    1    3    3    0    0  0.59725790788E+01  0.10856702040E+01  0.10097475260E+02  0.11781739569E+02  0.00000000000E+00 0. -1.
        -13    1    4    4    0    0  0.20560102518E+02 -0.57828026602E+02  0.10701975696E+03  0.12336947295E+03  0.00000000000E+00 0. -1.
         13    1    4    4    0    0 -0.46353987802E+02 -0.16325493314E+02  0.24116302464E+02  0.54743127072E+02  0.00000000000E+00 0.  1.
         21    1    1    2  502  501 -0.66959055884E+01  0.19462350044E+02 -0.39806258843E+02  0.44812458803E+02  0.00000000000E+00 0. -1.
<scales pt_clust_5="13000.00000" pt_clust_6="13000.00000" pt_clust_7="13000.00000" pt_clust_8="13000.00000" pt_clust_9="20.58199"></scales>
<clustering>
<clus scale="   20.582">  2  9  1 -1</clus>
<clus scale="   79.015">  5  6 -1 -1</clus>
<clus scale="   91.451">  7  8 -1 -1</clus>
<clus scale="  109.894">  2  5  1 -1</clus>
<clus scale="  119.150">  1  5  2 -1</clus>
</clustering>
</event>
<event>
 9    2  0.5608219E-005  0.3570839E+03  0.7546771E-02  0.1059992E+00
          2   -1    0    0  502    0  0.00000000000E+00  0.00000000000E+00  0.89856977613E+03  0.89856977613E+03  0.00000000000E+00 0. -1.
         -1   -1    0    0    0  501 -0.00000000000E+00 -0.00000000000E+00 -0.17296883799E+03  0.17296883799E+03  0.00000000000E+00 0.  1.
         23    2    1    2    0    0 -0.28885579821E+03 -0.19709281202E+03  0.19051606248E+03  0.40822594227E+03  0.89826505954E+02 0.  0.
         24    2    1    2    0    0  0.29909682738E+03  0.16986684530E+03  0.52473571030E+03  0.63243813273E+03  0.79478102534E+02 0.  0.
        -13    1    4    4    0    0  0.19357342716E+03  0.13351768842E+03  0.29698650292E+03  0.37881212723E+03  0.00000000000E+00 0.  1.
         14    1    4    4    0    0  0.10552340022E+03  0.36349156883E+02  0.22774920738E+03  0.25362600550E+03  0.00000000000E+00 0. -1.
        -13    1    3    3    0    0 -0.23813422745E+02 -0.10641823646E+02  0.47129557462E+02  0.53865784130E+02  0.00000000000E+00 0.  1.
         13    1    3    3    0    0 -0.26504237546E+03 -0.18645098837E+03  0.14338650502E+03  0.35436015814E+03  0.00000000000E+00 0. -1.
         21    1    1    2  502  501 -0.10241029175E+02  0.27225966715E+02  0.10349165357E+02  0.30874539117E+02  0.00000000000E+00 0.  1.
<scales pt_clust_5="13000.00000" pt_clust_6="13000.00000" pt_clust_7="13000.00000" pt_clust_8="13000.00000" pt_clust_9="29.08835"></scales>
<clustering>
<clus scale="   29.088">  2  9  1 -1</clus>
<clus scale="   79.478">  5  6 -1 -1</clus>
<clus scale="   89.827">  7  8 -1 -1</clus>
<clus scale="  354.622">  1  5  2 -1</clus>
<clus scale="  354.622">  1  5  2 -1</clus>
</clustering>
</event>
<event>
 9    2  0.5608219E-005  0.1360852E+03  0.7546771E-02  0.1221715E+00
          2   -1    0    0  502    0  0.00000000000E+00  0.00000000000E+00  0.64672003433E+03  0.64672003433E+03  0.00000000000E+00 0. -1.
         -1   -1    0    0    0  501 -0.00000000000E+00 -0.00000000000E+00 -0.72897656387E+02  0.72897656387E+02  0.00000000000E+00 0.  1.
         23    2    1    2    0    0  0.94597941863E+02  0.60324798197E+01  0.18462131439E+02  0.13454901754E+03  0.93687920280E+02 0.  0.
         24    2    1    2    0    0 -0.12482230652E+03 -0.62442047750E+01  0.50315052129E+03  0.52474113011E+03  0.81075324531E+02 0.  0.
        -13    1    4    4    0    0 -0.13616409187E+03 -0.80646501975E+01  0.44378615489E+03  0.46427561832E+03  0.00000000000E+00 0.  1.
         14    1    4    4    0    0  0.11341785351E+02  0.18204454226E+01  0.59364366405E+02  0.60465511782E+02  0.00000000000E+00 0. -1.
        -11    1    3    3    0    0  0.32619254045E+02 -0.40367453525E+02  0.23479982027E+02  0.56963642742E+02  0.00000000000E+00 0. -1.
         11    1    3    3    0    0  0.61978687818E+02  0.46399933344E+02 -0.50178505877E+01  0.77585374798E+02  0.00000000000E+00 0.  1.
         21    1    1    2  502  501  0.30224364659E+02  0.21172495527E+00  0.52209725209E+02  0.60327543071E+02  0.00000000000E+00 0.  1.
<scales pt_clust_5="13000.00000" pt_clust_6="13000.00000" pt_clust_7="13000.00000" pt_clust_8="13000.00000" pt_clust_9="30.22511"></scales>
<clustering>
<clus scale="   30.225">  1  9  2 -1</clus>
<clus scale="   81.075">  5  6 -1 -1</clus>
<clus scale="   93.688">  7  8 -1 -1</clus>
<clus scale="  127.730">  1  5  2 -1</clus>
<clus scale="   30.225">  1  5  2 -1</clus>
</clustering>
</event>
<event>
 9    2  0.5608219E-005  0.1042300E+03  0.7546771E-02  0.1275722E+00
         -1   -1    0    0    0  501 -0.00000000000E+00  0.00000000000E+00  0.46076121842E+02  0.46076121842E+02  0.00000000000E+00 0.  1.
          2   -1    0    0  502    0  0.00000000000E+00 -0.00000000000E+00 -0.57086386076E+03  0.57086386076E+03  0.00000000000E+00 0. -1.
         23    2    1    2    0    0 -0.50480184307E+01  0.61696490451E+02 -0.12801954818E+03  0.16938865107E+03  0.92041137387E+02 0.  0.
         24    2    1    2    0    0  0.14757656458E+02 -0.43443130109E+02 -0.41141659030E+03  0.42221286583E+03  0.83036132607E+02 0.  0.
        -11    1    4    4    0    0  0.25346251678E+01  0.20894300835E+02 -0.41371832297E+02  0.46417934462E+02  0.00000000000E+00 0.  1.
         12    1    4    4    0    0  0.12223031290E+02 -0.64337430944E+02 -0.37004475801E+03  0.37579493137E+03  0.00000000000E+00 0. -1.
        -11    1    3    3    0    0  0.30769654084E+02  0.96213327604E+01 -0.90072572588E+02  0.95668228734E+02  0.00000000000E+00 0. -1.
         11    1    3    3    0    0 -0.35817672515E+02  0.52075157691E+02 -0.37946975592E+02  0.73720422336E+02  0.00000000000E+00 0.  1.
         21    1    1    2  502  501 -0.97096380271E+01 -0.18253360342E+02  0.14648399564E+02  0.25338465703E+02  0.00000000000E+00 0.  1.
<scales pt_clust_5="13000.00000" pt_clust_6="13000.00000" pt_clust_7="13000.00000" pt_clust_8="13000.00000" pt_clust_9="20.67516"></scales>
<clustering>
<clus scale="   20.675">  1  9  2 -1</clus>
<clus scale="   83.036">  5  6 -1 -1</clus>
<clus scale="   92.041">  7  8 -1 -1</clus>
<clus scale="   96.371">  2  5  1 -1</clus>
<clus scale="   96.371">  2  5  1 -1</clus>
</clustering>
</event>
<event>
 9    2  0.5608219E-005  0.2005056E+03  0.7546771E-02  0.1154243E+00
         -1   -1    0    0    0  501 -0.00000000000E+00  0.00000000000E+00  0.66064275335E+02  0.66064275335E+02  0.00000000000E+00 0.  1.
          2   -1    0    0  502    0  0.00000000000E+00 -0.00000000000E+00 -0.19979374242E+04  0.19979374242E+04  0.00000000000E+00 0. -1.
         23    2    1    2    0    0 -0.13093602030E+02  0.15647423092E+03 -0.39459090142E+03  0.43307224380E+03  0.84817224147E+02 0.  0.
         24    2    1    2    0    0  0.11283996173E+03  0.12012221565E+03 -0.10170661078E+04  0.10333679422E+04  0.79143114925E+02 0.  0.
        -13    1    4    4    0    0  0.41304809767E+02  0.38917265991E+02 -0.16564699062E+03  0.17509873330E+03  0.00000000000E+00 0.  1.
         14    1    4    4    0    0  0.71535151959E+02  0.81204949655E+02 -0.85141911716E+03  0.85826920886E+03  0.00000000000E+00 0. -1.
        -11    1    3    3    0    0 -0.19805436060E+02  0.11609976275E+03 -0.36222872245E+03  0.38089507424E+03  0.00000000000E+00 0.  1.
         11    1    3    3    0    0  0.67118340306E+01  0.40374468175E+02 -0.32362178967E+02  0.52177169567E+02  0.00000000000E+00 0. -1.
         21    1    1    2  502  501 -0.99746359696E+02 -0.27659644657E+03 -0.52021613962E+03  0.59756151353E+03  0.00000000000E+00 0.  1.
<scales pt_clust_5="13000.00000" pt_clust_6="13000.00000" pt_clust_7="13000.00000" pt_clust_8="13000.00000" pt_clust_9="184.22504"></scales>
<clustering>
<clus scale="   79.143">  5  6 -1 -1</clus>
<clus scale="   84.817">  7  8 -1 -1</clus>
<clus scale="  178.465">  1  7  2 -1</clus>
<clus scale="  184.225">  1  9  2 -1</clus>
<clus scale="  200.506">  2  5  1 -1</clus>
</clustering>
</event>
<event>
 9    2  0.5608219E-005  0.9690774E+02  0.7546771E-02  0.1291293E+00
          2   -1    0    0  502    0  0.00000000000E+00  0.00000000000E+00  0.20506134188E+03  0.20506134188E+03  0.00000000000E+00 0. -1.
         -1   -1    0    0    0  501 -0.00000000000E+00 -0.00000000000E+00 -0.13182274272E+03  0.13182274272E+03  0.00000000000E+00 0.  1.
         24    2    1    2    0    0 -0.41900404472E+01  0.41628870311E+00  0.16912264626E+02  0.84887326934E+02  0.83078901317E+02 0.  0.
         23    2    1    2    0    0 -0.35778062774E+02  0.39311644482E+02  0.12470717935E+03  0.16338695071E+03  0.91202740710E+02 0.  0.
        -11    1    3    3    0    0  0.37316757280E+02 -0.13049127465E+02  0.71906619690E+01  0.40181161270E+02  0.00000000000E+00 0.  1.
         12    1    3    3    0    0 -0.41506797727E+02  0.13465416168E+02  0.97216026567E+01  0.44706165664E+02  0.00000000000E+00 0. -1.
        -11    1    4    4    0    0 -0.18624458183E+02 -0.11168317352E+02  0.10391706428E+03  0.10616194235E+03  0.00000000000E+00 0. -1.
         11    1    4    4    0    0 -0.17153604591E+02  0.50479961834E+02  0.20790115071E+02  0.57225008361E+02  0.00000000000E+00 0.  1.
         21    1    1    2  502  501  0.39968103222E+02 -0.39727933185E+02 -0.68380844814E+02  0.88609806950E+02  0.00000000000E+00 0.  1.
<scales pt_clust_5="13000.00000" pt_clust_6="13000.00000" pt_clust_7="13000.00000" pt_clust_8="13000.00000" pt_clust_9="56.35386"></scales>
<clustering>
<clus scale="   56.354">  2  9  1 -1</clus>
<clus scale="   83.079">  5  6 -1 -1</clus>
<clus scale="   89.304">  2  5  1 -1</clus>
<clus scale="   91.203">  7  8 -1 -1</clus>
<clus scale="   96.908">  1  5  2 -1</clus>
</clustering>
</event>
<event>
 9    2  0.5608219E-005  0.1398618E+03  0.7546771E-02  0.1216300E+00
          2   -1    0    0  502    0  0.00000000000E+00  0.00000000000E+00  0.49424413718E+03  0.49424413718E+03  0.00000000000E+00 0. -1.
         -1   -1    0    0    0  501 -0.00000000000E+00 -0.00000000000E+00 -0.95919961166E+02  0.95919961166E+02  0.00000000000E+00 0.  1.
         23    2    1    2    0    0  0.48164779009E+02  0.72672294850E+02  0.10325320314E+03  0.16415996911E+03  0.93199587572E+02 0.  0.
         24    2    1    2    0    0 -0.49422567158E+02 -0.10052394209E+03  0.34345604581E+03  0.37016138961E+03  0.80682996186E+02 0.  0.
        -11    1    4    4    0    0  0.15086342185E+02 -0.59482865569E+02  0.14249246501E+03  0.15514480849E+03  0.00000000000E+00 0.  1.
         12    1    4    4    0    0 -0.64508909342E+02 -0.41041076518E+02  0.20096358080E+03  0.21501658112E+03  0.00000000000E+00 0. -1.
        -13    1    3    3    0    0 -0.22434747142E+02  0.13405094441E+02  0.53190011817E+02  0.59263747716E+02  0.00000000000E+00 0. -1.
         13    1    3    3    0    0  0.70599526152E+02  0.59267200409E+02  0.50063191326E+02  0.10489622140E+03  0.00000000000E+00 0.  1.
         21    1    1    2  502  501  0.12577881486E+01  0.27851647237E+02 -0.48385072945E+02  0.55842739624E+02  0.00000000000E+00 0.  1.
<scales pt_clust_5="13000.00000" pt_clust_6="13000.00000" pt_clust_7="13000.00000" pt_clust_8="13000.00000" pt_clust_9="27.88003"></scales>
<clustering>
<clus scale="   27.880">  2  9  1 -1</clus>
<clus scale="   80.683">  5  6 -1 -1</clus>
<clus scale="   93.200">  7  8 -1 -1</clus>
<clus scale="  131.852">  1  5  2 -1</clus>
<clus scale="  131.852">  1  5  2 -1</clus>
</clustering>
</event>
<event>
 9    2  0.5608219E-005  0.9774828E+02  0.7546771E-02  0.1290005E+00
         -1   -1    0    0    0  501 -0.00000000000E+00  0.00000000000E+00  0.93882511956E+02  0.93882511956E+02  0.00000000000E+00 0.  1.
          2   -1    0    0  502    0  0.00000000000E+00 -0.00000000000E+00 -0.19205767254E+03  0.19205767254E+03  0.00000000000E+00 0. -1.
         23    2    1    2    0    0  0.21063261617E+02  0.80874922497E+01  0.30975952814E+02  0.98945147186E+02  0.91222606727E+02 0.  0.
         24    2    1    2    0    0 -0.37283701471E+02  0.10069503426E+02 -0.13441431952E+03  0.16208559132E+03  0.81933267507E+02 0.  0.
        -13    1    4    4    0    0 -0.22989231546E+02 -0.23361832143E+02 -0.12858127955E+02  0.35208115864E+02  0.00000000000E+00 0.  1.
         14    1    4    4    0    0 -0.14294469925E+02  0.33431335569E+02 -0.12155619157E+03  0.12687747545E+03  0.00000000000E+00 0. -1.
        -13    1    3    3    0    0  0.46524319765E+02  0.33781127607E+02  0.22864833821E+02  0.61874692222E+02  0.00000000000E+00 0. -1.
         13    1    3    3    0    0 -0.25461058147E+02 -0.25693635358E+02  0.81111189935E+01  0.37070454964E+02  0.00000000000E+00 0.  1.
         21    1    1    2  502  501  0.16220439854E+02 -0.18156995676E+02  0.52632061263E+01  0.24909445994E+02  0.00000000000E+00 0. -1.
<scales pt_clust_5="13000.00000" pt_clust_6="13000.00000" pt_clust_7="13000.00000" pt_clust_8="13000.00000" pt_clust_9="24.34706"></scales>
<clustering>
<clus scale="   24.347">  1  9  2 -1</clus>
<clus scale="   81.933">  5  6 -1 -1</clus>
<clus scale="   89.142">  2  5  1 -1</clus>
<clus scale="   91.223">  7  8 -1 -1</clus>
<clus scale="   89.142">  2  5  1 -1</clus>
</clustering>
</event>
<event>
 9    2  0.5608219E-005  0.1384855E+03  0.7546771E-02  0.1236818E+00
         -1   -1    0    0    0  501 -0.00000000000E+00  0.00000000000E+00  0.38033675879E+03  0.38033675879E+03  0.00000000000E+00 0.  1.
          2   -1    0    0  502    0  0.00000000000E+00 -0.00000000000E+00 -0.71565606783E+03  0.71565606783E+03  0.00000000000E+00 0. -1.
         23    2    1    2    0    0 -0.10143312939E+03 -0.80032039668E+02  0.11653456811E+03  0.19514551997E+03  0.88360971518E+02 0.  0.
         24    2    1    2    0    0  0.13983405778E+02  0.30666434138E+02 -0.66201304709E+03  0.66792823514E+03  0.82041982910E+02 0.  0.
        -13    1    4    4    0    0  0.41906621518E+02  0.18134245187E+02 -0.21131495978E+03  0.21619210901E+03  0.00000000000E+00 0.  1.
         14    1    4    4    0    0 -0.27923215740E+02  0.12532188952E+02 -0.45069808731E+03  0.45173612612E+03  0.00000000000E+00 0. -1.
        -13    1    3    3    0    0 -0.39503202298E+02 -0.84689585733E+02  0.59209127015E+02  0.11062797858E+03  0.00000000000E+00 0.  1.
         13    1    3    3    0    0 -0.61929927094E+02  0.46575460648E+01  0.57325441098E+02  0.84517541388E+02  0.00000000000E+00 0. -1.
         21    1    1    2  502  501  0.87449723614E+02  0.49365605530E+02  0.21015916993E+03  0.23291907152E+03  0.00000000000E+00 0. -1.
<scales pt_clust_5="13000.00000" pt_clust_6="13000.00000" pt_clust_7="13000.00000" pt_clust_8="13000.00000" pt_clust_9="106.63292"></scales>
<clustering>
<clus scale="   82.042">  5  6 -1 -1</clus>
<clus scale="   88.361">  7  8 -1 -1</clus>
<clus scale="   88.695">  2  5  1 -1</clus>
<clus scale="  106.633">  1  9  2 -1</clus>
<clus scale="   88.695">  2  5  1 -1</clus>
</clustering>
</event>
<event>
 9    2  0.5608219E-005  0.1091968E+03  0.7546771E-02  0.1266215E+00
          2   -1    0    0  502    0  0.00000000000E+00  0.00000000000E+00  0.79122772738E+03  0.79122772738E+03  0.00000000000E+00 0. -1.
         -1   -1    0    0    0  501 -0.00000000000E+00 -0.00000000000E+00 -0.22798109136E+02  0.22798109136E+02  0.00000000000E+00 0.  1.
         23    2    1    2    0    0 -0.12300836319E+02  0.42092050304E+02  0.19801502389E+03  0.22223969329E+03  0.90870679067E+02 0.  0.
         24    2    1    2    0    0 -0.20109603606E+02 -0.68424160875E+02  0.48416582452E+03  0.49595991007E+03  0.80457596376E+02 0.  0.
        -13    1    4    4    0    0 -0.10573067885E+02 -0.41714556163E+02  0.80340910337E+02  0.91140308504E+02  0.00000000000E+00 0.  1.
         14    1    4    4    0    0 -0.95365357210E+01 -0.26709604713E+02  0.40382491418E+03  0.40481960156E+03  0.00000000000E+00 0. -1.
        -11    1    3    3    0    0 -0.31254595700E+02  0.83621937094E+01  0.15880724335E+02  0.36041274136E+02  0.00000000000E+00 0.  1.
         11    1    3    3    0    0  0.18953759380E+02  0.33729856594E+02  0.18213429955E+03  0.18619841915E+03  0.00000000000E+00 0. -1.
         21    1    1    2  502  501  0.32410439925E+02  0.26332110572E+02  0.86248769835E+02  0.95826233159E+02  0.00000000000E+00 0.  1.
<scales pt_clust_5="13000.00000" pt_clust_6="13000.00000" pt_clust_7="13000.00000" pt_clust_8="13000.00000" pt_clust_9="41.75903"></scales>
<clustering>
<clus scale="   41.759">  2  9  1 -1</clus>
<clus scale="   80.458">  5  6 -1 -1</clus>
<clus scale="   90.871">  7  8 -1 -1</clus>
<clus scale="  100.697">  1  5  2 -1</clus>
<clus scale="  100.697">  1  5  2 -1</clus>
</clustering>
</event>
<event>
 9    2  0.5608219E-005  0.9120371E+02  0.7546771E-02  0.1305239E+00
          2   -1    0    0  502    0  0.00000000000E+00  0.00000000000E+00  0.14666531158E+04  0.14666531158E+04  0.00000000000E+00 0. -1.
         -1   -1    0    0    0  501 -0.00000000000E+00 -0.00000000000E+00 -0.26022475383E+02  0.26022475383E+02  0.00000000000E+00 0.  1.
         23    2    1    2    0    0  0.23678354020E+02  0.14452592459E+02  0.40037818603E+03  0.41098685509E+03  0.88532261525E+02 0.  0.
         24    2    1    2    0    0  0.13893340761E+02  0.34607004000E+02  0.10082631598E+04  0.10121057553E+04  0.79829761119E+02 0.  0.
        -13    1    4    4    0    0  0.19289518096E+02 -0.10220366689E+02  0.85639608961E+02  0.88378074354E+02  0.00000000000E+00 0.  1.
         14    1    4    4    0    0 -0.53961773351E+01  0.44827370689E+02  0.92262355086E+03  0.92372768092E+03  0.00000000000E+00 0. -1.
        -13    1    3    3    0    0  0.19808999945E+02  0.49503741061E+02  0.29729712274E+03  0.30204071919E+03  0.00000000000E+00 0. -1.
         13    1    3    3    0    0  0.38693540753E+01 -0.35051148601E+02  0.10308106329E+03  0.10894613590E+03  0.00000000000E+00 0.  1.
         21    1    1    2  502  501 -0.37571694781E+02 -0.49059596460E+02  0.31989294574E+02  0.69582980827E+02  0.00000000000E+00 0.  1.
<scales pt_clust_5="13000.00000" pt_clust_6="13000.00000" pt_clust_7="13000.00000" pt_clust_8="13000.00000" pt_clust_9="61.79382"></scales>
<clustering>
<clus scale="   61.794">  2  9  1 -1</clus>
<clus scale="   79.830">  5  6 -1 -1</clus>
<clus scale="   82.783">  1  5  2 -1</clus>
<clus scale="   88.532">  7  8 -1 -1</clus>
<clus scale="   82.783">  1  5  2 -1</clus>
</clustering>
</event>
<event>
 9    2  0.5608219E-005  0.1007637E+03  0.7546771E-02  0.1284031E+00
         -1   -1    0    0    0  501 -0.00000000000E+00  0.00000000000E+00  0.30696818380E+03  0.30696818380E+03  0.00000000000E+00 0.  1.
          2   -1    0    0  502    0  0.00000000000E+00 -0.00000000000E+00 -0.79591024158E+02  0.79591024158E+02  0.00000000000E+00 0. -1.
         24    2    1    2    0    0 -0.56089140861E+02 -0.26375268651E+02  0.18815242161E+03  0.21381833197E+03  0.80469241378E+02 0.  0.
         23    2    1    2    0    0  0.84637143101E+01 -0.37929759306E+01  0.63247398692E+02  0.11145961898E+03  0.91307130589E+02 0.  0.
        -13    1    3    3    0    0 -0.30596407435E+02 -0.46682771332E+02  0.61555963182E+02  0.83093669376E+02  0.00000000000E+00 0.  1.
         14    1    3    3    0    0 -0.25492733426E+02  0.20307502680E+02  0.12659645843E+03  0.13072466259E+03  0.00000000000E+00 0. -1.
        -13    1    4    4    0    0 -0.25875951913E+02 -0.23391983241E+02  0.62893526146E+02  0.71919019726E+02  0.00000000000E+00 0.  1.
         13    1    4    4    0    0  0.34339666223E+02  0.19599007310E+02  0.35387254555E+00  0.39540599257E+02  0.00000000000E+00 0. -1.
         21    1    1    2  502  501  0.47625426551E+02  0.30168244582E+02 -0.24022660660E+02  0.61281257008E+02  0.00000000000E+00 0. -1.
<scales pt_clust_5="13000.00000" pt_clust_6="13000.00000" pt_clust_7="13000.00000" pt_clust_8="13000.00000" pt_clust_9="56.37645"></scales>
<clustering>
<clus scale="   56.376">  2  9  1 -1</clus>
<clus scale="   80.469">  5  6 -1 -1</clus>
<clus scale="   91.058">  1  5  2 -1</clus>
<clus scale="   91.307">  7  8 -1 -1</clus>
<clus scale="   56.376">  2  5  1 -1</clus>
</clustering>
</event>
<event>
 9    2  0.5608219E-005  0.1056025E+03  0.7546771E-02  0.1273103E+00
         -1   -1    0    0    0  501 -0.00000000000E+00  0.00000000000E+00  0.22628489103E+03  0.22628489103E+03  0.00000000000E+00 0.  1.
          2   -1    0    0  502    0  0.00000000000E+00 -0.00000000000E+00 -0.14890391602E+03  0.14890391602E+03  0.00000000000E+00 0. -1.
         24    2    1    2    0    0  0.17914035097E+02 -0.45305534667E+02  0.12340695272E+03  0.15654040618E+03  0.83078990506E+02 0.  0.
         23    2    1    2    0    0 -0.36639857438E+02  0.36615579104E+02 -0.10918796046E+03  0.15219836087E+03  0.92515677361E+02 0.  0.
        -13    1    3    3    0    0  0.36090013396E+02 -0.27415523327E+02  0.12294521510E+03  0.13103291915E+03  0.00000000000E+00 0.  1.
         14    1    3    3    0    0 -0.18175978299E+02 -0.17890011340E+02  0.46173761905E+00  0.25507487028E+02  0.00000000000E+00 0. -1.
        -11    1    4    4    0    0 -0.43112356305E+02 -0.42456697770E+01 -0.10117411681E+03  0.11005863387E+03  0.00000000000E+00 0. -1.
         11    1    4    4    0    0  0.64724988668E+01  0.40861248881E+02 -0.80138436484E+01  0.42139727001E+02  0.00000000000E+00 0.  1.
         21    1    1    2  502  501  0.18725822341E+02  0.86899555633E+01  0.63161982755E+02  0.66450039997E+02  0.00000000000E+00 0.  1.
<scales pt_clust_5="13000.00000" pt_clust_6="13000.00000" pt_clust_7="13000.00000" pt_clust_8="13000.00000" pt_clust_9="20.64393"></scales>
<clustering>
<clus scale="   20.644">  1  9  2 -1</clus>
<clus scale="   83.079">  5  6 -1 -1</clus>
<clus scale="   92.516">  7  8 -1 -1</clus>
<clus scale="   97.442">  1  5  2 -1</clus>
<clus scale="  105.603">  2  5  1 -1</clus>
</clustering>
</event>
<event>
 9    2  0.5608219E-005  0.1854617E+03  0.7546771E-02  0.1163916E+00
          2   -1    0    0  502    0  0.00000000000E+00  0.00000000000E+00  0.12133006331E+04  0.12133006331E+04  0.00000000000E+00 0. -1.
         -1   -1    0    0    0  501 -0.00000000000E+00 -0.00000000000E+00 -0.42482844988E+02  0.42482844988E+02  0.00000000000E+00 0.  1.
         24    2    1    2    0    0  0.16262800076E+02  0.15580168715E+03  0.38329301381E+03  0.42166760083E+03  0.79695588118E+02 0.  0.
         23    2    1    2    0    0  0.57676874322E+02 -0.16765311587E+03  0.54918840852E+03  0.58429242947E+03  0.91408675712E+02 0.  0.
        -11    1    3    3    0    0  0.43542243906E+02  0.79214242055E+02  0.24633830629E+03  0.26239928410E+03  0.00000000000E+00 0.  1.
         12    1    3    3    0    0 -0.27279443831E+02  0.76587445092E+02  0.13695470752E+03  0.15926831673E+03  0.00000000000E+00 0. -1.
        -11    1    4    4    0    0 -0.23966043757E+01 -0.11072565968E+03  0.38215247813E+03  0.39787740821E+03  0.00000000000E+00 0.  1.
         11    1    4    4    0    0  0.60073478698E+02 -0.56927456188E+02  0.16703593039E+03  0.18641502126E+03  0.00000000000E+00 0. -1.
         21    1    1    2  502  501 -0.73939674398E+02  0.11851428721E+02  0.23833636583E+03  0.24982344784E+03  0.00000000000E+00 0.  1.
<scales pt_clust_5="13000.00000" pt_clust_6="13000.00000" pt_clust_7="13000.00000" pt_clust_8="13000.00000" pt_clust_9="74.88345"></scales>
<clustering>
<clus scale="   74.883">  1  9  2 -1</clus>
<clus scale="   79.696">  5  6 -1 -1</clus>
<clus scale="   91.409">  7  8 -1 -1</clus>
<clus scale="  179.977">  2  5  1 -1</clus>
<clus scale="   74.883">  1  5  2 -1</clus>
</clustering>
</event>
<event>
 9    2  0.5608219E-005  0.1942918E+03  0.7546771E-02  0.1155812E+00
         -1   -1    0    0    0  501 -0.00000000000E+00  0.00000000000E+00  0.33318683642E+02  0.33318683642E+02  0.00000000000E+00 0.  1.
          2   -1    0    0  502    0  0.00000000000E+00 -0.00000000000E+00 -0.15417309374E+04  0.15417309374E+04  0.00000000000E+00 0. -1.
         23    2    1    2    0    0 -0.13434863201E+03  0.13275745783E+03 -0.70671427066E+03  0.73726576500E+03  0.91878454242E+02 0.  0.
         24    2    1    2    0    0  0.74285658285E+02 -0.14262978386E+03 -0.64846962671E+03  0.67290828831E+03  0.80194098531E+02 0.  0.
        -11    1    4    4    0    0  0.50807415106E+02 -0.90058962321E+02 -0.25371179523E+03  0.27397387679E+03  0.00000000000E+00 0.  1.
         12    1    4    4    0    0  0.23478243179E+02 -0.52570821540E+02 -0.39475783148E+03  0.39893441152E+03  0.00000000000E+00 0. -1.
        -13    1    3    3    0    0 -0.64012514599E+02  0.23925665409E+02 -0.13822948127E+03  0.15419931576E+03  0.00000000000E+00 0.  1.
         13    1    3    3    0    0 -0.70336117412E+02  0.10883179242E+03 -0.56848478939E+03  0.58306644923E+03  0.00000000000E+00 0. -1.
         21    1    1    2  502  501  0.60062973726E+02  0.98723260332E+01 -0.15322835641E+03  0.16487556775E+03  0.00000000000E+00 0. -1.
<scales pt_clust_5="13000.00000" pt_clust_6="13000.00000" pt_clust_7="13000.00000" pt_clust_8="13000.00000" pt_clust_9="60.86891"></scales>
<clustering>
<clus scale="   60.869">  1  9  2 -1</clus>
<clus scale="   80.194">  5  6 -1 -1</clus>
<clus scale="   91.878">  7  8 -1 -1</clus>
<clus scale="  189.047">  2  5  1 -1</clus>
<clus scale="  189.047">  2  5  1 -1</clus>
</clustering>
</event>
<event>
 9    2  0.5608219E-005  0.8640362E+02  0.7546771E-02  0.1312295E+00
         -1   -1    0    0    0  501 -0.00000000000E+00  0.00000000000E+00  0.73557077902E+02  0.73557077902E+02  0.00000000000E+00 0.  1.
          2   -1    0    0  502    0  0.00000000000E+00 -0.00000000000E+00 -0.59307576268E+03  0.59307576268E+03  0.00000000000E+00 0. -1.
         23    2    1    2    0    0 -0.27456893793E+02 -0.54328079389E+02 -0.21097295381E+02  0.10191839009E+03  0.78973673706E+02 0.  0.
         24    2    1    2    0    0  0.18400821082E+02  0.24678795679E+02 -0.51997062570E+03  0.52695915864E+03  0.79805201040E+02 0.  0.
        -11    1    4    4    0    0  0.11444276831E+02 -0.26918881654E+02 -0.11527622159E+03  0.11892941153E+03  0.00000000000E+00 0.  1.
         12    1    4    4    0    0  0.69565442508E+01  0.51597677333E+02 -0.40469440411E+03  0.40802974712E+03  0.00000000000E+00 0. -1.
        -11    1    3    3    0    0  0.44914459288E+01 -0.32830015799E+02  0.25250924405E+02  0.41660439354E+02  0.00000000000E+00 0.  1.
         11    1    3    3    0    0 -0.31948339722E+02 -0.21498063589E+02 -0.46348219786E+02  0.60257950732E+02  0.00000000000E+00 0. -1.
         21    1    1    2  502  501  0.90560727111E+01  0.29649283710E+02  0.21549236305E+02  0.37755291851E+02  0.00000000000E+00 0.  1.
<scales pt_clust_5="13000.00000" pt_clust_6="13000.00000" pt_clust_7="13000.00000" pt_clust_8="13000.00000" pt_clust_9="31.00149"></scales>
<clustering>
<clus scale="   31.001">  1  9  2 -1</clus>
<clus scale="   78.974">  7  8 -1 -1</clus>
<clus scale="   79.805">  5  6 -1 -1</clus>
<clus scale="   85.636">  1  7  2 -1</clus>
<clus scale="   86.404">  2  5  1 -1</clus>
</clustering>
</event>
<event>
 9    2  0.5608219E-005  0.1057002E+03  0.7546771E-02  0.1272339E+00
         -1   -1    0    0    0  501 -0.00000000000E+00  0.00000000000E+00  0.39634171966E+02  0.39634171966E+02  0.00000000000E+00 0.  1.
          2   -1    0    0  502    0  0.00000000000E+00 -0.00000000000E+00 -0.42123116565E+03  0.42123116565E+03  0.00000000000E+00 0. -1.
         23    2    1    2    0    0 -0.70537318894E+01 -0.39731332352E+02 -0.99364897975E+02  0.13928571423E+03  0.88875155888E+02 0.  0.
         24    2    1    2    0    0 -0.19838873754E+02  0.64815443981E+02 -0.25503481463E+03  0.27583995797E+03  0.80313778699E+02 0.  0.
        -13    1    4    4    0    0 -0.41851678419E+02  0.18965361639E+02 -0.68408497219E+02  0.82407344456E+02  0.00000000000E+00 0.  1.
         14    1    4    4    0    0  0.22012804665E+02  0.45850082342E+02 -0.18662631742E+03  0.19343261352E+03  0.00000000000E+00 0. -1.
        -11    1    3    3    0    0  0.15283748206E+02 -0.37004140334E+02 -0.10800035463E+03  0.11518235959E+03  0.00000000000E+00 0. -1.
         11    1    3    3    0    0 -0.22337480095E+02 -0.27271920184E+01  0.86354566504E+01  0.24103354639E+02  0.00000000000E+00 0.  1.
         21    1    1    2  502  501  0.26892605643E+02 -0.25084111628E+02 -0.27197281076E+02  0.45739665416E+02  0.00000000000E+00 0.  1.
<scales pt_clust_5="13000.00000" pt_clust_6="13000.00000" pt_clust_7="13000.00000" pt_clust_8="13000.00000" pt_clust_9="36.77533"></scales>
<clustering>
<clus scale="   36.775">  1  9  2 -1</clus>
<clus scale="   80.314">  5  6 -1 -1</clus>
<clus scale="   88.875">  7  8 -1 -1</clus>
<clus scale="   98.611">  2  5  1 -1</clus>
<clus scale="   98.611">  2  5  1 -1</clus>
</clustering>
</event>
<event>
 9    2  0.5608219E-005  0.9250013E+02  0.7546771E-02  0.1301724E+00
         -1   -1    0    0    0  501 -0.00000000000E+00  0.00000000000E+00  0.15649922204E+03  0.15649922204E+03  0.00000000000E+00 0.  1.
          2   -1    0    0  502    0  0.00000000000E+00 -0.00000000000E+00 -0.26682037448E+03  0.26682037448E+03  0.00000000000E+00 0. -1.
         24    2    1    2    0    0 -0.97390466561E+01 -0.17604249882E+02  0.79995581483E+02  0.11630612235E+03  0.81994282701E+02 0.  0.
         23    2    1    2    0    0 -0.10211883597E+02 -0.22590223234E+02 -0.22927691144E+03  0.24758679060E+03  0.90092818860E+02 0.  0.
        -13    1    3    3    0    0  0.34408344996E+02 -0.75920713353E+01  0.52859967160E+02  0.63527552138E+02  0.00000000000E+00 0.  1.
         14    1    3    3    0    0 -0.44147391652E+02 -0.10012178546E+02  0.27135614323E+02  0.52778570212E+02  0.00000000000E+00 0. -1.
        -13    1    4    4    0    0 -0.41282750559E+02  0.32360195699E+01 -0.55914009020E+02  0.69578112371E+02  0.00000000000E+00 0.  1.
         13    1    4    4    0    0  0.31070866962E+02 -0.25826242804E+02 -0.17336290242E+03  0.17800867823E+03  0.00000000000E+00 0. -1.
         21    1    1    2  502  501  0.19950930253E+02  0.40194473116E+02  0.38960177522E+02  0.59426683566E+02  0.00000000000E+00 0.  1.
<scales pt_clust_5="13000.00000" pt_clust_6="13000.00000" pt_clust_7="13000.00000" pt_clust_8="13000.00000" pt_clust_9="44.87355"></scales>
<clustering>
<clus scale="   44.874">  1  9  2 -1</clus>
<clus scale="   81.994">  5  6 -1 -1</clus>
<clus scale="   84.632">  1  5  2 -1</clus>
<clus scale="   90.093">  7  8 -1 -1</clus>
<clus scale="   92.500">  2  5  1 -1</clus>
</clustering>
</event>
<event>
 9    2  0.5608219E-005  0.2630617E+03  0.7546771E-02  0.1105717E+00
          2   -1    0    0  502    0  0.00000000000E+00  0.00000000000E+00  0.81667782732E+03  0.81667782732E+03  0.00000000000E+00 0. -1.
         -1   -1    0    0    0  501 -0.00000000000E+00 -0.00000000000E+00 -0.10976243089E+03  0.10976243089E+03  0.00000000000E+00 0.  1.
         24    2    1    2    0    0  0.12741030366E+03  0.22750971861E+03  0.19535205080E+03  0.33626788438E+03  0.83184185842E+02 0.  0.
         23    2    1    2    0    0 -0.11652458544E+03 -0.21051707989E+03  0.50830167618E+03  0.56973008631E+03  0.91248875612E+02 0.  0.
        -13    1    3    3    0    0  0.56271918658E+02  0.44158091816E+02  0.24074955284E+02  0.75472308658E+02  0.00000000000E+00 0.  1.
         14    1    3    3    0    0  0.71138385000E+02  0.18335162679E+03  0.17127709552E+03  0.26079557572E+03  0.00000000000E+00 0. -1.
        -13    1    4    4    0    0 -0.98692934074E+02 -0.13041535295E+03  0.25033382525E+03  0.29902421906E+03  0.00000000000E+00 0.  1.
         13    1    4    4    0    0 -0.17831651370E+02 -0.80101726949E+02  0.25796785093E+03  0.27070586725E+03  0.00000000000E+00 0. -1.
         21    1    1    2  502  501 -0.10885718214E+02 -0.16992638713E+02  0.32616694481E+01  0.20442287520E+02  0.00000000000E+00 0. -1.
<scales pt_clust_5="13000.00000" pt_clust_6="13000.00000" pt_clust_7="13000.00000" pt_clust_8="13000.00000" pt_clust_9="20.18040"></scales>
<clustering>
<clus scale="   20.180">  2  9  1 -1</clus>
<clus scale="   83.184">  5  6 -1 -1</clus>
<clus scale="   91.249">  7  8 -1 -1</clus>
<clus scale="  260.374">  2  5  1 -1</clus>
<clus scale="  263.062">  1  5  2 -1</clus>
</clustering>
</event>
<event>
 9    2  0.5608219E-005  0.1246067E+03  0.7546771E-02  0.1239053E+00
         -1   -1    0    0    0  501 -0.00000000000E+00  0.00000000000E+00  0.51859960411E+02  0.51859960411E+02  0.00000000000E+00 0.  1.
          2   -1    0    0  502    0  0.00000000000E+00 -0.00000000000E+00 -0.13290770884E+04  0.13290770884E+04  0.00000000000E+00 0. -1.
         23    2    1    2    0    0  0.66824724761E+01  0.53225505430E+02 -0.35354164085E+02  0.11237495128E+03  0.92198714151E+02 0.  0.
         24    2    1    2    0    0  0.74776499079E+02 -0.48147208836E+02 -0.10860492538E+04  0.10926664882E+04  0.80668420715E+02 0.  0.
        -13    1    4    4    0    0  0.23489388087E+02  0.28439833747E+01 -0.67019743251E+02  0.71073803750E+02  0.00000000000E+00 0.  1.
         14    1    4    4    0    0  0.51287110992E+02 -0.50991192211E+02 -0.10190295106E+04  0.10215926844E+04  0.00000000000E+00 0. -1.
        -11    1    3    3    0    0 -0.28672461971E+02  0.48506642697E+02 -0.48515628335E+02  0.74355703573E+02  0.00000000000E+00 0.  1.
         11    1    3    3    0    0  0.35354934447E+02  0.47188627333E+01  0.13161464250E+02  0.38019247710E+02  0.00000000000E+00 0. -1.
         21    1    1    2  502  501 -0.81458971555E+02 -0.50782965940E+01 -0.15581371008E+03  0.17589560936E+03  0.00000000000E+00 0.  1.
<scales pt_clust_5="13000.00000" pt_clust_6="13000.00000" pt_clust_7="13000.00000" pt_clust_8="13000.00000" pt_clust_9="81.61711"></scales>
<clustering>
<clus scale="   80.668">  5  6 -1 -1</clus>
<clus scale="   81.617">  1  9  2 -1</clus>
<clus scale="   92.199">  7  8 -1 -1</clus>
<clus scale="  116.334">  2  5  1 -1</clus>
<clus scale="  116.334">  2  5  1 -1</clus>
</clustering>
</event>
<event>
 9    2  0.5608219E-005  0.4421103E+03  0.7546771E-02  0.1082463E+00
          2   -1    0    0  502    0  0.00000000000E+00  0.00000000000E+00  0.86181467496E+03  0.86181467496E+03  0.00000000000E+00 0. -1.
         -1   -1    0    0    0  501 -0.00000000000E+00 -0.00000000000E+00 -0.35518430355E+03  0.35518430355E+03  0.00000000000E+00 0.  1.
         23    2    1    2    0    0 -0.40990855105E+02  0.49776647297E+01 -0.96898792096E+02  0.13993744159E+03  0.92130799953E+02 0.  0.
         24    2    1    2    0    0 -0.11728879250E+03  0.41134307088E+03  0.38418938657E+03  0.58058863788E+03  0.80758274366E+02 0.  0.
        -11    1    4    4    0    0 -0.35120866448E+01  0.79327831902E+02  0.39593314539E+02  0.88729196001E+02  0.00000000000E+00 0.  1.
         12    1    4    4    0    0 -0.11377670585E+03  0.33201523898E+03  0.34459607203E+03  0.49185944188E+03  0.00000000000E+00 0. -1.
        -13    1    3    3    0    0  0.28961356398E+02 -0.12858276429E+01 -0.40801246712E+02  0.50051525955E+02  0.00000000000E+00 0.  1.
         13    1    3    3    0    0 -0.69952211503E+02  0.62634923726E+01 -0.56097545384E+02  0.89885915632E+02  0.00000000000E+00 0. -1.
         21    1    1    2  502  501  0.15827964760E+03 -0.41632073561E+03  0.21933977693E+03  0.49647289905E+03  0.00000000000E+00 0.  1.
<scales pt_clust_5="13000.00000" pt_clust_6="13000.00000" pt_clust_7="13000.00000" pt_clust_8="13000.00000" pt_clust_9="434.67183"></scales>
<clustering>
<clus scale="   80.758">  5  6 -1 -1</clus>
<clus scale="   92.131">  7  8 -1 -1</clus>
<clus scale="  100.961">  2  7  1 -1</clus>
<clus scale="  434.672">  2  9  1 -1</clus>
<clus scale="  442.110">  1  5  2 -1</clus>
</clustering>
</event>
<event>
 9    2  0.5608219E-005  0.1305152E+03  0.7546771E-02  0.1242930E+00
          2   -1    0    0  502    0  0.00000000000E+00  0.00000000000E+00  0.48822917076E+03  0.48822917076E+03  0.00000000000E+00 0. -1.
         -1   -1    0    0    0  501 -0.00000000000E+00 -0.00000000000E+00 -0.13257919628E+03  0.13257919628E+03  0.00000000000E+00 0.  1.
         23    2    1    2    0    0 -0.94431853248E+01  0.10932178813E+02 -0.60492131029E+02  0.11143320778E+03  0.92462833601E+02 0.  0.
         24    2    1    2    0    0  0.10332978667E+03 -0.15960376715E+02  0.38983074885E+03  0.41174184438E+03  0.81434361469E+02 0.  0.
        -13    1    4    4    0    0  0.13639051186E+02  0.16291453809E+02  0.17867945834E+02  0.27761460206E+02  0.00000000000E+00 0.  1.
         14    1    4    4    0    0  0.89690735479E+02 -0.32251830524E+02  0.37196280302E+03  0.38398038418E+03  0.00000000000E+00 0. -1.
        -11    1    3    3    0    0  0.12748359843E+02  0.48293916104E+02 -0.28885206763E+02  0.57699031024E+02  0.00000000000E+00 0.  1.
         11    1    3    3    0    0 -0.22191545168E+02 -0.37361737291E+02 -0.31606924266E+02  0.53734176758E+02  0.00000000000E+00 0. -1.
         21    1    1    2  502  501 -0.93886601340E+02  0.50281979015E+01  0.26311356657E+02  0.97633314880E+02  0.00000000000E+00 0.  1.
<scales pt_clust_5="13000.00000" pt_clust_6="13000.00000" pt_clust_7="13000.00000" pt_clust_8="13000.00000" pt_clust_9="101.99342"></scales>
<clustering>
<clus scale="   81.434">  5  6 -1 -1</clus>
<clus scale="   92.463">  7  8 -1 -1</clus>
<clus scale="   93.585">  2  7  1 -1</clus>
<clus scale="  101.993">  2  9  1 -1</clus>
<clus scale="  130.515">  1  5  2 -1</clus>
</clustering>
</event>
<event>
 9    2  0.5608219E-005  0.1989486E+03  0.7546771E-02  0.1151845E+00
         -1   -1    0    0    0  501 -0.00000000000E+00  0.00000000000E+00  0.51922889072E+02  0.51922889072E+02  0.00000000000E+00 0.  1.
          2   -1    0    0  502    0  0.00000000000E+00 -0.00000000000E+00 -0.13735807682E+04  0.13735807682E+04  0.00000000000E+00 0. -1.
         23    2    1    2    0    0 -0.10768075392E+03 -0.95178049791E+02 -0.18423004012E+03  0.25092110659E+03  0.91469602177E+02 0.  0.
         24    2    1    2    0    0  0.15763526789E+03  0.99475619819E+02 -0.10781046596E+04  0.10969091177E+04  0.78458134447E+02 0.  0.
        -13    1    4    4    0    0  0.28400797864E+02  0.16925758739E+01 -0.65414000490E+02  0.71333453530E+02  0.00000000000E+00 0.  1.
         14    1    4    4    0    0  0.12923447002E+03  0.97783043945E+02 -0.10126906591E+04  0.10255756642E+04  0.00000000000E+00 0. -1.
        -13    1    3    3    0    0 -0.69967812669E+02 -0.68078039167E+01 -0.51863971531E+02  0.87359673459E+02  0.00000000000E+00 0.  1.
         13    1    3    3    0    0 -0.37712941248E+02 -0.88370245874E+02 -0.13236606859E+03  0.16356143313E+03  0.00000000000E+00 0. -1.
         21    1    1    2  502  501 -0.49954513968E+02 -0.42975700279E+01 -0.59323179410E+02  0.77673432969E+02  0.00000000000E+00 0.  1.
<scales pt_clust_5="13000.00000" pt_clust_6="13000.00000" pt_clust_7="13000.00000" pt_clust_8="13000.00000" pt_clust_9="50.13903"></scales>
<clustering>
<clus scale="   50.139">  1  9  2 -1</clus>
<clus scale="   78.458">  5  6 -1 -1</clus>
<clus scale="   91.470">  7  8 -1 -1</clus>
<clus scale="  193.312">  2  5  1 -1</clus>
<clus scale="  193.312">  2  5  1 -1</clus>
</clustering>
</event>
<event>
 9    2  0.5608219E-005  0.1259384E+03  0.7546771E-02  0.1254953E+00
          2   -1    0    0  502    0  0.00000000000E+00  0.00000000000E+00  0.10670027284E+04  0.10670027284E+04  0.00000000000E+00 0. -1.
         -1   -1    0    0    0  501 -0.00000000000E+00 -0.00000000000E+00 -0.23846689043E+02  0.23846689043E+02  0.00000000000E+00 0.  1.
         23    2    1    2    0    0  0.21803950123E+02  0.88878737165E+02  0.36048944364E+03  0.38310320170E+03  0.91872640197E+02 0.  0.
         24    2    1    2    0    0  0.10992730206E+02 -0.11785623015E+02  0.50155531243E+03  0.50819605306E+03  0.80285465034E+02 0.  0.
        -11    1    4    4    0    0  0.37895501124E+02 -0.50537675566E+01  0.12735616461E+03  0.13297068187E+03  0.00000000000E+00 0.  1.
         12    1    4    4    0    0 -0.26902770918E+02 -0.67318554582E+01  0.37419914782E+03  0.37522537119E+03  0.00000000000E+00 0. -1.
        -13    1    3    3    0    0 -0.25875956119E+02  0.72644184039E+02  0.18248373409E+03  0.19810869690E+03  0.00000000000E+00 0. -1.
         13    1    3    3    0    0  0.47679906242E+02  0.16234553126E+02  0.17800570955E+03  0.18499450480E+03  0.00000000000E+00 0.  1.
         21    1    1    2  502  501 -0.32796680329E+02 -0.77093114150E+02  0.18111128325E+03  0.19955016265E+03  0.00000000000E+00 0. -1.
<scales pt_clust_5="13000.00000" pt_clust_6="13000.00000" pt_clust_7="13000.00000" pt_clust_8="13000.00000" pt_clust_9="86.13877"></scales>
<clustering>
<clus scale="   80.285">  5  6 -1 -1</clus>
<clus scale="   81.887">  1  5  2 -1</clus>
<clus scale="   86.139">  2  9  1 -1</clus>
<clus scale="   91.873">  7  8 -1 -1</clus>
<clus scale="   81.887">  1  5  2 -1</clus>
</clustering>
</event>
<event>
 9    2  0.5608219E-005  0.1156644E+03  0.7546771E-02  0.1260810E+00
          4   -1    0    0  502    0  0.00000000000E+00  0.00000000000E+00  0.12641222016E+03  0.12641222016E+03  0.00000000000E+00 0. -1.
         -3   -1    0    0    0  501 -0.00000000000E+00 -0.00000000000E+00 -0.33907605770E+03  0.33907605770E+03  0.00000000000E+00 0.  1.
         24    2    1    2    0    0  0.45901701588E+02  0.33153035147E+01 -0.23487822269E+03  0.24737314012E+03  0.62511866953E+02 0.  0.
         23    2    1    2    0    0 -0.60355486630E+02 -0.43425811485E+02  0.82657779857E+02  0.14414778876E+03  0.91747973084E+02 0.  0.
        -13    1    3    3    0    0  0.56599043483E+02 -0.29159938298E+01 -0.22344871458E+03  0.23052393106E+03  0.00000000000E+00 0.  1.
         14    1    3    3    0    0 -0.10697341895E+02  0.62312973446E+01 -0.11429508114E+02  0.16849209059E+02  0.00000000000E+00 0. -1.
        -11    1    4    4    0    0 -0.31542516480E+02 -0.70962086105E+02  0.61266901676E+02  0.98915020352E+02  0.00000000000E+00 0. -1.
         11    1    4    4    0    0 -0.28812970150E+02  0.27536274620E+02  0.21390878181E+02  0.45232768411E+02  0.00000000000E+00 0.  1.
         21    1    1    2  502  501  0.14453785042E+02  0.40110507971E+02 -0.60443394704E+02  0.73967348979E+02  0.00000000000E+00 0.  1.
<scales pt_clust_5="13000.00000" pt_clust_6="13000.00000" pt_clust_7="13000.00000" pt_clust_8="13000.00000" pt_clust_9="42.63525"></scales>
<clustering>
<clus scale="   42.635">  2  9  1 -1</clus>
<clus scale="   62.512">  5  6 -1 -1</clus>
<clus scale="   91.748">  7  8 -1 -1</clus>
<clus scale="   94.172">  2  5  1 -1</clus>
<clus scale="  115.664">  1  5  2 -1</clus>
</clustering>
</event>
<event>
 9    2  0.5608219E-005  0.1203511E+03  0.7546771E-02  0.1246173E+00
         -1   -1    0    0    0  501 -0.00000000000E+00  0.00000000000E+00  0.48132348122E+02  0.48132348122E+02  0.00000000000E+00 0.  1.
          2   -1    0    0  502    0  0.00000000000E+00 -0.00000000000E+00 -0.47412228885E+03  0.47412228885E+03  0.00000000000E+00 0. -1.
         24    2    1    2    0    0 -0.27589878671E+02  0.72451578640E+02 -0.15428909171E+03  0.19026885707E+03  0.79916715993E+02 0.  0.
         23    2    1    2    0    0  0.72206642726E+02 -0.46934013038E+02 -0.24186372866E+03  0.27255468081E+03  0.91495300185E+02 0.  0.
        -13    1    3    3    0    0 -0.24331768383E+02 -0.99647941156E+01 -0.21573254562E+02  0.34010842195E+02  0.00000000000E+00 0.  1.
         14    1    3    3    0    0 -0.32581102883E+01  0.82416372755E+02 -0.13271583715E+03  0.15625801487E+03  0.00000000000E+00 0. -1.
        -13    1    4    4    0    0  0.49981242522E+02 -0.63549647327E+02 -0.10297991450E+03  0.13092572348E+03  0.00000000000E+00 0.  1.
         13    1    4    4    0    0  0.22225400203E+02  0.16615634289E+02 -0.13888381416E+03  0.14162895733E+03  0.00000000000E+00 0. -1.
         21    1    1    2  502  501 -0.44616764054E+02 -0.25517565601E+02 -0.29837120357E+02  0.59431099099E+02  0.00000000000E+00 0.  1.
<scales pt_clust_5="13000.00000" pt_clust_6="13000.00000" pt_clust_7="13000.00000" pt_clust_8="13000.00000" pt_clust_9="51.39846"></scales>
<clustering>
<clus scale="   51.398">  1  9  2 -1</clus>
<clus scale="   79.917">  5  6 -1 -1</clus>
<clus scale="   91.495">  7  8 -1 -1</clus>
<clus scale="  111.802">  1  5  2 -1</clus>
<clus scale="  120.351">  2  5  1 -1</clus>
</clustering>
</event>
<event>
 9    2  0.5608219E-005  0.1191276E+03  0.7546771E-02  0.1248361E+00
         -1   -1    0    0    0  501 -0.00000000000E+00  0.00000000000E+00  0.67229202067E+02  0.67229202067E+02  0.00000000000E+00 0.  1.
          2   -1    0    0  502    0  0.00000000000E+00 -0.00000000000E+00 -0.73700543887E+03  0.73700543887E+03  0.00000000000E+00 0. -1.
         23    2    1    2    0    0  0.55782031995E+02  0.41349004612E+02 -0.27689093603E+02  0.11859667164E+03  0.92071218873E+02 0.  0.
         24    2    1    2    0    0 -0.71195457188E+02 -0.27865222089E+02 -0.65305423665E+03  0.66240731699E+03  0.80363884103E+02 0.  0.
        -11    1    4    4    0    0 -0.65751406958E+02 -0.38491440301E+02 -0.31285345722E+03  0.32199708723E+03  0.00000000000E+00 0.  1.
         12    1    4    4    0    0 -0.54440502298E+01  0.10626218212E+02 -0.34020077944E+03  0.34041022976E+03  0.00000000000E+00 0. -1.
        -13    1    3    3    0    0  0.43114847419E+01 -0.27042451557E+02  0.32607253402E+01  0.27577443983E+02  0.00000000000E+00 0. -1.
         13    1    3    3    0    0  0.51470547253E+02  0.68391456169E+02 -0.30949818943E+02  0.91019227661E+02  0.00000000000E+00 0.  1.
         21    1    1    2  502  501  0.15413425193E+02 -0.13483782523E+02  0.10967093455E+02  0.23230652297E+02  0.00000000000E+00 0.  1.
<scales pt_clust_5="13000.00000" pt_clust_6="13000.00000" pt_clust_7="13000.00000" pt_clust_8="13000.00000" pt_clust_9="20.47892"></scales>
<clustering>
<clus scale="   20.479">  1  9  2 -1</clus>
<clus scale="   80.364">  5  6 -1 -1</clus>
<clus scale="   92.071">  7  8 -1 -1</clus>
<clus scale="  110.330">  2  5  1 -1</clus>
<clus scale="  110.330">  2  5  1 -1</clus>
</clustering>
</event>
<event>
 9    2  0.5608219E-005  0.9181257E+02  0.7546771E-02  0.1305456E+00
          2   -1    0    0  502    0  0.00000000000E+00  0.00000000000E+00  0.32033593254E+03  0.32033593254E+03  0.00000000000E+00 0. -1.
         -1   -1    0    0    0  501 -0.00000000000E+00 -0.00000000000E+00 -0.76638094524E+02  0.76638094524E+02  0.00000000000E+00 0.  1.
         24    2    1    2    0    0 -0.12769953017E+02  0.22022445264E+02 -0.33373362437E+02  0.91010195131E+02  0.80752798725E+02 0.  0.
         23    2    1    2    0    0 -0.27738119207E+01 -0.89299989427E+00  0.25709959156E+03  0.27299525217E+03  0.91748113021E+02 0.  0.
        -13    1    3    3    0    0 -0.17739574730E+02  0.51530507200E+02 -0.24847990616E+02  0.59895812221E+02  0.00000000000E+00 0.  1.
         14    1    3    3    0    0  0.49696217132E+01 -0.29508061936E+02 -0.85253718210E+01  0.31114382910E+02  0.00000000000E+00 0. -1.
        -11    1    4    4    0    0 -0.13239567273E+02  0.34207329338E+02  0.46456892213E+02  0.59191809874E+02  0.00000000000E+00 0.  1.
         11    1    4    4    0    0  0.10465755353E+02 -0.35100329233E+02  0.21064269935E+03  0.21380344229E+03  0.00000000000E+00 0. -1.
         21    1    1    2  502  501  0.15543764938E+02 -0.21129445369E+02  0.19971608889E+02  0.32968579764E+02  0.00000000000E+00 0. -1.
<scales pt_clust_5="13000.00000" pt_clust_6="13000.00000" pt_clust_7="13000.00000" pt_clust_8="13000.00000" pt_clust_9="26.23094"></scales>
<clustering>
<clus scale="   26.231">  2  9  1 -1</clus>
<clus scale="   80.753">  5  6 -1 -1</clus>
<clus scale="   80.826">  2  5  1 -1</clus>
<clus scale="   91.748">  7  8 -1 -1</clus>
<clus scale="   91.813">  1  5  2 -1</clus>
</clustering>
</event>
<event>
 9    2  0.5608219E-005  0.1109193E+03  0.7546771E-02  0.1263097E+00
          4   -1    0    0  502    0  0.00000000000E+00  0.00000000000E+00  0.53036326191E+03  0.53036326191E+03  0.00000000000E+00 0. -1.
         -3   -1    0    0    0  501 -0.00000000000E+00 -0.00000000000E+00 -0.12872971698E+03  0.12872971698E+03  0.00000000000E+00 0.  1.
         23    2    1    2    0    0 -0.80330644726E+02 -0.41044747783E+02 -0.28504484770E+02  0.13018798995E+03  0.89435581695E+02 0.  0.
         24    2    1    2    0    0  0.60226878744E+02 -0.27243851751E+02  0.44461661009E+03  0.45626117625E+03  0.78235711820E+02 0.  0.
        -13    1    4    4    0    0  0.60629844057E+02 -0.21440939481E+01  0.17002393821E+03  0.18052344638E+03  0.00000000000E+00 0.  1.
         14    1    4    4    0    0 -0.40296531364E+00 -0.25099757803E+02  0.27459267187E+03  0.27573772986E+03  0.00000000000E+00 0. -1.
        -13    1    3    3    0    0 -0.73302511306E+02 -0.67345083708E+02 -0.18901438090E+02  0.10132069298E+03  0.00000000000E+00 0.  1.
         13    1    3    3    0    0 -0.70281334202E+01  0.26300335925E+02 -0.96030466798E+01  0.28867296976E+02  0.00000000000E+00 0. -1.
         21    1    1    2  502  501  0.20103765982E+02  0.68288599533E+02 -0.14478580381E+02  0.72643812694E+02  0.00000000000E+00 0. -1.
<scales pt_clust_5="13000.00000" pt_clust_6="13000.00000" pt_clust_7="13000.00000" pt_clust_8="13000.00000" pt_clust_9="71.18633"></scales>
<clustering>
<clus scale="   71.186">  2  9  1 -1</clus>
<clus scale="   78.236">  5  6 -1 -1</clus>
<clus scale="   89.436">  7  8 -1 -1</clus>
<clus scale="  102.104">  1  5  2 -1</clus>
<clus scale="  102.104">  1  5  2 -1</clus>
</clustering>
</event>
<event>
 9    2  0.5608219E-005  0.1119671E+03  0.7546771E-02  0.1262224E+00
          2   -1    0    0  502    0  0.00000000000E+00  0.00000000000E+00  0.16533147397E+04  0.16533147397E+04  0.00000000000E+00 0. -1.
         -1   -1    0    0    0  501 -0.00000000000E+00 -0.00000000000E+00 -0.10226078787E+02  0.10226078787E+02  0.00000000000E+00 0.  1.
         23    2    1    2    0    0  0.57949902847E+02  0.29831784437E+02  0.55904329393E+03  0.57041355119E+03  0.92704305658E+02 0.  0.
         24    2    1    2    0    0 -0.37243435113E+02 -0.52024916088E+02  0.96205249044E+03  0.96741507686E+03  0.79077627796E+02 0.  0.
        -11    1    4    4    0    0 -0.47254621774E+02 -0.31497055997E+02  0.32298363173E+03  0.32793824141E+03  0.00000000000E+00 0.  1.
         12    1    4    4    0    0  0.10011186661E+02 -0.20527860091E+02  0.63906885871E+03  0.63947683545E+03  0.00000000000E+00 0. -1.
        -11    1    3    3    0    0  0.69025016561E+02  0.51013270956E+02  0.48708558057E+03  0.49458990035E+03  0.00000000000E+00 0.  1.
         11    1    3    3    0    0 -0.11075113714E+02 -0.21181486520E+02  0.71957713361E+02  0.75823650843E+02  0.00000000000E+00 0. -1.
         21    1    1    2  502  501 -0.20706467734E+02  0.22193131651E+02  0.12199287656E+03  0.12571219046E+03  0.00000000000E+00 0.  1.
<scales pt_clust_5="13000.00000" pt_clust_6="13000.00000" pt_clust_7="13000.00000" pt_clust_8="13000.00000" pt_clust_9="30.35281"></scales>
<clustering>
<clus scale="   30.353">  2  9  1 -1</clus>
<clus scale="   79.078">  5  6 -1 -1</clus>
<clus scale="   92.704">  7  8 -1 -1</clus>
<clus scale="  100.974">  1  5  2 -1</clus>
<clus scale="  100.974">  1  5  2 -1</clus>
</clustering>
</event>
<event>
 9    2  0.5608219E-005  0.1203451E+03  0.7546771E-02  0.1249303E+00
         -1   -1    0    0    0  501 -0.00000000000E+00  0.00000000000E+00  0.42673839517E+02  0.42673839517E+02  0.00000000000E+00 0.  1.
          2   -1    0    0  502    0  0.00000000000E+00 -0.00000000000E+00 -0.98102374931E+03  0.98102374931E+03  0.00000000000E+00 0. -1.
         23    2    1    2    0    0  0.45926027424E+02  0.11448713414E+02 -0.10146611044E+03  0.14602695981E+03  0.93745551304E+02 0.  0.
         24    2    1    2    0    0  0.17697800086E+02  0.76573328006E+02 -0.65964643688E+03  0.66980299359E+03  0.85591715973E+02 0.  0.
        -11    1    4    4    0    0  0.18080830554E+02  0.32844414197E+02 -0.78292330953E+02  0.86806457499E+02  0.00000000000E+00 0.  1.
         12    1    4    4    0    0 -0.38303046818E+00  0.43728913808E+02 -0.58135410593E+03  0.58299653609E+03  0.00000000000E+00 0. -1.
        -13    1    3    3    0    0  0.14016398703E+02  0.46381369326E+02 -0.21273289724E+02  0.52917329003E+02  0.00000000000E+00 0. -1.
         13    1    3    3    0    0  0.31909628721E+02 -0.34932655912E+02 -0.80192820718E+02  0.93109630806E+02  0.00000000000E+00 0.  1.
         21    1    1    2  502  501 -0.63623827510E+02 -0.88022041420E+02 -0.17723736247E+03  0.20786763542E+03  0.00000000000E+00 0.  1.
<scales pt_clust_5="13000.00000" pt_clust_6="13000.00000" pt_clust_7="13000.00000" pt_clust_8="13000.00000" pt_clust_9="84.59908"></scales>
<clustering>
<clus scale="   85.592">  5  6 -1 -1</clus>
<clus scale="   93.746">  7  8 -1 -1</clus>
<clus scale="  105.017">  1  7  2 -1</clus>
<clus scale="   84.599">  1  9  2 -1</clus>
<clus scale="  120.345">  2  5  1 -1</clus>
</clustering>
</event>
<event>
 9    2  0.5608219E-005  0.1306434E+03  0.7546771E-02  0.1230811E+00
          2   -1    0    0  502    0  0.00000000000E+00  0.00000000000E+00  0.73964471426E+03  0.73964471426E+03  0.00000000000E+00 0. -1.
         -1   -1    0    0    0  501 -0.00000000000E+00 -0.00000000000E+00 -0.51081993478E+02  0.51081993478E+02  0.00000000000E+00 0.  1.
         23    2    1    2    0    0 -0.36694901899E+00 -0.10676999214E+03  0.27679165764E+03  0.31021548821E+03  0.90664554879E+02 0.  0.
         24    2    1    2    0    0 -0.89423743443E+02  0.58431307906E+02  0.31168291509E+03  0.33762443138E+03  0.73710199240E+02 0.  0.
        -13    1    4    4    0    0 -0.58404597166E+02  0.10509410924E+02  0.83693232888E+02  0.10259679293E+03  0.00000000000E+00 0.  1.
         14    1    4    4    0    0 -0.31019146277E+02  0.47921896981E+02  0.22798968220E+03  0.23502763845E+03  0.00000000000E+00 0. -1.
        -13    1    3    3    0    0 -0.23499444875E+02 -0.41858538737E+02  0.36686520920E+02  0.60417398089E+02  0.00000000000E+00 0. -1.
         13    1    3    3    0    0  0.23132495856E+02 -0.64911453406E+02  0.24010513672E+03  0.24979809012E+03  0.00000000000E+00 0.  1.
         21    1    1    2  502  501  0.89790692462E+02  0.48338684238E+02  0.10008814805E+03  0.14288678814E+03  0.00000000000E+00 0.  1.
<scales pt_clust_5="13000.00000" pt_clust_6="13000.00000" pt_clust_7="13000.00000" pt_clust_8="13000.00000" pt_clust_9="101.97547"></scales>
<clustering>
<clus scale="   73.710">  5  6 -1 -1</clus>
<clus scale="   90.665">  7  8 -1 -1</clus>
<clus scale="  101.975">  2  9  1 -1</clus>
<clus scale="  119.502">  1  5  2 -1</clus>
<clus scale="  119.502">  1  5  2 -1</clus>
</clustering>
</event>
<event>
 9    2  0.5608219E-005  0.8991860E+02  0.7546771E-02  0.1308996E+00
         -3   -1    0    0    0  501 -0.00000000000E+00  0.00000000000E+00  0.56457352922E+02  0.56457352922E+02  0.00000000000E+00 0.  1.
          4   -1    0    0  502    0  0.00000000000E+00 -0.00000000000E+00 -0.38537128423E+03  0.38537128423E+03  0.00000000000E+00 0. -1.
         23    2    1    2    0    0 -0.18795825993E+02 -0.16982225014E+02 -0.54581052946E+02  0.10802134252E+03  0.89709754530E+02 0.  0.
         24    2    1    2    0    0 -0.22093743978E+01  0.37303649655E+01 -0.29227314526E+03  0.30316935387E+03  0.80431764422E+02 0.  0.
        -11    1    4    4    0    0  0.34583117392E+02 -0.65861839306E+01 -0.20348362352E+03  0.20650654922E+03  0.00000000000E+00 0.  1.
         12    1    4    4    0    0 -0.36792491790E+02  0.10316548896E+02 -0.88789521735E+02  0.96662804652E+02  0.00000000000E+00 0. -1.
        -11    1    3    3    0    0  0.27830294827E+02  0.59746035747E+01 -0.47767504689E+02  0.55605356776E+02  0.00000000000E+00 0. -1.
         11    1    3    3    0    0 -0.46626120820E+02 -0.22956828589E+02 -0.68135482576E+01  0.52415985743E+02  0.00000000000E+00 0.  1.
         21    1    1    2  502  501  0.21005200390E+02  0.13251860049E+02  0.17940266894E+02  0.30637940766E+02  0.00000000000E+00 0. -1.
<scales pt_clust_5="13000.00000" pt_clust_6="13000.00000" pt_clust_7="13000.00000" pt_clust_8="13000.00000" pt_clust_9="24.83607"></scales>
<clustering>
<clus scale="   24.836">  1  9  2 -1</clus>
<clus scale="   80.432">  5  6 -1 -1</clus>
<clus scale="   80.665">  2  5  1 -1</clus>
<clus scale="   89.710">  7  8 -1 -1</clus>
<clus scale="   80.665">  2  5  1 -1</clus>
</clustering>
</event>
<event>
 9    2  0.5608219E-005  0.1251139E+03  0.7546771E-02  0.1236381E+00
          2   -1    0    0  502    0  0.00000000000E+00  0.00000000000E+00  0.29391658330E+03  0.29391658330E+03  0.00000000000E+00 0. -1.
         -1   -1    0    0    0  501 -0.00000000000E+00 -0.00000000000E+00 -0.20239075120E+03  0.20239075120E+03  0.00000000000E+00 0.  1.
         23    2    1    2    0    0  0.72007257356E+02  0.94792653247E+02 -0.13234675326E+03  0.19906026010E+03  0.89099000174E+02 0.  0.
         24    2    1    2    0    0 -0.50906535361E+02 -0.68224332998E+02  0.23325589625E+03  0.26204533250E+03  0.83746093588E+02 0.  0.
        -11    1    4    4    0    0 -0.19358098762E+02 -0.80771525987E+01  0.20565431962E+01  0.21076189212E+02  0.00000000000E+00 0.  1.
         12    1    4    4    0    0 -0.31548436599E+02 -0.60147180399E+02  0.23119935305E+03  0.24096914328E+03  0.00000000000E+00 0. -1.
        -11    1    3    3    0    0 -0.20782664922E+02  0.18716425608E+02 -0.17664377319E+02  0.33079509894E+02  0.00000000000E+00 0. -1.
         11    1    3    3    0    0  0.92789922278E+02  0.76076227639E+02 -0.11468237594E+03  0.16598075021E+03  0.00000000000E+00 0.  1.
         21    1    1    2  502  501 -0.21100721996E+02 -0.26568320249E+02 -0.93833108846E+01  0.35201741900E+02  0.00000000000E+00 0. -1.
<scales pt_clust_5="13000.00000" pt_clust_6="13000.00000" pt_clust_7="13000.00000" pt_clust_8="13000.00000" pt_clust_9="33.92810"></scales>
<clustering>
<clus scale="   33.928">  2  9  1 -1</clus>
<clus scale="   83.746">  5  6 -1 -1</clus>
<clus scale="   89.099">  7  8 -1 -1</clus>
<clus scale="  121.360">  1  5  2 -1</clus>
<clus scale="  121.360">  1  5  2 -1</clus>
</clustering>
</event>
<event>
 9    2  0.5608219E-005  0.1139205E+03  0.7546771E-02  0.1257297E+00
         -1   -1    0    0    0  501 -0.00000000000E+00  0.00000000000E+00  0.82945880458E+02  0.82945880458E+02  0.00000000000E+00 0.  1.
          2   -1    0    0  502    0  0.00000000000E+00 -0.00000000000E+00 -0.41792650745E+03  0.41792650745E+03  0.00000000000E+00 0. -1.
         24    2    1    2    0    0 -0.91642433038E+00 -0.95583042383E+02 -0.30612511316E+02  0.12858045998E+03  0.80366977143E+02 0.  0.
         23    2    1    2    0    0  0.16439832613E+02  0.61570936262E+02 -0.31450903299E+03  0.33355386175E+03  0.90999992142E+02 0.  0.
        -11    1    3    3    0    0 -0.29315839179E+02 -0.88586751487E+02 -0.12416777967E+02  0.94133986110E+02  0.00000000000E+00 0.  1.
         12    1    3    3    0    0  0.28399414849E+02 -0.69962908959E+01 -0.18195733349E+02  0.34446473871E+02  0.00000000000E+00 0. -1.
        -11    1    4    4    0    0  0.31574415089E+02  0.78528072743E+02 -0.20636840630E+03  0.22305048984E+03  0.00000000000E+00 0. -1.
         11    1    4    4    0    0 -0.15134582476E+02 -0.16957136482E+02 -0.10814062669E+03  0.11050337191E+03  0.00000000000E+00 0.  1.
         21    1    1    2  502  501 -0.15523408283E+02  0.34012106121E+02  0.10140917308E+02  0.38738066180E+02  0.00000000000E+00 0.  1.
<scales pt_clust_5="13000.00000" pt_clust_6="13000.00000" pt_clust_7="13000.00000" pt_clust_8="13000.00000" pt_clust_9="37.38716"></scales>
<clustering>
<clus scale="   37.387">  1  9  2 -1</clus>
<clus scale="   80.367">  5  6 -1 -1</clus>
<clus scale="   91.000">  7  8 -1 -1</clus>
<clus scale="  105.621">  1  5  2 -1</clus>
<clus scale="  113.921">  2  5  1 -1</clus>
</clustering>
</event>
<event>
 9    2  0.5608219E-005  0.8358719E+02  0.7546771E-02  0.1326452E+00
         -1   -1    0    0    0  501 -0.00000000000E+00  0.00000000000E+00  0.71149436671E+02  0.71149436671E+02  0.00000000000E+00 0.  1.
          2   -1    0    0  502    0  0.00000000000E+00 -0.00000000000E+00 -0.21979238895E+03  0.21979238895E+03  0.00000000000E+00 0. -1.
         24    2    1    2    0    0  0.23169500498E+02  0.63566267545E+01  0.18247048183E+01  0.83140947736E+02  0.79572955115E+02 0.  0.
         23    2    1    2    0    0 -0.15700436985E+02  0.24211826573E+02 -0.15861555443E+03  0.17529540943E+03  0.68824924207E+02 0.  0.
        -13    1    3    3    0    0  0.22754366292E+02  0.39993854922E+02 -0.10706447794E+02  0.47242963934E+02  0.00000000000E+00 0.  1.
         14    1    3    3    0    0  0.41513420551E+00 -0.33637228168E+02  0.12531152612E+02  0.35897983802E+02  0.00000000000E+00 0. -1.
        -11    1    4    4    0    0  0.27197656768E+02  0.11569891300E+02 -0.71583953842E+02  0.77445705923E+02  0.00000000000E+00 0.  1.
         11    1    4    4    0    0 -0.42898093753E+02  0.12641935272E+02 -0.87031600585E+02  0.97849703502E+02  0.00000000000E+00 0. -1.
         21    1    1    2  502  501 -0.74690635125E+01 -0.30568453327E+02  0.81478973330E+01  0.32505468455E+02  0.00000000000E+00 0.  1.
<scales pt_clust_5="13000.00000" pt_clust_6="13000.00000" pt_clust_7="13000.00000" pt_clust_8="13000.00000" pt_clust_9="31.46772"></scales>
<clustering>
<clus scale="   31.468">  1  9  2 -1</clus>
<clus scale="   68.825">  7  8 -1 -1</clus>
<clus scale="   73.429">  2  7  1 -1</clus>
<clus scale="   79.573">  5  6 -1 -1</clus>
<clus scale="   73.429">  2  5  1 -1</clus>
</clustering>
</event>
<event>
 9    2  0.5608219E-005  0.9975834E+02  0.7546771E-02  0.1286332E+00
          2   -1    0    0  502    0  0.00000000000E+00  0.00000000000E+00  0.41329242819E+03  0.41329242819E+03  0.00000000000E+00 0. -1.
         -1   -1    0    0    0  501 -0.00000000000E+00 -0.00000000000E+00 -0.12441246173E+03  0.12441246173E+03  0.00000000000E+00 0.  1.
         23    2    1    2    0    0  0.30172338069E+02  0.23293953928E+01  0.11293471379E+03  0.14818230003E+03  0.91038169995E+02 0.  0.
         24    2    1    2    0    0 -0.42625535674E+02  0.18748603221E+02  0.27359707122E+03  0.28884865175E+03  0.80060850745E+02 0.  0.
        -11    1    4    4    0    0  0.31165434004E+01 -0.27316088663E+02  0.72805859707E+02  0.77823998549E+02  0.00000000000E+00 0.  1.
         12    1    4    4    0    0 -0.45742079074E+02  0.46064691884E+02  0.20079121151E+03  0.21102465320E+03  0.00000000000E+00 0. -1.
        -11    1    3    3    0    0  0.29881882698E+02 -0.36444654838E+02  0.28009937987E+02  0.54824231923E+02  0.00000000000E+00 0.  1.
         11    1    3    3    0    0  0.29045537064E+00  0.38774050231E+02  0.84924775804E+02  0.93358068109E+02  0.00000000000E+00 0. -1.
         21    1    1    2  502  501  0.12453197605E+02 -0.21077998614E+02 -0.97651818551E+02  0.10067393815E+03  0.00000000000E+00 0.  1.
<scales pt_clust_5="13000.00000" pt_clust_6="13000.00000" pt_clust_7="13000.00000" pt_clust_8="13000.00000" pt_clust_9="24.48191"></scales>
<clustering>
<clus scale="   24.482">  2  9  1 -1</clus>
<clus scale="   80.061">  5  6 -1 -1</clus>
<clus scale="   89.853">  1  5  2 -1</clus>
<clus scale="   91.038">  7  8 -1 -1</clus>
<clus scale="   89.853">  1  5  2 -1</clus>
</clustering>
</event>
<event>
 9    2  0.5608219E-005  0.9447868E+02  0.7546771E-02  0.1298980E+00
          4   -1    0    0  502    0  0.00000000000E+00  0.00000000000E+00  0.97322419832E+02  0.97322419832E+02  0.00000000000E+00 0. -1.
         -3   -1    0    0    0  501 -0.00000000000E+00 -0.00000000000E+00 -0.14019589081E+03  0.14019589081E+03  0.00000000000E+00 0.  1.
         24    2    1    2    0    0 -0.16005014041E+02  0.25902989087E+02 -0.51627345411E+02  0.99712362868E+02  0.79687183389E+02 0.  0.
         23    2    1    2    0    0 -0.17228520642E+02 -0.23436842382E+02  0.27600460092E+02  0.99520918089E+02  0.91085236101E+02 0.  0.
        -11    1    3    3    0    0 -0.27658495961E+02 -0.20871725474E+02 -0.33546296294E+02  0.48228366322E+02  0.00000000000E+00 0.  1.
         12    1    3    3    0    0  0.11653481920E+02  0.46774714561E+02 -0.18081049118E+02  0.51483996546E+02  0.00000000000E+00 0. -1.
        -13    1    4    4    0    0  0.24145995341E+02  0.55643963363E+01  0.40404442522E+02  0.47397368842E+02  0.00000000000E+00 0. -1.
         13    1    4    4    0    0 -0.41374515983E+02 -0.29001238718E+02 -0.12803982430E+02  0.52123549247E+02  0.00000000000E+00 0.  1.
         21    1    1    2  502  501  0.33233534683E+02 -0.24661467047E+01 -0.18846585662E+02  0.38285029688E+02  0.00000000000E+00 0. -1.
<scales pt_clust_5="13000.00000" pt_clust_6="13000.00000" pt_clust_7="13000.00000" pt_clust_8="13000.00000" pt_clust_9="33.32491"></scales>
<clustering>
<clus scale="   33.325">  2  9  1 -1</clus>
<clus scale="   79.687">  5  6 -1 -1</clus>
<clus scale="   83.545">  2  5  1 -1</clus>
<clus scale="   91.085">  7  8 -1 -1</clus>
<clus scale="   94.479">  1  5  2 -1</clus>
</clustering>
</event>
<event>
 9    2  0.5608219E-005  0.1135604E+03  0.7546771E-02  0.1257885E+00
         -1   -1    0    0    0  501 -0.00000000000E+00  0.00000000000E+00  0.65418412848E+03  0.65418412848E+03  0.00000000000E+00 0.  1.
          2   -1    0    0  502    0  0.00000000000E+00 -0.00000000000E+00 -0.92273939350E+02  0.92273939350E+02  0.00000000000E+00 0. -1.
         23    2    1    2    0    0  0.10404706620E+02 -0.67086538477E+02  0.43490109173E+03  0.44916787162E+03  0.89464829639E+02 0.  0.
         24    2    1    2    0    0 -0.42742610412E+02  0.56290329801E+02 -0.49948027544E+02  0.11707886967E+03  0.78848743140E+02 0.  0.
        -13    1    4    4    0    0 -0.38450424286E+01  0.58072341996E+02 -0.62263387387E+01  0.58531603005E+02  0.00000000000E+00 0.  1.
         14    1    4    4    0    0 -0.38897567983E+02 -0.17820121957E+01 -0.43721688805E+02  0.58547266669E+02  0.00000000000E+00 0. -1.
        -13    1    3    3    0    0  0.31024567984E+02 -0.81207611981E+02  0.32151394597E+03  0.33305918020E+03  0.00000000000E+00 0.  1.
         13    1    3    3    0    0 -0.20619861363E+02  0.14121073504E+02  0.11338714575E+03  0.11610869141E+03  0.00000000000E+00 0. -1.
         21    1    1    2  502  501  0.32337903792E+02  0.10796208676E+02  0.17695712495E+03  0.18021132654E+03  0.00000000000E+00 0.  1.
<scales pt_clust_5="13000.00000" pt_clust_6="13000.00000" pt_clust_7="13000.00000" pt_clust_8="13000.00000" pt_clust_9="34.09249"></scales>
<clustering>
<clus scale="   34.092">  1  9  2 -1</clus>
<clus scale="   78.849">  5  6 -1 -1</clus>
<clus scale="   89.465">  7  8 -1 -1</clus>
<clus scale="  105.400">  2  5  1 -1</clus>
<clus scale="  105.400">  2  5  1 -1</clus>
</clustering>
</event>
<event>
 9    2  0.5608219E-005  0.1098166E+03  0.7546771E-02  0.1267689E+00
         -1   -1    0    0    0  501 -0.00000000000E+00  0.00000000000E+00  0.11705821144E+03  0.11705821144E+03  0.00000000000E+00 0.  1.
          2   -1    0    0  502    0  0.00000000000E+00 -0.00000000000E+00 -0.24265417627E+03  0.24265417627E+03  0.00000000000E+00 0. -1.
         23    2    1    2    0    0  0.27444459369E+02 -0.27898886686E+02 -0.32309973513E+02  0.10412599590E+03  0.90921627816E+02 0.  0.
         24    2    1    2    0    0 -0.28836048022E+02  0.66170328034E+01 -0.15535763744E+03  0.18995299271E+03  0.10521806471E+03 0.  0.
        -11    1    4    4    0    0 -0.40555154163E+02  0.12664309946E+02 -0.95453699490E+01  0.43545600961E+02  0.00000000000E+00 0.  1.
         12    1    4    4    0    0  0.11719106141E+02 -0.60472771426E+01 -0.14581226749E+03  0.14640739175E+03  0.00000000000E+00 0. -1.
        -11    1    3    3    0    0  0.51181892358E+02 -0.25586081710E+02 -0.48739456758E+02  0.75164940815E+02  0.00000000000E+00 0.  1.
         11    1    3    3    0    0 -0.23737432989E+02 -0.23128049759E+01  0.16429483245E+02  0.28961055082E+02  0.00000000000E+00 0. -1.
         21    1    1    2  502  501  0.13915886533E+01  0.21281853883E+02  0.62071646129E+02  0.65633399095E+02  0.00000000000E+00 0.  1.
<scales pt_clust_5="13000.00000" pt_clust_6="13000.00000" pt_clust_7="13000.00000" pt_clust_8="13000.00000" pt_clust_9="21.32730"></scales>
<clustering>
<clus scale="   21.327">  1  9  2 -1</clus>
<clus scale="   90.922">  7  8 -1 -1</clus>
<clus scale="   96.206">  1  7  2 -1</clus>
<clus scale="  105.218">  5  6 -1 -1</clus>
<clus scale="  109.817">  2  5  1 -1</clus>
</clustering>
</event>
<event>
 9    2  0.5608219E-005  0.2851724E+03  0.7546771E-02  0.1092897E+00
         -1   -1    0    0    0  501 -0.00000000000E+00  0.00000000000E+00  0.92834390495E+02  0.92834390495E+02  0.00000000000E+00 0.  1.
          2   -1    0    0  502    0  0.00000000000E+00 -0.00000000000E+00 -0.78063890457E+03  0.78063890457E+03  0.00000000000E+00 0. -1.
         24    2    1    2    0    0 -0.60054200186E+02 -0.14998511885E+03 -0.45878803078E+03  0.49291992988E+03  0.79884649629E+02 0.  0.
         23    2    1    2    0    0 -0.11502463707E+02 -0.26136971332E+02 -0.14069439841E+03  0.17093433581E+03  0.92780307576E+02 0.  0.
        -13    1    3    3    0    0 -0.47071096349E+02 -0.35455532504E+02 -0.22019048675E+03  0.22793997752E+03  0.00000000000E+00 0.  1.
         14    1    3    3    0    0 -0.12983103837E+02 -0.11452958635E+03 -0.23859754403E+03  0.26497995236E+03  0.00000000000E+00 0. -1.
        -13    1    4    4    0    0 -0.14956853739E+02  0.32015748675E+02 -0.76382295339E+02  0.84160386633E+02  0.00000000000E+00 0. -1.
         13    1    4    4    0    0  0.34543900318E+01 -0.58152720007E+02 -0.64312103072E+02  0.86773949180E+02  0.00000000000E+00 0.  1.
         21    1    1    2  502  501  0.71556663893E+02  0.17612209018E+03 -0.88322084885E+02  0.20961902938E+03  0.00000000000E+00 0.  1.
<scales pt_clust_5="13000.00000" pt_clust_6="13000.00000" pt_clust_7="13000.00000" pt_clust_8="13000.00000" pt_clust_9="190.10352"></scales>
<clustering>
<clus scale="   79.885">  5  6 -1 -1</clus>
<clus scale="   92.780">  7  8 -1 -1</clus>
<clus scale="   93.240">  5  7 -1 -1</clus>
<clus scale="  190.104">  1  9  2 -1</clus>
<clus scale="  285.172">  2  5  1 -1</clus>
</clustering>
</event>
<event>
 9    2  0.5608219E-005  0.2241296E+03  0.7546771E-02  0.1131495E+00
          2   -1    0    0  502    0  0.00000000000E+00  0.00000000000E+00  0.19654868683E+04  0.19654868683E+04  0.00000000000E+00 0. -1.
         -1   -1    0    0    0  501 -0.00000000000E+00 -0.00000000000E+00 -0.47552842567E+02  0.47552842567E+02  0.00000000000E+00 0.  1.
         23    2    1    2    0    0  0.51545643453E+02  0.15138833276E+03  0.31447521435E+03  0.36417495123E+03  0.90295924660E+02 0.  0.
         24    2    1    2    0    0 -0.15325656353E+03 -0.16930229244E+03  0.13986949986E+04  0.14195304181E+04  0.81043618490E+02 0.  0.
        -11    1    4    4    0    0 -0.14078973388E+03 -0.17812298155E+03  0.13088576695E+04  0.13284042851E+04  0.00000000000E+00 0.  1.
         12    1    4    4    0    0 -0.12466829658E+02  0.88206891091E+01  0.89837329154E+02  0.91126132956E+02  0.00000000000E+00 0. -1.
        -11    1    3    3    0    0  0.61710160915E+02  0.11034342335E+03  0.15946917133E+03  0.20350486884E+03  0.00000000000E+00 0.  1.
         11    1    3    3    0    0 -0.10164517462E+02  0.41044909407E+02  0.15500604302E+03  0.16067008239E+03  0.00000000000E+00 0. -1.
         21    1    1    2  502  501  0.10171092008E+03  0.17913959685E+02  0.20476381276E+03  0.22933434158E+03  0.00000000000E+00 0.  1.
<scales pt_clust_5="13000.00000" pt_clust_6="13000.00000" pt_clust_7="13000.00000" pt_clust_8="13000.00000" pt_clust_9="103.27643"></scales>
<clustering>
<clus scale="   81.044">  5  6 -1 -1</clus>
<clus scale="   90.296">  7  8 -1 -1</clus>
<clus scale="  103.276">  2  9  1 -1</clus>
<clus scale="  220.565">  1  5  2 -1</clus>
<clus scale="  220.565">  1  5  2 -1</clus>
</clustering>
</event>
<event>
 9    2  0.5608219E-005  0.1024738E+03  0.7546771E-02  0.1283390E+00
         -1   -1    0    0    0  501 -0.00000000000E+00  0.00000000000E+00  0.17730664031E+03  0.17730664031E+03  0.00000000000E+00 0.  1.
          2   -1    0    0  502    0  0.00000000000E+00 -0.00000000000E+00 -0.17136858804E+03  0.17136858804E+03  0.00000000000E+00 0. -1.
         23    2    1    2    0    0 -0.16178575317E+02 -0.39587946183E+02  0.85415538907E+02  0.13101083762E+03  0.89660880573E+02 0.  0.
         24    2    1    2    0    0  0.88786717943E+02  0.45198193904E+02 -0.76252012591E+02  0.14476843105E+03  0.72232757035E+02 0.  0.
        -11    1    4    4    0    0  0.16045528360E+02 -0.17358238114E+02 -0.25274833499E+01  0.23773001133E+02  0.00000000000E+00 0.  1.
         12    1    4    4    0    0  0.72741189582E+02  0.62556432017E+02 -0.73724529242E+02  0.12099542992E+03  0.00000000000E+00 0. -1.
        -11    1    3    3    0    0  0.83628574586E+01  0.19242527781E+02 -0.38403903294E+01  0.21329811489E+02  0.00000000000E+00 0. -1.
         11    1    3    3    0    0 -0.24541432775E+02 -0.58830473964E+02  0.89255929236E+02  0.10968102613E+03  0.00000000000E+00 0.  1.
         21    1    1    2  502  501 -0.72608142626E+02 -0.56102477203E+01 -0.32254740512E+01  0.72895959682E+02  0.00000000000E+00 0.  1.
<scales pt_clust_5="13000.00000" pt_clust_6="13000.00000" pt_clust_7="13000.00000" pt_clust_8="13000.00000" pt_clust_9="72.82456"></scales>
<clustering>
<clus scale="   72.233">  5  6 -1 -1</clus>
<clus scale="   72.825">  2  9  1 -1</clus>
<clus scale="   87.632">  2  5  1 -1</clus>
<clus scale="   89.661">  7  8 -1 -1</clus>
<clus scale="   72.825">  2  5  1 -1</clus>
</clustering>
</event>
<event>
 9    2  0.5608219E-005  0.1034670E+03  0.7546771E-02  0.1279117E+00
         -1   -1    0    0    0  501 -0.00000000000E+00  0.00000000000E+00  0.89869978566E+02  0.89869978566E+02  0.00000000000E+00 0.  1.
          2   -1    0    0  502    0  0.00000000000E+00 -0.00000000000E+00 -0.17042195048E+03  0.17042195048E+03  0.00000000000E+00 0. -1.
         24    2    1    2    0    0  0.34151215464E+02  0.21380246053E+02 -0.18940260647E+01  0.89508484580E+02  0.79904699725E+02 0.  0.
         23    2    1    2    0    0 -0.76594052411E+02 -0.29258256303E+02 -0.72419404309E+02  0.12716719916E+03  0.64840049321E+02 0.  0.
        -13    1    3    3    0    0  0.30684902728E+02  0.33719197457E+02  0.30377883818E+02  0.54784700034E+02  0.00000000000E+00 0.  1.
         14    1    3    3    0    0  0.34663127360E+01 -0.12338951404E+02 -0.32271909882E+02  0.34723784546E+02  0.00000000000E+00 0. -1.
        -13    1    4    4    0    0 -0.65296724132E+02  0.48749348251E+01 -0.60876126221E+02  0.89405424419E+02  0.00000000000E+00 0. -1.
         13    1    4    4    0    0 -0.11297328279E+02 -0.34133191128E+02 -0.11543278089E+02  0.37761774745E+02  0.00000000000E+00 0.  1.
         21    1    1    2  502  501  0.42442836947E+02  0.78780102501E+01 -0.62385415392E+01  0.43616245301E+02  0.00000000000E+00 0.  1.
<scales pt_clust_5="13000.00000" pt_clust_6="13000.00000" pt_clust_7="13000.00000" pt_clust_8="13000.00000" pt_clust_9="43.16778"></scales>
<clustering>
<clus scale="   43.168">  1  9  2 -1</clus>
<clus scale="   64.840">  7  8 -1 -1</clus>
<clus scale="   79.905">  5  6 -1 -1</clus>
<clus scale="   92.330">  2  7  1 -1</clus>
<clus scale="   92.330">  2  5  1 -1</clus>
</clustering>
</event>
<event>
 9    2  0.5608219E-005  0.1105984E+03  0.7546771E-02  0.1263424E+00
         -1   -1    0    0    0  501 -0.00000000000E+00  0.00000000000E+00  0.11815473702E+03  0.11815473702E+03  0.00000000000E+00 0.  1.
          2   -1    0    0  502    0  0.00000000000E+00 -0.00000000000E+00 -0.36187306222E+03  0.36187306222E+03  0.00000000000E+00 0. -1.
         24    2    1    2    0    0  0.44419911263E+02  0.18728329868E+02  0.56163618447E+02  0.10950619453E+03  0.80705487707E+02 0.  0.
         23    2    1    2    0    0 -0.52696458354E+02 -0.37574907993E+02 -0.32170544033E+03  0.34052227561E+03  0.90951852179E+02 0.  0.
        -13    1    3    3    0    0  0.56160191137E+02  0.39004490214E+02  0.30849860100E+02  0.75013540068E+02  0.00000000000E+00 0.  1.
         14    1    3    3    0    0 -0.11740279874E+02 -0.20276160345E+02  0.25313758346E+02  0.34492654457E+02  0.00000000000E+00 0. -1.
        -11    1    4    4    0    0 -0.32909312915E+02  0.27324977842E+02 -0.14725898929E+03  0.15334564623E+03  0.00000000000E+00 0.  1.
         11    1    4    4    0    0 -0.19787145439E+02 -0.64899885835E+02 -0.17444645104E+03  0.18717662938E+03  0.00000000000E+00 0. -1.
         21    1    1    2  502  501  0.82765470910E+01  0.18846578125E+02  0.21823496682E+02  0.29999329096E+02  0.00000000000E+00 0. -1.
<scales pt_clust_5="13000.00000" pt_clust_6="13000.00000" pt_clust_7="13000.00000" pt_clust_8="13000.00000" pt_clust_9="20.58385"></scales>
<clustering>
<clus scale="   20.584">  1  9  2 -1</clus>
<clus scale="   80.705">  5  6 -1 -1</clus>
<clus scale="   90.952">  7  8 -1 -1</clus>
<clus scale="  102.338">  1  5  2 -1</clus>
<clus scale="  110.598">  2  5  1 -1</clus>
</clustering>
</event>
<event>
 9    2  0.5608219E-005  0.1152998E+03  0.7546771E-02  0.1252961E+00
         -1   -1    0    0    0  501 -0.00000000000E+00  0.00000000000E+00  0.45836489607E+02  0.45836489607E+02  0.00000000000E+00 0.  1.
          2   -1    0    0  502    0  0.00000000000E+00 -0.00000000000E+00 -0.52290653260E+03  0.52290653260E+03  0.00000000000E+00 0. -1.
         23    2    1    2    0    0 -0.22378955797E+02  0.81442270793E+02 -0.10105774138E+03  0.16045658773E+03  0.91651450171E+02 0.  0.
         24    2    1    2    0    0 -0.58825941874E+01 -0.66754405601E+02 -0.35158454606E+03  0.36814712914E+03  0.86196636155E+02 0.  0.
        -11    1    4    4    0    0 -0.34032114383E+02 -0.32423027114E+02 -0.27996332889E+03  0.28388184694E+03  0.00000000000E+00 0.  1.
         12    1    4    4    0    0  0.28149520195E+02 -0.34331378486E+02 -0.71621217170E+02  0.84265282204E+02  0.00000000000E+00 0. -1.
        -11    1    3    3    0    0 -0.24428091371E+02 -0.55315336278E+01 -0.58439313035E+02  0.63580522334E+02  0.00000000000E+00 0. -1.
         11    1    3    3    0    0  0.20491355735E+01  0.86973804421E+02 -0.42618428349E+02  0.96876065398E+02  0.00000000000E+00 0.  1.
         21    1    1    2  502  501  0.28261549985E+02 -0.14687865192E+02 -0.24427755543E+02  0.40139305330E+02  0.00000000000E+00 0.  1.
<scales pt_clust_5="13000.00000" pt_clust_6="13000.00000" pt_clust_7="13000.00000" pt_clust_8="13000.00000" pt_clust_9="31.85041"></scales>
<clustering>
<clus scale="   31.850">  1  9  2 -1</clus>
<clus scale="   86.197">  5  6 -1 -1</clus>
<clus scale="   91.651">  7  8 -1 -1</clus>
<clus scale="  111.013">  2  5  1 -1</clus>
<clus scale="  111.013">  2  5  1 -1</clus>
</clustering>
</event>
<event>
 9    2  0.5608219E-005  0.1291381E+03  0.7546771E-02  0.1232754E+00
          2   -1    0    0  502    0  0.00000000000E+00  0.00000000000E+00  0.33440272481E+03  0.33440272481E+03  0.00000000000E+00 0. -1.
         -1   -1    0    0    0  501 -0.00000000000E+00 -0.00000000000E+00 -0.75768216322E+02  0.75768216322E+02  0.00000000000E+00 0.  1.
         23    2    1    2    0    0  0.33638944722E+02 -0.77485688999E+02  0.44052519394E+02  0.13250678490E+03  0.92096758778E+02 0.  0.
         24    2    1    2    0    0 -0.21127172386E+01  0.94534212798E+02  0.20814056183E+03  0.24124922567E+03  0.77055268740E+02 0.  0.
        -11    1    4    4    0    0  0.20427252598E+02  0.32723357395E+01  0.12434203045E+02  0.24136906083E+02  0.00000000000E+00 0.  1.
         12    1    4    4    0    0 -0.22539969837E+02  0.91261877058E+02  0.19570635879E+03  0.21711231958E+03  0.00000000000E+00 0. -1.
        -11    1    3    3    0    0 -0.17458877678E+02 -0.38344522198E+02  0.52799100911E+02  0.67548944103E+02  0.00000000000E+00 0. -1.
         11    1    3    3    0    0  0.51097822399E+02 -0.39141166800E+02 -0.87465815178E+01  0.64957840795E+02  0.00000000000E+00 0.  1.
         21    1    1    2  502  501 -0.31526227483E+02 -0.17048523799E+02  0.64414272599E+01  0.36414930567E+02  0.00000000000E+00 0.  1.
<scales pt_clust_5="13000.00000" pt_clust_6="13000.00000" pt_clust_7="13000.00000" pt_clust_8="13000.00000" pt_clust_9="35.84069"></scales>
<clustering>
<clus scale="   35.841">  2  9  1 -1</clus>
<clus scale="   77.055">  5  6 -1 -1</clus>
<clus scale="   92.097">  7  8 -1 -1</clus>
<clus scale="  118.880">  1  5  2 -1</clus>
<clus scale="  118.880">  1  5  2 -1</clus>
</clustering>
</event>
<event>
 9    2  0.5608219E-005  0.1522797E+03  0.7546771E-02  0.1219375E+00
         -1   -1    0    0    0  501 -0.00000000000E+00  0.00000000000E+00  0.80798874339E+02  0.80798874339E+02  0.00000000000E+00 0.  1.
          2   -1    0    0  502    0  0.00000000000E+00 -0.00000000000E+00 -0.11329071549E+04  0.11329071549E+04  0.00000000000E+00 0. -1.
         23    2    1    2    0    0 -0.61294301994E+02 -0.71636682817E+02 -0.16108091868E+03  0.20967219659E+03  0.95533040753E+02 0.  0.
         24    2    1    2    0    0  0.14019173233E+02 -0.50254818868E+02 -0.86555863491E+03  0.87083799176E+03  0.80280591619E+02 0.  0.
        -13    1    4    4    0    0 -0.22165711638E+02  0.85004477846E+01 -0.13928024886E+03  0.14128893838E+03  0.00000000000E+00 0.  1.
         14    1    4    4    0    0  0.36184884871E+02 -0.58755266652E+02 -0.72627838604E+03  0.72954905338E+03  0.00000000000E+00 0. -1.
        -11    1    3    3    0    0 -0.23375540297E+02 -0.43624182776E+02 -0.88099803897E+01  0.50270279107E+02  0.00000000000E+00 0. -1.
         11    1    3    3    0    0 -0.37918761697E+02 -0.28012500041E+02 -0.15227093829E+03  0.15940191748E+03  0.00000000000E+00 0.  1.
         21    1    1    2  502  501  0.47275128760E+02  0.12189150168E+03 -0.25468726991E+02  0.13319584091E+03  0.00000000000E+00 0.  1.
<scales pt_clust_5="13000.00000" pt_clust_6="13000.00000" pt_clust_7="13000.00000" pt_clust_8="13000.00000" pt_clust_9="118.58566"></scales>
<clustering>
<clus scale="   80.281">  5  6 -1 -1</clus>
<clus scale="   95.533">  7  8 -1 -1</clus>
<clus scale="   95.745">  2  5  1 -1</clus>
<clus scale="  118.586">  1  9  2 -1</clus>
<clus scale="   95.745">  2  5  1 -1</clus>
</clustering>
</event>
<event>
 9    2  0.5608219E-005  0.2031056E+03  0.7546771E-02  0.1148222E+00
         -3   -1    0    0    0  501 -0.00000000000E+00  0.00000000000E+00  0.25081978605E+03  0.25081978605E+03  0.00000000000E+00 0.  1.
          4   -1    0    0  502    0  0.00000000000E+00 -0.00000000000E+00 -0.50330934356E+03  0.50330934356E+03  0.00000000000E+00 0. -1.
         23    2    1    2    0    0 -0.18340890287E+03  0.30705349765E+02 -0.10446938644E+03  0.23296048636E+03  0.93675457536E+02 0.  0.
         24    2    1    2    0    0  0.17132088140E+03 -0.48208615557E+02 -0.30513246332E+03  0.36262288660E+03  0.81942801372E+02 0.  0.
        -11    1    4    4    0    0  0.95644665425E+02 -0.81787230369E+01 -0.22802278901E+03  0.24740490262E+03  0.00000000000E+00 0.  1.
         12    1    4    4    0    0  0.75676215974E+02 -0.40029892521E+02 -0.77109674316E+02  0.11521798398E+03  0.00000000000E+00 0. -1.
        -11    1    3    3    0    0 -0.21689840590E+02  0.30081042790E+02 -0.50126984454E+02  0.62354092814E+02  0.00000000000E+00 0.  1.
         11    1    3    3    0    0 -0.16171906228E+03  0.62430697490E+00 -0.54342401981E+02  0.17060639354E+03  0.00000000000E+00 0. -1.
         21    1    1    2  502  501  0.12088021475E+02  0.17503265792E+02  0.15711229225E+03  0.15854575665E+03  0.00000000000E+00 0.  1.
<scales pt_clust_5="13000.00000" pt_clust_6="13000.00000" pt_clust_7="13000.00000" pt_clust_8="13000.00000" pt_clust_9="21.27168"></scales>
<clustering>
<clus scale="   21.272">  1  9  2 -1</clus>
<clus scale="   81.943">  5  6 -1 -1</clus>
<clus scale="   93.675">  7  8 -1 -1</clus>
<clus scale="  197.968">  2  5  1 -1</clus>
<clus scale="  197.968">  2  5  1 -1</clus>
</clustering>
</event>
<event>
 9    2  0.5608219E-005  0.1322459E+03  0.7546771E-02  0.1244392E+00
         -1   -1    0    0    0  501 -0.00000000000E+00  0.00000000000E+00  0.77301626444E+02  0.77301626444E+02  0.00000000000E+00 0.  1.
          2   -1    0    0  502    0  0.00000000000E+00 -0.00000000000E+00 -0.59414064470E+03  0.59414064470E+03  0.00000000000E+00 0. -1.
         24    2    1    2    0    0  0.22624122883E+02  0.25415109918E+02 -0.23265967484E+01  0.87373746779E+02  0.80442400670E+02 0.  0.
         23    2    1    2    0    0  0.38585336505E+02  0.76900710033E+02 -0.39785008789E+03  0.41725957671E+03  0.91751373451E+02 0.  0.
        -11    1    3    3    0    0  0.12922645209E+02  0.29545149253E+02  0.35585155665E+02  0.48023055997E+02  0.00000000000E+00 0.  1.
         12    1    3    3    0    0  0.97014776739E+01 -0.41300393354E+01 -0.37911752414E+02  0.39350690782E+02  0.00000000000E+00 0. -1.
        -13    1    4    4    0    0 -0.25547781685E+02  0.10604190234E+01 -0.10317305548E+03  0.10629436963E+03  0.00000000000E+00 0. -1.
         13    1    4    4    0    0  0.64133118190E+02  0.75840291009E+02 -0.29467703241E+03  0.31096520709E+03  0.00000000000E+00 0.  1.
         21    1    1    2  502  501 -0.61209459388E+02 -0.10231581995E+03 -0.11666233362E+03  0.16680894765E+03  0.00000000000E+00 0. -1.
<scales pt_clust_5="13000.00000" pt_clust_6="13000.00000" pt_clust_7="13000.00000" pt_clust_8="13000.00000" pt_clust_9="95.24002"></scales>
<clustering>
<clus scale="   80.442">  5  6 -1 -1</clus>
<clus scale="   87.343">  1  5  2 -1</clus>
<clus scale="   91.751">  7  8 -1 -1</clus>
<clus scale="   95.240">  1  9  2 -1</clus>
<clus scale="  132.246">  2  5  1 -1</clus>
</clustering>
</event>
<event>
 9    2  0.5608219E-005  0.9563757E+02  0.7546771E-02  0.1295937E+00
          2   -1    0    0  502    0  0.00000000000E+00  0.00000000000E+00  0.75818896646E+02  0.75818896646E+02  0.00000000000E+00 0. -1.
         -1   -1    0    0    0  501 -0.00000000000E+00 -0.00000000000E+00 -0.32372703110E+03  0.32372703110E+03  0.00000000000E+00 0.  1.
         24    2    1    2    0    0  0.40717022008E+01 -0.43021429313E+01 -0.21843967343E+03  0.23342165192E+03  0.82065153768E+02 0.  0.
         23    2    1    2    0    0 -0.23023537317E+02 -0.12690436722E+02  0.30316911773E+02  0.10114573616E+03  0.92845109447E+02 0.  0.
        -13    1    3    3    0    0  0.26477368073E+02  0.26021344814E+02 -0.15705377000E+03  0.16138168445E+03  0.00000000000E+00 0.  1.
         14    1    3    3    0    0 -0.22405665872E+02 -0.30323487746E+02 -0.61385903434E+02  0.72039967467E+02  0.00000000000E+00 0. -1.
        -11    1    4    4    0    0  0.30645323332E+02 -0.80449820199E+01 -0.10696186978E+02  0.33440484351E+02  0.00000000000E+00 0.  1.
         11    1    4    4    0    0 -0.53668860649E+02 -0.46454547024E+01  0.41013098750E+02  0.67705251804E+02  0.00000000000E+00 0. -1.
         21    1    1    2  502  501  0.18951835116E+02  0.16992579654E+02 -0.59785372794E+02  0.64978539671E+02  0.00000000000E+00 0.  1.
<scales pt_clust_5="13000.00000" pt_clust_6="13000.00000" pt_clust_7="13000.00000" pt_clust_8="13000.00000" pt_clust_9="25.45427"></scales>
<clustering>
<clus scale="   25.454">  2  9  1 -1</clus>
<clus scale="   82.065">  5  6 -1 -1</clus>
<clus scale="   85.212">  2  5  1 -1</clus>
<clus scale="   92.845">  7  8 -1 -1</clus>
<clus scale="   95.638">  1  5  2 -1</clus>
</clustering>
</event>
<event>
 9    2  0.5608219E-005  0.1414645E+03  0.7546771E-02  0.1214713E+00
         -1   -1    0    0    0  501 -0.00000000000E+00  0.00000000000E+00  0.19111449762E+03  0.19111449762E+03  0.00000000000E+00 0.  1.
          2   -1    0    0  502    0  0.00000000000E+00 -0.00000000000E+00 -0.33560165172E+03  0.33560165172E+03  0.00000000000E+00 0. -1.
         23    2    1    2    0    0 -0.77777423322E+01 -0.96116470113E+02  0.10361638476E+03  0.17073199035E+03  0.95468257736E+02 0.  0.
         24    2    1    2    0    0  0.35867306222E+02  0.15910594334E+03 -0.20769226903E+03  0.27604813417E+03  0.80407268960E+02 0.  0.
        -11    1    4    4    0    0  0.35356008609E+02  0.16206881669E+03 -0.16748203532E+03  0.23572564740E+03  0.00000000000E+00 0.  1.
         12    1    4    4    0    0  0.51129761258E+00 -0.29628733545E+01 -0.40210233714E+02  0.40322486768E+02  0.00000000000E+00 0. -1.
        -11    1    3    3    0    0  0.23927254955E+02 -0.10020672916E+03  0.86191028276E+02  0.13432347320E+03  0.00000000000E+00 0.  1.
         11    1    3    3    0    0 -0.31704997287E+02  0.40902590467E+01  0.17425356485E+02  0.36408517145E+02  0.00000000000E+00 0. -1.
         21    1    1    2  502  501 -0.28089563890E+02 -0.62989473223E+02 -0.40411269821E+02  0.79936024826E+02  0.00000000000E+00 0. -1.
<scales pt_clust_5="13000.00000" pt_clust_6="13000.00000" pt_clust_7="13000.00000" pt_clust_8="13000.00000" pt_clust_9="68.96881"></scales>
<clustering>
<clus scale="   68.969">  2  9  1 -1</clus>
<clus scale="   80.407">  5  6 -1 -1</clus>
<clus scale="   95.468">  7  8 -1 -1</clus>
<clus scale="  131.770">  2  5  1 -1</clus>
<clus scale="   68.969">  2  5  1 -1</clus>
</clustering>
</event>
<event>
 9    2  0.5608219E-005  0.1085322E+03  0.7546771E-02  0.1265224E+00
          2   -1    0    0  502    0  0.00000000000E+00  0.00000000000E+00  0.14579199273E+04  0.14579199273E+04  0.00000000000E+00 0. -1.
         -1   -1    0    0    0  501 -0.00000000000E+00 -0.00000000000E+00 -0.25926822214E+02  0.25926822214E+02  0.00000000000E+00 0.  1.
         23    2    1    2    0    0  0.59113710240E+02  0.79692332268E+02  0.23175045064E+03  0.26862923496E+03  0.92779825077E+02 0.  0.
         24    2    1    2    0    0 -0.24350171675E+02 -0.44675845589E+02  0.10862563775E+04  0.10910099089E+04  0.88095640041E+02 0.  0.
        -13    1    4    4    0    0  0.11615823906E+02 -0.18955700167E+02  0.63158666504E+02  0.66957173540E+02  0.00000000000E+00 0.  1.
         14    1    4    4    0    0 -0.35965995581E+02 -0.25720145422E+02  0.10230977110E+04  0.10240527354E+04  0.00000000000E+00 0. -1.
        -11    1    3    3    0    0 -0.84541332014E+01  0.63681481124E+02  0.87649169838E+02  0.10867005282E+03  0.00000000000E+00 0.  1.
         11    1    3    3    0    0  0.67567843441E+02  0.16010851143E+02  0.14410128080E+03  0.15995918214E+03  0.00000000000E+00 0. -1.
         21    1    1    2  502  501 -0.34763538565E+02 -0.35016486678E+02  0.11398627703E+03  0.12420760566E+03  0.00000000000E+00 0. -1.
<scales pt_clust_5="13000.00000" pt_clust_6="13000.00000" pt_clust_7="13000.00000" pt_clust_8="13000.00000" pt_clust_9="49.34225"></scales>
<clustering>
<clus scale="   49.342">  2  9  1 -1</clus>
<clus scale="   88.096">  5  6 -1 -1</clus>
<clus scale="   92.780">  7  8 -1 -1</clus>
<clus scale="  104.556">  1  5  2 -1</clus>
<clus scale="  104.556">  1  5  2 -1</clus>
</clustering>
</event>
<event>
 9    2  0.5608219E-005  0.2169694E+03  0.7546771E-02  0.1136954E+00
         -1   -1    0    0    0  501 -0.00000000000E+00  0.00000000000E+00  0.27924096907E+03  0.27924096907E+03  0.00000000000E+00 0.  1.
          2   -1    0    0  502    0  0.00000000000E+00 -0.00000000000E+00 -0.11151626578E+04  0.11151626578E+04  0.00000000000E+00 0. -1.
         23    2    1    2    0    0 -0.10304295621E+03  0.25325194501E+02  0.16625816258E+03  0.21690025394E+03  0.90248142560E+02 0.  0.
         24    2    1    2    0    0  0.14878310753E+03 -0.13893135436E+03 -0.10291328476E+04  0.10521040707E+04  0.79813678965E+02 0.  0.
        -13    1    4    4    0    0  0.28085452500E+02  0.46584462680E+01 -0.89067494494E+02  0.93506750233E+02  0.00000000000E+00 0.  1.
         14    1    4    4    0    0  0.12069765503E+03 -0.14358980063E+03 -0.94006535307E+03  0.95859732047E+03  0.00000000000E+00 0. -1.
        -11    1    3    3    0    0 -0.11426531132E+03  0.59843150892E+01  0.15247321130E+03  0.19063172234E+03  0.00000000000E+00 0.  1.
         11    1    3    3    0    0  0.11222355115E+02  0.19340879412E+02  0.13784951282E+02  0.26268531603E+02  0.00000000000E+00 0. -1.
         21    1    1    2  502  501 -0.45740151325E+02  0.11360615986E+03  0.26952996215E+02  0.12539930226E+03  0.00000000000E+00 0.  1.
<scales pt_clust_5="13000.00000" pt_clust_6="13000.00000" pt_clust_7="13000.00000" pt_clust_8="13000.00000" pt_clust_9="122.46845"></scales>
<clustering>
<clus scale="   79.814">  5  6 -1 -1</clus>
<clus scale="   90.248">  7  8 -1 -1</clus>
<clus scale="  122.468">  1  9  2 -1</clus>
<clus scale="  212.841">  2  5  1 -1</clus>
<clus scale="  212.841">  2  5  1 -1</clus>
</clustering>
</event>
<event>
 9    2  0.5608219E-005  0.3125903E+03  0.7546771E-02  0.1079384E+00
          2   -1    0    0  502    0  0.00000000000E+00  0.00000000000E+00  0.17362832160E+04  0.17362832160E+04  0.00000000000E+00 0. -1.
         -1   -1    0    0    0  501 -0.00000000000E+00 -0.00000000000E+00 -0.12759644234E+03  0.12759644234E+03  0.00000000000E+00 0.  1.
         23    2    1    2    0    0 -0.34785592690E+02  0.24720274597E+03  0.83976887497E+02  0.27878450176E+03  0.91375301444E+02 0.  0.
         24    2    1    2    0    0  0.81099315215E+02 -0.29717905298E+03  0.14469168591E+04  0.14816816796E+04  0.83184819109E+02 0.  0.
        -13    1    4    4    0    0  0.30849310540E+02 -0.18812826718E+02  0.15354659604E+03  0.15774079867E+03  0.00000000000E+00 0.  1.
         14    1    4    4    0    0  0.50250004675E+02 -0.27836622626E+03  0.12933702631E+04  0.13239408810E+04  0.00000000000E+00 0. -1.
        -11    1    3    3    0    0  0.19735886781E+01  0.14716945942E+03  0.70570261967E+01  0.14735177792E+03  0.00000000000E+00 0.  1.
         11    1    3    3    0    0 -0.36759181368E+02  0.10003328655E+03  0.76919861300E+02  0.13143272384E+03  0.00000000000E+00 0. -1.
         21    1    1    2  502  501 -0.46313722524E+02  0.49976307015E+02  0.77793027062E+02  0.10341347696E+03  0.00000000000E+00 0.  1.
<scales pt_clust_5="13000.00000" pt_clust_6="13000.00000" pt_clust_7="13000.00000" pt_clust_8="13000.00000" pt_clust_9="68.13657"></scales>
<clustering>
<clus scale="   68.137">  2  9  1 -1</clus>
<clus scale="   83.185">  5  6 -1 -1</clus>
<clus scale="   91.375">  7  8 -1 -1</clus>
<clus scale="  310.295">  1  5  2 -1</clus>
<clus scale="  310.295">  1  5  2 -1</clus>
</clustering>
</event>
<event>
 9    2  0.5608219E-005  0.1785280E+03  0.7546771E-02  0.1195900E+00
         -3   -1    0    0    0  501 -0.00000000000E+00  0.00000000000E+00  0.17202977751E+03  0.17202977751E+03  0.00000000000E+00 0.  1.
          4   -1    0    0  502    0  0.00000000000E+00 -0.00000000000E+00 -0.46936474768E+03  0.46936474768E+03  0.00000000000E+00 0. -1.
         24    2    1    2    0    0  0.95692036630E+02  0.12565069733E+03  0.63857621049E+02  0.18817337681E+03  0.79914706771E+02 0.  0.
         23    2    1    2    0    0 -0.21468115516E+02  0.24684746838E+02 -0.18815341149E+03  0.21228029680E+03  0.92687655300E+02 0.  0.
        -11    1    3    3    0    0  0.10244118708E+03  0.13210120506E+03  0.57107371332E+02  0.17665270179E+03  0.00000000000E+00 0.  1.
         12    1    3    3    0    0 -0.67491504495E+01 -0.64505077250E+01  0.67502497162E+01  0.11520675021E+02  0.00000000000E+00 0. -1.
        -13    1    4    4    0    0  0.12292404304E+02 -0.28945607951E+02 -0.38155083555E+02  0.49444532806E+02  0.00000000000E+00 0.  1.
         13    1    4    4    0    0 -0.33760519820E+02  0.53630354789E+02 -0.14999832794E+03  0.16283576400E+03  0.00000000000E+00 0. -1.
         21    1    1    2  502  501 -0.74223921115E+02 -0.15033544417E+03 -0.17303917973E+03  0.24094085158E+03  0.00000000000E+00 0. -1.
<scales pt_clust_5="13000.00000" pt_clust_6="13000.00000" pt_clust_7="13000.00000" pt_clust_8="13000.00000" pt_clust_9="159.64301"></scales>
<clustering>
<clus scale="   79.915">  5  6 -1 -1</clus>
<clus scale="   92.688">  7  8 -1 -1</clus>
<clus scale="   98.291">  2  7  1 -1</clus>
<clus scale="  159.643">  2  9  1 -1</clus>
<clus scale="   98.291">  2  5  1 -1</clus>
</clustering>
</event>
<event>
 9    2  0.5608219E-005  0.9471153E+02  0.7546771E-02  0.1298796E+00
         -1   -1    0    0    0  501 -0.00000000000E+00  0.00000000000E+00  0.22274907904E+03  0.22274907904E+03  0.00000000000E+00 0.  1.
          2   -1    0    0  502    0  0.00000000000E+00 -0.00000000000E+00 -0.18557614848E+03  0.18557614848E+03  0.00000000000E+00 0. -1.
         24    2    1    2    0    0  0.14367476981E+02 -0.42687881466E+02  0.14443906709E+03  0.17161819440E+03  0.81002968630E+02 0.  0.
         23    2    1    2    0    0 -0.75851682715E+01  0.15108619183E+02 -0.15484207715E+03  0.18129868046E+03  0.92775737816E+02 0.  0.
        -13    1    3    3    0    0 -0.22827174146E+02 -0.45521165712E+02  0.10832649452E+03  0.11969914712E+03  0.00000000000E+00 0.  1.
         14    1    3    3    0    0  0.37194651126E+02  0.28332842456E+01  0.36112572574E+02  0.51919047275E+02  0.00000000000E+00 0. -1.
        -11    1    4    4    0    0  0.65913663136E+01  0.53122041175E+02 -0.82145624765E+02  0.98047442784E+02  0.00000000000E+00 0. -1.
         11    1    4    4    0    0 -0.14176534585E+02 -0.38013421992E+02 -0.72696452387E+02  0.83251237673E+02  0.00000000000E+00 0.  1.
         21    1    1    2  502  501 -0.67823087092E+01  0.27579262283E+02  0.47575940626E+02  0.55408352673E+02  0.00000000000E+00 0. -1.
<scales pt_clust_5="13000.00000" pt_clust_6="13000.00000" pt_clust_7="13000.00000" pt_clust_8="13000.00000" pt_clust_9="28.40098"></scales>
<clustering>
<clus scale="   28.401">  1  9  2 -1</clus>
<clus scale="   81.003">  5  6 -1 -1</clus>
<clus scale="   83.213">  1  5  2 -1</clus>
<clus scale="   92.776">  7  8 -1 -1</clus>
<clus scale="   94.712">  2  5  1 -1</clus>
</clustering>
</event>
<event>
 9    2  0.5608219E-005  0.1543713E+03  0.7546771E-02  0.1197137E+00
         -1   -1    0    0    0  501 -0.00000000000E+00  0.00000000000E+00  0.34184730619E+03  0.34184730619E+03  0.00000000000E+00 0.  1.
          2   -1    0    0  502    0  0.00000000000E+00 -0.00000000000E+00 -0.18443120737E+03  0.18443120737E+03  0.00000000000E+00 0. -1.
         24    2    1    2    0    0 -0.38532460695E+02  0.10086676882E+03  0.20385990690E+03  0.24419032004E+03  0.80069939308E+02 0.  0.
         23    2    1    2    0    0  0.38600429931E+02 -0.12123834086E+03 -0.12533822371E+03  0.20060608270E+03  0.91347696233E+02 0.  0.
        -11    1    3    3    0    0 -0.96472306281E+01  0.10433775608E+03  0.16819894232E+03  0.19816740550E+03  0.00000000000E+00 0.  1.
         12    1    3    3    0    0 -0.28885230067E+02 -0.34709872583E+01  0.35660964574E+02  0.46022914542E+02  0.00000000000E+00 0. -1.
        -11    1    4    4    0    0  0.34077160150E+02 -0.86047958792E+02 -0.13514330481E+03  0.16379626641E+03  0.00000000000E+00 0. -1.
         11    1    4    4    0    0  0.45232697809E+01 -0.35190382065E+02  0.98050810988E+01  0.36809816282E+02  0.00000000000E+00 0.  1.
         21    1    1    2  502  501 -0.67969236053E-01  0.20371572032E+02  0.78894415627E+02  0.81482110822E+02  0.00000000000E+00 0.  1.
<scales pt_clust_5="13000.00000" pt_clust_6="13000.00000" pt_clust_7="13000.00000" pt_clust_8="13000.00000" pt_clust_9="20.37169"></scales>
<clustering>
<clus scale="   20.372">  1  9  2 -1</clus>
<clus scale="   80.070">  5  6 -1 -1</clus>
<clus scale="   91.348">  7  8 -1 -1</clus>
<clus scale="  147.977">  1  5  2 -1</clus>
<clus scale="  154.371">  2  5  1 -1</clus>
</clustering>
</event>
<event>
 9    2  0.5608219E-005  0.1541406E+03  0.7546771E-02  0.1205315E+00
         -1   -1    0    0    0  501 -0.00000000000E+00  0.00000000000E+00  0.41545518060E+02  0.41545518060E+02  0.00000000000E+00 0.  1.
          2   -1    0    0  502    0  0.00000000000E+00 -0.00000000000E+00 -0.17112554369E+04  0.17112554369E+04  0.00000000000E+00 0. -1.
         23    2    1    2    0    0  0.75910452954E+02  0.35839534177E+02 -0.11734397341E+03  0.17108340083E+03  0.91940485460E+02 0.  0.
         24    2    1    2    0    0  0.15674224150E+02  0.10374072033E+03 -0.74570980716E+03  0.75796727283E+03  0.86159455844E+02 0.  0.
        -11    1    4    4    0    0  0.36518164122E+02  0.52802508489E+02 -0.21416606108E+03  0.22358171422E+03  0.00000000000E+00 0.  1.
         12    1    4    4    0    0 -0.20843939971E+02  0.50938211839E+02 -0.53154374608E+03  0.53438555861E+03  0.00000000000E+00 0. -1.
        -13    1    3    3    0    0  0.91612598917E+02  0.82839881894E+01 -0.78438410651E+02  0.12088869677E+03  0.00000000000E+00 0.  1.
         13    1    3    3    0    0 -0.15702145963E+02  0.27555545987E+02 -0.38905562759E+02  0.50194704064E+02  0.00000000000E+00 0. -1.
         21    1    1    2  502  501 -0.91584677104E+02 -0.13958025450E+03 -0.80665613823E+03  0.82375028125E+03  0.00000000000E+00 0. -1.
<scales pt_clust_5="13000.00000" pt_clust_6="13000.00000" pt_clust_7="13000.00000" pt_clust_8="13000.00000" pt_clust_9="127.81192"></scales>
<clustering>
<clus scale="   86.159">  5  6 -1 -1</clus>
<clus scale="   91.940">  7  8 -1 -1</clus>
<clus scale="  124.499">  1  7  2 -1</clus>
<clus scale="  127.812">  1  9  2 -1</clus>
<clus scale="  154.141">  2  5  1 -1</clus>
</clustering>
</event>
<event>
 9    2  0.5608219E-005  0.1258919E+03  0.7546771E-02  0.1236905E+00
         -1   -1    0    0    0  501 -0.00000000000E+00  0.00000000000E+00  0.36302638692E+02  0.36302638692E+02  0.00000000000E+00 0.  1.
          2   -1    0    0  502    0  0.00000000000E+00 -0.00000000000E+00 -0.84837958549E+03  0.84837958549E+03  0.00000000000E+00 0. -1.
         23    2    1    2    0    0 -0.44189252772E+02 -0.44869639270E+02 -0.98736349062E+02  0.14870221001E+03  0.91637907265E+02 0.  0.
         24    2    1    2    0    0  0.66330341078E+02  0.62776035606E+02 -0.68535719635E+03  0.69605586641E+03  0.80241745871E+02 0.  0.
        -11    1    4    4    0    0  0.28880590397E+02  0.66056568880E+01 -0.58502983132E+02  0.65576842254E+02  0.00000000000E+00 0.  1.
         12    1    4    4    0    0  0.37449750681E+02  0.56170378718E+02 -0.62685421322E+03  0.63047902416E+03  0.00000000000E+00 0. -1.
        -11    1    3    3    0    0 -0.68113895638E+02 -0.99417737396E+01 -0.59779842971E+02  0.91170012996E+02  0.00000000000E+00 0.  1.
         11    1    3    3    0    0  0.23924642866E+02 -0.34927865531E+02 -0.38956506091E+02  0.57532197017E+02  0.00000000000E+00 0. -1.
         21    1    1    2  502  501 -0.22141088306E+02 -0.17906396336E+02 -0.27983401386E+02  0.39924147758E+02  0.00000000000E+00 0.  1.
<scales pt_clust_5="13000.00000" pt_clust_6="13000.00000" pt_clust_7="13000.00000" pt_clust_8="13000.00000" pt_clust_9="28.47572"></scales>
<clustering>
<clus scale="   28.476">  1  9  2 -1</clus>
<clus scale="   80.242">  5  6 -1 -1</clus>
<clus scale="   91.638">  7  8 -1 -1</clus>
<clus scale="  117.856">  2  5  1 -1</clus>
<clus scale="  117.856">  2  5  1 -1</clus>
</clustering>
</event>
<event>
 9    2  0.5608219E-005  0.9740216E+02  0.7546771E-02  0.1292406E+00
          2   -1    0    0  502    0  0.00000000000E+00  0.00000000000E+00  0.14338613037E+04  0.14338613037E+04  0.00000000000E+00 0. -1.
         -1   -1    0    0    0  501 -0.00000000000E+00 -0.00000000000E+00 -0.12903167444E+02  0.12903167444E+02  0.00000000000E+00 0.  1.
         23    2    1    2    0    0 -0.49471534528E+01 -0.39793844048E+02  0.25945977323E+03  0.27833618198E+03  0.92431769016E+02 0.  0.
         24    2    1    2    0    0 -0.15785387778E+02  0.25873441409E+02  0.10739631866E+04  0.10774006945E+04  0.80478052498E+02 0.  0.
        -11    1    4    4    0    0  0.12434582891E+02  0.32518767040E+02  0.20363013365E+03  0.20658489875E+03  0.00000000000E+00 0.  1.
         12    1    4    4    0    0 -0.28219970669E+02 -0.66453256311E+01  0.87033305295E+03  0.87081579577E+03  0.00000000000E+00 0. -1.
        -13    1    3    3    0    0  0.37163861988E+02 -0.10124799631E+02  0.17673508492E+03  0.18088381478E+03  0.00000000000E+00 0.  1.
         13    1    3    3    0    0 -0.42111015441E+02 -0.29669044417E+02  0.82724688307E+02  0.97452367203E+02  0.00000000000E+00 0. -1.
         21    1    1    2  502  501  0.20732541231E+02  0.13920402640E+02  0.87535176442E+02  0.91027594664E+02  0.00000000000E+00 0.  1.
<scales pt_clust_5="13000.00000" pt_clust_6="13000.00000" pt_clust_7="13000.00000" pt_clust_8="13000.00000" pt_clust_9="24.97230"></scales>
<clustering>
<clus scale="   24.972">  2  9  1 -1</clus>
<clus scale="   80.478">  5  6 -1 -1</clus>
<clus scale="   86.141">  1  5  2 -1</clus>
<clus scale="   92.432">  7  8 -1 -1</clus>
<clus scale="   86.141">  1  5  2 -1</clus>
</clustering>
</event>
<event>
 9    2  0.5608219E-005  0.1091200E+03  0.7546771E-02  0.1265797E+00
          2   -1    0    0  502    0  0.00000000000E+00  0.00000000000E+00  0.44840207869E+03  0.44840207869E+03  0.00000000000E+00 0. -1.
         -1   -1    0    0    0  501 -0.00000000000E+00 -0.00000000000E+00 -0.38985457973E+02  0.38985457973E+02  0.00000000000E+00 0.  1.
         23    2    1    2    0    0  0.10867717420E+02 -0.57897319487E+02  0.11242940220E+03  0.15590512939E+03  0.90530834560E+02 0.  0.
         24    2    1    2    0    0 -0.43269748449E+02  0.48007569771E+02  0.26585588816E+03  0.28547307676E+03  0.81477152614E+02 0.  0.
        -13    1    4    4    0    0 -0.15689460119E+02  0.39536662993E+02  0.42040110518E+02  0.59805332303E+02  0.00000000000E+00 0.  1.
         14    1    4    4    0    0 -0.27580288331E+02  0.84709067777E+01  0.22381577764E+03  0.22566774445E+03  0.00000000000E+00 0. -1.
        -13    1    3    3    0    0  0.39577182980E+02 -0.25808535307E+02  0.15306912843E+02  0.49666240930E+02  0.00000000000E+00 0.  1.
         13    1    3    3    0    0 -0.28709465560E+02 -0.32088784181E+02  0.97122489356E+02  0.10623888846E+03  0.00000000000E+00 0. -1.
         21    1    1    2  502  501  0.32402031030E+02  0.98897497162E+01  0.31131330357E+02  0.46009330511E+02  0.00000000000E+00 0.  1.
<scales pt_clust_5="13000.00000" pt_clust_6="13000.00000" pt_clust_7="13000.00000" pt_clust_8="13000.00000" pt_clust_9="33.87770"></scales>
<clustering>
<clus scale="   33.878">  2  9  1 -1</clus>
<clus scale="   81.477">  5  6 -1 -1</clus>
<clus scale="   90.531">  7  8 -1 -1</clus>
<clus scale="  101.734">  1  5  2 -1</clus>
<clus scale="  101.734">  1  5  2 -1</clus>
</clustering>
</event>
<event>
 9    2  0.5608219E-005  0.1196289E+03  0.7546771E-02  0.1255222E+00
         -1   -1    0    0    0  501 -0.00000000000E+00  0.00000000000E+00  0.13461464898E+03  0.13461464898E+03  0.00000000000E+00 0.  1.
          2   -1    0    0  502    0  0.00000000000E+00 -0.00000000000E+00 -0.22557160722E+03  0.22557160722E+03  0.00000000000E+00 0. -1.
         23    2    1    2    0    0 -0.52479456646E+02  0.54982323523E+02  0.26721253680E+01  0.13284376021E+03  0.10891820373E+03 0.  0.
         24    2    1    2    0    0  0.25275546186E+02 -0.36297650926E+02 -0.14161789777E+03  0.16910079255E+03  0.81136159490E+02 0.  0.
        -11    1    4    4    0    0 -0.74896059773E+00 -0.22239679259E+02  0.21181486616E+01  0.22352870716E+02  0.00000000000E+00 0.  1.
         12    1    4    4    0    0  0.26024506784E+02 -0.14057971667E+02 -0.14373604643E+03  0.14674792184E+03  0.00000000000E+00 0. -1.
        -11    1    3    3    0    0 -0.35276387396E+01  0.21876263313E+02 -0.49360207190E+02  0.54105870157E+02  0.00000000000E+00 0. -1.
         11    1    3    3    0    0 -0.48951817907E+02  0.33106060209E+02  0.52032332558E+02  0.78737890055E+02  0.00000000000E+00 0.  1.
         21    1    1    2  502  501  0.27203910460E+02 -0.18684672597E+02  0.47988814164E+02  0.58241703437E+02  0.00000000000E+00 0.  1.
<scales pt_clust_5="13000.00000" pt_clust_6="13000.00000" pt_clust_7="13000.00000" pt_clust_8="13000.00000" pt_clust_9="33.00257"></scales>
<clustering>
<clus scale="   33.003">  1  9  2 -1</clus>
<clus scale="   81.136">  5  6 -1 -1</clus>
<clus scale="   95.031">  2  5  1 -1</clus>
<clus scale="  108.918">  7  8 -1 -1</clus>
<clus scale="   95.031">  2  5  1 -1</clus>
</clustering>
</event>
<event>
 9    2  0.5608219E-005  0.1287815E+03  0.7546771E-02  0.1233232E+00
          2   -1    0    0  502    0  0.00000000000E+00  0.00000000000E+00  0.52244603025E+03  0.52244603025E+03  0.00000000000E+00 0. -1.
         -1   -1    0    0    0  501 -0.00000000000E+00 -0.00000000000E+00 -0.14144086318E+03  0.14144086318E+03  0.00000000000E+00 0.  1.
         23    2    1    2    0    0 -0.76682257209E+02  0.60998721114E+02 -0.74075283960E+02  0.15468606610E+03  0.94019246979E+02 0.  0.
         24    2    1    2    0    0  0.54958019473E+02 -0.68094106436E+02  0.46815104177E+03  0.48287351566E+03  0.79650756272E+02 0.  0.
        -11    1    4    4    0    0  0.11456035959E+02  0.18284732427E+02  0.90075746067E+02  0.92624036995E+02  0.00000000000E+00 0.  1.
         12    1    4    4    0    0  0.43501983513E+02 -0.86378838862E+02  0.37807529570E+03  0.39024947866E+03  0.00000000000E+00 0. -1.
        -11    1    3    3    0    0 -0.94420867572E+02  0.37894610245E+02 -0.73568627005E+02  0.12555335359E+03  0.00000000000E+00 0.  1.
         11    1    3    3    0    0  0.17738610363E+02  0.23104110870E+02 -0.50665695548E+00  0.29132712506E+02  0.00000000000E+00 0. -1.
         21    1    1    2  502  501  0.21724237737E+02  0.70953853211E+01 -0.13070590742E+02  0.26327311683E+02  0.00000000000E+00 0. -1.
<scales pt_clust_5="13000.00000" pt_clust_6="13000.00000" pt_clust_7="13000.00000" pt_clust_8="13000.00000" pt_clust_9="22.85360"></scales>
<clustering>
<clus scale="   22.854">  2  9  1 -1</clus>
<clus scale="   79.651">  5  6 -1 -1</clus>
<clus scale="   94.019">  7  8 -1 -1</clus>
<clus scale="  118.698">  1  5  2 -1</clus>
<clus scale="  118.698">  1  5  2 -1</clus>
</clustering>
</event>
<event>
 9    2  0.5608219E-005  0.9404210E+02  0.7546771E-02  0.1297711E+00
          2   -1    0    0  502    0  0.00000000000E+00  0.00000000000E+00  0.31517369284E+02  0.31517369284E+02  0.00000000000E+00 0. -1.
         -1   -1    0    0    0  501 -0.00000000000E+00 -0.00000000000E+00 -0.69648776350E+03  0.69648776350E+03  0.00000000000E+00 0.  1.
         24    2    1    2    0    0  0.11732417390E+02 -0.29805169469E+02 -0.53276479581E+03  0.53983789250E+03  0.80997683758E+02 0.  0.
         23    2    1    2    0    0  0.22528317274E+02  0.32458414898E+02 -0.81067962351E+02  0.12655640137E+03  0.88788706662E+02 0.  0.
        -13    1    3    3    0    0 -0.12816890956E+02 -0.50711869145E+02 -0.26285522673E+03  0.26800902333E+03  0.00000000000E+00 0.  1.
         14    1    3    3    0    0  0.24549308346E+02  0.20906699677E+02 -0.26990956908E+03  0.27182886917E+03  0.00000000000E+00 0. -1.
        -11    1    4    4    0    0  0.41177514384E+02 -0.11196268200E+02 -0.62292595847E+02  0.75507030201E+02  0.00000000000E+00 0.  1.
         11    1    4    4    0    0 -0.18649197109E+02  0.43654683098E+02 -0.18775366503E+02  0.51049371167E+02  0.00000000000E+00 0. -1.
         21    1    1    2  502  501 -0.34260734664E+02 -0.26532454297E+01 -0.51137636055E+02  0.61610838919E+02  0.00000000000E+00 0. -1.
<scales pt_clust_5="13000.00000" pt_clust_6="13000.00000" pt_clust_7="13000.00000" pt_clust_8="13000.00000" pt_clust_9="34.36332"></scales>
<clustering>
<clus scale="   34.363">  1  9  2 -1</clus>
<clus scale="   80.998">  5  6 -1 -1</clus>
<clus scale="   86.724">  2  5  1 -1</clus>
<clus scale="   88.789">  7  8 -1 -1</clus>
<clus scale="   34.363">  1  5  2 -1</clus>
</clustering>
</event>
<event>
 9    2  0.5608219E-005  0.1504187E+03  0.7546771E-02  0.1202036E+00
         -1   -1    0    0    0  501 -0.00000000000E+00  0.00000000000E+00  0.62025268776E+02  0.62025268776E+02  0.00000000000E+00 0.  1.
          2   -1    0    0  502    0  0.00000000000E+00 -0.00000000000E+00 -0.53951982821E+03  0.53951982821E+03  0.00000000000E+00 0. -1.
         23    2    1    2    0    0 -0.81999229963E+02 -0.52300774216E+02 -0.74810828854E+02  0.15278846375E+03  0.91040704312E+02 0.  0.
         24    2    1    2    0    0  0.12220886674E+03  0.43140971327E+02 -0.35168915481E+03  0.38317337595E+03  0.79626778860E+02 0.  0.
        -13    1    4    4    0    0  0.85508679597E+02  0.25551899903E+02 -0.12940950739E+03  0.15719877378E+03  0.00000000000E+00 0.  1.
         14    1    4    4    0    0  0.36700187141E+02  0.17589071424E+02 -0.22227964742E+03  0.22597460217E+03  0.00000000000E+00 0. -1.
        -11    1    3    3    0    0 -0.34608392020E+02  0.18821358866E+02 -0.50274803062E+02  0.63871278136E+02  0.00000000000E+00 0. -1.
         11    1    3    3    0    0 -0.47390837943E+02 -0.71122133082E+02 -0.24536025792E+02  0.88917185609E+02  0.00000000000E+00 0.  1.
         21    1    1    2  502  501 -0.40209636775E+02  0.91598028884E+01 -0.50994575768E+02  0.65583257286E+02  0.00000000000E+00 0.  1.
<scales pt_clust_5="13000.00000" pt_clust_6="13000.00000" pt_clust_7="13000.00000" pt_clust_8="13000.00000" pt_clust_9="41.23975"></scales>
<clustering>
<clus scale="   41.240">  1  9  2 -1</clus>
<clus scale="   79.627">  5  6 -1 -1</clus>
<clus scale="   91.041">  7  8 -1 -1</clus>
<clus scale="  143.798">  2  5  1 -1</clus>
<clus scale="  143.798">  2  5  1 -1</clus>
</clustering>
</event>
<event>
 9    2  0.5608219E-005  0.9725003E+02  0.7546771E-02  0.1292639E+00
          2   -1    0    0  502    0  0.00000000000E+00  0.00000000000E+00  0.31808064384E+03  0.31808064384E+03  0.00000000000E+00 0. -1.
         -1   -1    0    0    0  501 -0.00000000000E+00 -0.00000000000E+00 -0.40883056131E+02  0.40883056131E+02  0.00000000000E+00 0.  1.
         24    2    1    2    0    0 -0.30652087586E+02  0.34734780766E+02  0.89569702185E+02  0.12912222278E+03  0.80645901308E+02 0.  0.
         23    2    1    2    0    0  0.24177924121E+02 -0.64453159231E-01  0.15336849895E+03  0.18067185265E+03  0.92389640662E+02 0.  0.
        -11    1    3    3    0    0 -0.94589612778E+00  0.55151039313E+02  0.41441123757E+02  0.68992018343E+02  0.00000000000E+00 0.  1.
         12    1    3    3    0    0 -0.29706191458E+02 -0.20416258548E+02  0.48128578428E+02  0.60130204436E+02  0.00000000000E+00 0. -1.
        -11    1    4    4    0    0 -0.11503346633E+02  0.29846241084E+02  0.16276936459E+02  0.35889605056E+02  0.00000000000E+00 0.  1.
         11    1    4    4    0    0  0.35681270755E+02 -0.29910694243E+02  0.13709156249E+03  0.14478224759E+03  0.00000000000E+00 0. -1.
         21    1    1    2  502  501  0.64741634642E+01 -0.34670327607E+02  0.34259386572E+02  0.49169624538E+02  0.00000000000E+00 0. -1.
<scales pt_clust_5="13000.00000" pt_clust_6="13000.00000" pt_clust_7="13000.00000" pt_clust_8="13000.00000" pt_clust_9="35.26962"></scales>
<clustering>
<clus scale="   35.270">  2  9  1 -1</clus>
<clus scale="   80.646">  5  6 -1 -1</clus>
<clus scale="   86.171">  2  5  1 -1</clus>
<clus scale="   92.390">  7  8 -1 -1</clus>
<clus scale="   97.250">  1  5  2 -1</clus>
</clustering>
</event>
<event>
 9    2  0.5608219E-005  0.9688754E+02  0.7546771E-02  0.1292153E+00
          4   -1    0    0  502    0  0.00000000000E+00  0.00000000000E+00  0.52786596133E+02  0.52786596133E+02  0.00000000000E+00 0. -1.
         -3   -1    0    0    0  501 -0.00000000000E+00 -0.00000000000E+00 -0.39504140582E+03  0.39504140582E+03  0.00000000000E+00 0.  1.
         23    2    1    2    0    0  0.28711242421E+02 -0.12564794987E+01 -0.14614318735E+03  0.17396225628E+03  0.89883931921E+02 0.  0.
         24    2    1    2    0    0  0.28070353618E+02  0.54234653820E+02 -0.60335854278E+02  0.11744996708E+03  0.80154457316E+02 0.  0.
        -13    1    4    4    0    0  0.54216349486E+02  0.45325406842E+02 -0.54441477611E+02  0.89205826836E+02  0.00000000000E+00 0.  1.
         14    1    4    4    0    0 -0.26145995868E+02  0.89092469782E+01 -0.58943766669E+01  0.28244140241E+02  0.00000000000E+00 0. -1.
        -13    1    3    3    0    0  0.56985891430E+02 -0.49717094694E+01 -0.58597177646E+02  0.81888576403E+02  0.00000000000E+00 0.  1.
         13    1    3    3    0    0 -0.28274649009E+02  0.37152299706E+01 -0.87546009707E+02  0.92073679876E+02  0.00000000000E+00 0. -1.
         21    1    1    2  502  501 -0.56781596040E+02 -0.52978174321E+02 -0.13577576805E+03  0.15641577860E+03  0.00000000000E+00 0. -1.
<scales pt_clust_5="13000.00000" pt_clust_6="13000.00000" pt_clust_7="13000.00000" pt_clust_8="13000.00000" pt_clust_9="77.65846"></scales>
<clustering>
<clus scale="   77.658">  2  9  1 -1</clus>
<clus scale="   80.154">  5  6 -1 -1</clus>
<clus scale="   87.936">  1  5  2 -1</clus>
<clus scale="   89.884">  7  8 -1 -1</clus>
<clus scale="   87.936">  1  5  2 -1</clus>
</clustering>
</event>
<event>
 9    2  0.5608219E-005  0.2799652E+03  0.7546771E-02  0.1096901E+00
         -1   -1    0    0    0  501 -0.00000000000E+00  0.00000000000E+00  0.10261132874E+03  0.10261132874E+03  0.00000000000E+00 0.  1.
          2   -1    0    0  502    0  0.00000000000E+00 -0.00000000000E+00 -0.82364805377E+03  0.82364805377E+03  0.00000000000E+00 0. -1.
         23    2    1    2    0    0  0.24989881952E+03  0.30949113874E+02 -0.29424131402E+03  0.40162278820E+03  0.10637502284E+03 0.  0.
         24    2    1    2    0    0 -0.25992503749E+03 -0.50673723886E+02 -0.41662651331E+03  0.50028517202E+03  0.81109496044E+02 0.  0.
        -13    1    4    4    0    0 -0.37106801861E+02 -0.34157652745E+01 -0.18492058387E+02  0.41599740626E+02  0.00000000000E+00 0.  1.
         14    1    4    4    0    0 -0.22281823563E+03 -0.47257958611E+02 -0.39813445492E+03  0.45868543140E+03  0.00000000000E+00 0. -1.
        -11    1    3    3    0    0  0.12995182487E+03  0.66241792793E+02 -0.18504525671E+03  0.23562087965E+03  0.00000000000E+00 0. -1.
         11    1    3    3    0    0  0.11994699465E+03 -0.35292678919E+02 -0.10919605731E+03  0.16600190855E+03  0.00000000000E+00 0.  1.
         21    1    1    2  502  501  0.10026217974E+02  0.19724610012E+02 -0.10168897705E+02  0.24351422289E+02  0.00000000000E+00 0.  1.
<scales pt_clust_5="13000.00000" pt_clust_6="13000.00000" pt_clust_7="13000.00000" pt_clust_8="13000.00000" pt_clust_9="22.12657"></scales>
<clustering>
<clus scale="   22.127">  1  9  2 -1</clus>
<clus scale="   81.109">  5  6 -1 -1</clus>
<clus scale="  106.375">  7  8 -1 -1</clus>
<clus scale="  271.374">  2  5  1 -1</clus>
<clus scale="  271.374">  2  5  1 -1</clus>
</clustering>
</event>
<event>
 9    2  0.5608219E-005  0.1514706E+03  0.7546771E-02  0.1200276E+00
         -1   -1    0    0    0  501 -0.00000000000E+00  0.00000000000E+00  0.34846779166E+03  0.34846779166E+03  0.00000000000E+00 0.  1.
          2   -1    0    0  502    0  0.00000000000E+00 -0.00000000000E+00 -0.80852404333E+03  0.80852404333E+03  0.00000000000E+00 0. -1.
         24    2    1    2    0    0  0.26782245197E+02  0.12613489869E+03  0.17300749354E+03  0.23031636270E+03  0.80540255675E+02 0.  0.
         23    2    1    2    0    0  0.62242251399E+02 -0.10620386572E+03 -0.75734956513E+03  0.77250163499E+03  0.89593824038E+02 0.  0.
        -11    1    3    3    0    0  0.52858457106E+02  0.10574909401E+03  0.14392251641E+03  0.18625406868E+03  0.00000000000E+00 0.  1.
         12    1    3    3    0    0 -0.26076211909E+02  0.20385804684E+02  0.29084977130E+02  0.44062294025E+02  0.00000000000E+00 0. -1.
        -13    1    4    4    0    0  0.79085135666E+02 -0.86743854969E+02 -0.69815286139E+03  0.70795223916E+03  0.00000000000E+00 0. -1.
         13    1    4    4    0    0 -0.16842884267E+02 -0.19460010750E+02 -0.59196703738E+02  0.64549395832E+02  0.00000000000E+00 0.  1.
         21    1    1    2  502  501 -0.89024496596E+02 -0.19931032971E+02  0.12428581993E+03  0.15417383729E+03  0.00000000000E+00 0. -1.
<scales pt_clust_5="13000.00000" pt_clust_6="13000.00000" pt_clust_7="13000.00000" pt_clust_8="13000.00000" pt_clust_9="91.22832"></scales>
<clustering>
<clus scale="   80.540">  5  6 -1 -1</clus>
<clus scale="   89.594">  7  8 -1 -1</clus>
<clus scale="   91.228">  1  9  2 -1</clus>
<clus scale="  146.298">  1  5  2 -1</clus>
<clus scale="  151.471">  2  5  1 -1</clus>
</clustering>
</event>
<event>
 9    2  0.5608219E-005  0.1476324E+03  0.7546771E-02  0.1203899E+00
         -3   -1    0    0    0  501 -0.00000000000E+00  0.00000000000E+00  0.51984051840E+02  0.51984051840E+02  0.00000000000E+00 0.  1.
          4   -1    0    0  502    0  0.00000000000E+00 -0.00000000000E+00 -0.59796952089E+03  0.59796952089E+03  0.00000000000E+00 0. -1.
         24    2    1    2    0    0 -0.40289346287E+02 -0.93963093699E+02 -0.20723707630E+03  0.24932269776E+03  0.93607197492E+02 0.  0.
         23    2    1    2    0    0  0.30803685223E+02  0.12031292505E+03 -0.33928179449E+03  0.37262059301E+03  0.91158671077E+02 0.  0.
        -13    1    3    3    0    0 -0.43400118494E+02 -0.57690362914E+02 -0.49730343716E+02  0.87663306717E+02  0.00000000000E+00 0.  1.
         14    1    3    3    0    0  0.31107722066E+01 -0.36272730785E+02 -0.15750673259E+03  0.16165939104E+03  0.00000000000E+00 0. -1.
        -13    1    4    4    0    0 -0.25115550508E+02  0.90178559852E+01 -0.91247998629E+02  0.95070026074E+02  0.00000000000E+00 0.  1.
         13    1    4    4    0    0  0.55919235731E+02  0.11129506906E+03 -0.24803379586E+03  0.27755056694E+03  0.00000000000E+00 0. -1.
         21    1    1    2  502  501  0.94856610645E+01 -0.26349831347E+02  0.53340173897E+00  0.28010281956E+02  0.00000000000E+00 0. -1.
<scales pt_clust_5="13000.00000" pt_clust_6="13000.00000" pt_clust_7="13000.00000" pt_clust_8="13000.00000" pt_clust_9="28.00520"></scales>
<clustering>
<clus scale="   28.005">  1  9  2 -1</clus>
<clus scale="   91.159">  7  8 -1 -1</clus>
<clus scale="   93.607">  5  6 -1 -1</clus>
<clus scale="  146.092">  2  7  1 -1</clus>
<clus scale="  146.092">  2  5  1 -1</clus>
</clustering>
</event>
<event>
 9    2  0.5608219E-005  0.1068052E+03  0.7546771E-02  0.1270485E+00
         -1   -1    0    0    0  501 -0.00000000000E+00  0.00000000000E+00  0.27235576229E+03  0.27235576229E+03  0.00000000000E+00 0.  1.
          2   -1    0    0  502    0  0.00000000000E+00 -0.00000000000E+00 -0.71355860306E+02  0.71355860306E+02  0.00000000000E+00 0. -1.
         24    2    1    2    0    0 -0.68883318477E+02  0.39104925477E+02  0.89477691455E+02  0.14202150838E+03  0.76744672861E+02 0.  0.
         23    2    1    2    0    0  0.55725227892E+02 -0.40004310610E+01  0.22943511989E+02  0.10550463345E+03  0.86507331853E+02 0.  0.
        -11    1    3    3    0    0 -0.57259567681E+02  0.40723829435E+02  0.10264012084E+03  0.12438682720E+03  0.00000000000E+00 0.  1.
         12    1    3    3    0    0 -0.11623750797E+02 -0.16189039579E+01 -0.13162429390E+02  0.17634681173E+02  0.00000000000E+00 0. -1.
        -11    1    4    4    0    0  0.35174017927E+02 -0.24986837173E+02  0.49669658133E+02  0.65792313442E+02  0.00000000000E+00 0.  1.
         11    1    4    4    0    0  0.20551209965E+02  0.20986406112E+02 -0.26726146144E+02  0.39712320006E+02  0.00000000000E+00 0. -1.
         21    1    1    2  502  501  0.13158090585E+02 -0.35104494416E+02  0.88578698545E+02  0.96185480775E+02  0.00000000000E+00 0.  1.
<scales pt_clust_5="13000.00000" pt_clust_6="13000.00000" pt_clust_7="13000.00000" pt_clust_8="13000.00000" pt_clust_9="37.48948"></scales>
<clustering>
<clus scale="   37.489">  1  9  2 -1</clus>
<clus scale="   76.745">  5  6 -1 -1</clus>
<clus scale="   86.507">  7  8 -1 -1</clus>
<clus scale="   99.063">  1  5  2 -1</clus>
<clus scale="  106.805">  2  5  1 -1</clus>
</clustering>
</event>
<event>
 9    2  0.5608219E-005  0.9310152E+02  0.7546771E-02  0.1301630E+00
         -1   -1    0    0    0  501 -0.00000000000E+00  0.00000000000E+00  0.38898542973E+03  0.38898542973E+03  0.00000000000E+00 0.  1.
          2   -1    0    0  502    0  0.00000000000E+00 -0.00000000000E+00 -0.53204275871E+02  0.53204275871E+02  0.00000000000E+00 0. -1.
         23    2    1    2    0    0  0.27483860301E+02  0.28594139625E+01  0.27197118058E+03  0.28862386555E+03  0.92584414832E+02 0.  0.
         24    2    1    2    0    0  0.76456860384E+01 -0.10373344134E+02  0.38347666591E+01  0.83654685142E+02  0.82567173425E+02 0.  0.
        -11    1    4    4    0    0  0.15425431749E+02  0.31724692147E+02 -0.13080639783E+02  0.37623173358E+02  0.00000000000E+00 0.  1.
         12    1    4    4    0    0 -0.77797457102E+01 -0.42098036280E+02  0.16915406442E+02  0.46031511783E+02  0.00000000000E+00 0. -1.
        -11    1    3    3    0    0 -0.26322517272E+02  0.16545529923E+02  0.16705207776E+03  0.16992064666E+03  0.00000000000E+00 0.  1.
         11    1    3    3    0    0  0.53806377573E+02 -0.13686115961E+02  0.10491910282E+03  0.11870321889E+03  0.00000000000E+00 0. -1.
         21    1    1    2  502  501 -0.35129546340E+02  0.75139301711E+01  0.59975206617E+02  0.69911154914E+02  0.00000000000E+00 0.  1.
<scales pt_clust_5="13000.00000" pt_clust_6="13000.00000" pt_clust_7="13000.00000" pt_clust_8="13000.00000" pt_clust_9="35.92414"></scales>
<clustering>
<clus scale="   35.924">  1  9  2 -1</clus>
<clus scale="   82.567">  5  6 -1 -1</clus>
<clus scale="   83.147">  2  5  1 -1</clus>
<clus scale="   92.584">  7  8 -1 -1</clus>
<clus scale="   83.147">  2  5  1 -1</clus>
</clustering>
</event>
<event>
 9    2  0.5608219E-005  0.9255931E+02  0.7546771E-02  0.1303444E+00
         -1   -1    0    0    0  501 -0.00000000000E+00  0.00000000000E+00  0.20946963168E+03  0.20946963168E+03  0.00000000000E+00 0.  1.
          2   -1    0    0  502    0  0.00000000000E+00 -0.00000000000E+00 -0.31575651910E+03  0.31575651910E+03  0.00000000000E+00 0. -1.
         23    2    1    2    0    0  0.17617096081E+02  0.46217003793E+02  0.41951869714E+02  0.11223818148E+03  0.91602819250E+02 0.  0.
         24    2    1    2    0    0  0.15619802201E+02  0.57780339318E+01 -0.26684096357E+03  0.27929182603E+03  0.80761750550E+02 0.  0.
        -13    1    4    4    0    0 -0.20387606344E+02  0.16566712562E+02 -0.31722992426E+02  0.41188089371E+02  0.00000000000E+00 0.  1.
         14    1    4    4    0    0  0.36007408544E+02 -0.10788678631E+02 -0.23511797114E+03  0.23810373666E+03  0.00000000000E+00 0. -1.
        -13    1    3    3    0    0 -0.80562007070E+01  0.64367092473E+02  0.70318031956E+01  0.65249300529E+02  0.00000000000E+00 0. -1.
         13    1    3    3    0    0  0.25673296788E+02 -0.18150088680E+02  0.34920066518E+02  0.46988880947E+02  0.00000000000E+00 0.  1.
         21    1    1    2  502  501 -0.33236898282E+02 -0.51995037725E+02  0.11860220643E+03  0.13369614327E+03  0.00000000000E+00 0.  1.
<scales pt_clust_5="13000.00000" pt_clust_6="13000.00000" pt_clust_7="13000.00000" pt_clust_8="13000.00000" pt_clust_9="61.71042"></scales>
<clustering>
<clus scale="   61.710">  1  9  2 -1</clus>
<clus scale="   80.762">  5  6 -1 -1</clus>
<clus scale="   81.845">  2  5  1 -1</clus>
<clus scale="   91.603">  7  8 -1 -1</clus>
<clus scale="   81.845">  2  5  1 -1</clus>
</clustering>
</event>
<event>
 9    2  0.5608219E-005  0.1082452E+03  0.7546771E-02  0.1274889E+00
          2   -1    0    0  502    0  0.00000000000E+00  0.00000000000E+00  0.11827246856E+04  0.11827246856E+04  0.00000000000E+00 0. -1.
         -1   -1    0    0    0  501 -0.00000000000E+00 -0.00000000000E+00 -0.43091077357E+02  0.43091077357E+02  0.00000000000E+00 0.  1.
         23    2    1    2    0    0 -0.50498776372E+01  0.45498648306E+02  0.41095378076E+02  0.11850706332E+03  0.10128902060E+03 0.  0.
         24    2    1    2    0    0  0.23673022049E+02 -0.29893856973E+02  0.10434016133E+04  0.10470560852E+04  0.78647723374E+02 0.  0.
        -11    1    4    4    0    0  0.21924703993E+02 -0.10259242433E+02  0.83140164646E+02  0.86592330364E+02  0.00000000000E+00 0.  1.
         12    1    4    4    0    0  0.17483180558E+01 -0.19634614540E+02  0.96026144862E+03  0.96046375486E+03  0.00000000000E+00 0. -1.
        -13    1    3    3    0    0  0.27198034573E+02 -0.86166921807E+01 -0.16664016941E+02  0.33040428711E+02  0.00000000000E+00 0.  1.
         13    1    3    3    0    0 -0.32247912210E+02  0.54115340487E+02  0.57759395017E+02  0.85466634605E+02  0.00000000000E+00 0. -1.
         21    1    1    2  502  501 -0.18623144412E+02 -0.15604791333E+02  0.55136616919E+02  0.60252614429E+02  0.00000000000E+00 0.  1.
<scales pt_clust_5="13000.00000" pt_clust_6="13000.00000" pt_clust_7="13000.00000" pt_clust_8="13000.00000" pt_clust_9="24.29673"></scales>
<clustering>
<clus scale="   24.297">  2  9  1 -1</clus>
<clus scale="   78.648">  5  6 -1 -1</clus>
<clus scale="   87.424">  1  5  2 -1</clus>
<clus scale="  101.289">  7  8 -1 -1</clus>
<clus scale="   87.424">  1  5  2 -1</clus>
</clustering>
</event>
<event>
 9    2  0.5608219E-005  0.1591526E+03  0.7546771E-02  0.1191411E+00
         -1   -1    0    0    0  501 -0.00000000000E+00  0.00000000000E+00  0.26863394136E+03  0.26863394136E+03  0.00000000000E+00 0.  1.
          2   -1    0    0  502    0  0.00000000000E+00 -0.00000000000E+00 -0.18535208410E+03  0.18535208410E+03  0.00000000000E+00 0. -1.
         23    2    1    2    0    0 -0.10598175977E+03  0.71905090292E+02  0.14866679107E+03  0.21570137447E+03  0.89570043928E+02 0.  0.
         24    2    1    2    0    0  0.11968421580E+03 -0.57027469994E+02 -0.11003969958E+03  0.18926272740E+03  0.78327521689E+02 0.  0.
        -13    1    4    4    0    0  0.58960956670E+02  0.12909940304E+02 -0.32999671138E+02  0.68789819489E+02  0.00000000000E+00 0.  1.
         14    1    4    4    0    0  0.60723259134E+02 -0.69937410298E+02 -0.77040028438E+02  0.12047290791E+03  0.00000000000E+00 0. -1.
        -11    1    3    3    0    0 -0.83535007049E+02  0.33525078557E+02  0.14554509043E+03  0.17112978012E+03  0.00000000000E+00 0.  1.
         11    1    3    3    0    0 -0.22446752721E+02  0.38380011735E+02  0.31217006380E+01  0.44571594356E+02  0.00000000000E+00 0. -1.
         21    1    1    2  502  501 -0.13702456034E+02 -0.14877620298E+02  0.44654765766E+02  0.49021923593E+02  0.00000000000E+00 0.  1.
<scales pt_clust_5="13000.00000" pt_clust_6="13000.00000" pt_clust_7="13000.00000" pt_clust_8="13000.00000" pt_clust_9="20.22624"></scales>
<clustering>
<clus scale="   20.226">  1  9  2 -1</clus>
<clus scale="   78.328">  5  6 -1 -1</clus>
<clus scale="   89.570">  7  8 -1 -1</clus>
<clus scale="  153.108">  2  5  1 -1</clus>
<clus scale="  153.108">  2  5  1 -1</clus>
</clustering>
</event>
<event>
 9    2  0.5608219E-005  0.1494468E+03  0.7546771E-02  0.1208434E+00
         -1   -1    0    0    0  501 -0.00000000000E+00  0.00000000000E+00  0.13202234810E+03  0.13202234810E+03  0.00000000000E+00 0.  1.
          2   -1    0    0  502    0  0.00000000000E+00 -0.00000000000E+00 -0.39802707102E+03  0.39802707102E+03  0.00000000000E+00 0. -1.
         23    2    1    2    0    0  0.10145323197E+02 -0.93119233641E+02  0.13139104961E+02  0.12843011396E+03  0.86876572416E+02 0.  0.
         24    2    1    2    0    0 -0.12597581680E+03  0.22487839852E+02 -0.14438584584E+03  0.21039898521E+03  0.83933611516E+02 0.  0.
        -13    1    4    4    0    0 -0.13131335423E+02  0.34522858426E+02 -0.53474475108E+02  0.64990608645E+02  0.00000000000E+00 0.  1.
         14    1    4    4    0    0 -0.11284448138E+03 -0.12035018574E+02 -0.90911370728E+02  0.14540837657E+03  0.00000000000E+00 0. -1.
        -11    1    3    3    0    0 -0.31724492071E+02 -0.94223068784E+01  0.10812260886E+02  0.34815632258E+02  0.00000000000E+00 0.  1.
         11    1    3    3    0    0  0.41869815268E+02 -0.83696926763E+02  0.23268440750E+01  0.93614481698E+02  0.00000000000E+00 0. -1.
         21    1    1    2  502  501  0.11583049360E+03  0.70631393789E+02 -0.13475798204E+03  0.19122031995E+03  0.00000000000E+00 0. -1.
<scales pt_clust_5="13000.00000" pt_clust_6="13000.00000" pt_clust_7="13000.00000" pt_clust_8="13000.00000" pt_clust_9="123.65075"></scales>
<clustering>
<clus scale="   83.934">  5  6 -1 -1</clus>
<clus scale="   86.877">  7  8 -1 -1</clus>
<clus scale="  127.756">  1  7  2 -1</clus>
<clus scale="  123.651">  1  9  2 -1</clus>
<clus scale="  149.447">  2  5  1 -1</clus>
</clustering>
</event>
<event>
 9    2  0.5608219E-005  0.1086285E+03  0.7546771E-02  0.1268915E+00
          2   -1    0    0  502    0  0.00000000000E+00  0.00000000000E+00  0.17375499329E+03  0.17375499329E+03  0.00000000000E+00 0. -1.
         -1   -1    0    0    0  501 -0.00000000000E+00 -0.00000000000E+00 -0.16651207287E+03  0.16651207287E+03  0.00000000000E+00 0.  1.
         23    2    1    2    0    0  0.74033049761E+01  0.22675659514E+02 -0.80976925679E+02  0.12482072911E+03  0.91945404796E+02 0.  0.
         24    2    1    2    0    0 -0.38554666003E+01 -0.63736577817E+02  0.12476051521E+03  0.16036633462E+03  0.77942024275E+02 0.  0.
        -13    1    4    4    0    0  0.20231327869E+02  0.70897802897E+01  0.50936280208E+02  0.55263697427E+02  0.00000000000E+00 0.  1.
         14    1    4    4    0    0 -0.24086794469E+02 -0.70826358107E+02  0.73824235006E+02  0.10510263719E+03  0.00000000000E+00 0. -1.
        -11    1    3    3    0    0  0.13140307088E+02  0.54751966500E+02 -0.71253162885E+02  0.90815520299E+02  0.00000000000E+00 0.  1.
         11    1    3    3    0    0 -0.57370021124E+01 -0.32076306987E+02 -0.97237627938E+01  0.34005208807E+02  0.00000000000E+00 0. -1.
         21    1    1    2  502  501 -0.35478383759E+01  0.41060918303E+02 -0.36540669110E+02  0.55080002433E+02  0.00000000000E+00 0.  1.
<scales pt_clust_5="13000.00000" pt_clust_6="13000.00000" pt_clust_7="13000.00000" pt_clust_8="13000.00000" pt_clust_9="41.21391"></scales>
<clustering>
<clus scale="   41.214">  2  9  1 -1</clus>
<clus scale="   77.942">  5  6 -1 -1</clus>
<clus scale="   91.945">  7  8 -1 -1</clus>
<clus scale="   97.063">  1  5  2 -1</clus>
<clus scale="   97.063">  1  5  2 -1</clus>
</clustering>
</event>
<event>
 9    2  0.5608219E-005  0.2345436E+03  0.7546771E-02  0.1124270E+00
         -1   -1    0    0    0  501 -0.00000000000E+00  0.00000000000E+00  0.19106792432E+03  0.19106792432E+03  0.00000000000E+00 0.  1.
          2   -1    0    0  502    0  0.00000000000E+00 -0.00000000000E+00 -0.10491844477E+04  0.10491844477E+04  0.00000000000E+00 0. -1.
         23    2    1    2    0    0 -0.15193121856E+03  0.13275805901E+03  0.17972389283E+02  0.22295215563E+03  0.93149661935E+02 0.  0.
         24    2    1    2    0    0  0.14539501398E+03 -0.16108289793E+03 -0.92872301424E+03  0.95717229351E+03  0.81024392435E+02 0.  0.
        -13    1    4    4    0    0  0.31226303035E+02 -0.89700206731E+02 -0.32366369964E+03  0.33731202106E+03  0.00000000000E+00 0.  1.
         14    1    4    4    0    0  0.11416871095E+03 -0.71382691199E+02 -0.60505931461E+03  0.61986027245E+03  0.00000000000E+00 0. -1.
        -11    1    3    3    0    0 -0.14831749562E+03  0.84444999247E+02  0.29371479231E+02  0.17318118027E+03  0.00000000000E+00 0.  1.
         11    1    3    3    0    0 -0.36137229366E+01  0.48313059766E+02 -0.11399089948E+02  0.49770975367E+02  0.00000000000E+00 0. -1.
         21    1    1    2  502  501  0.65362045765E+01  0.28324838917E+02  0.52634101546E+02  0.60127922927E+02  0.00000000000E+00 0.  1.
<scales pt_clust_5="13000.00000" pt_clust_6="13000.00000" pt_clust_7="13000.00000" pt_clust_8="13000.00000" pt_clust_9="29.06920"></scales>
<clustering>
<clus scale="   29.069">  1  9  2 -1</clus>
<clus scale="   81.024">  5  6 -1 -1</clus>
<clus scale="   93.150">  7  8 -1 -1</clus>
<clus scale="  229.997">  2  5  1 -1</clus>
<clus scale="  229.997">  2  5  1 -1</clus>
</clustering>
</event>
<event>
 9    2  0.5608219E-005  0.1284971E+03  0.7546771E-02  0.1236113E+00
         -1   -1    0    0    0  501 -0.00000000000E+00  0.00000000000E+00  0.14155935859E+03  0.14155935859E+03  0.00000000000E+00 0.  1.
          2   -1    0    0  502    0  0.00000000000E+00 -0.00000000000E+00 -0.20486812222E+03  0.20486812222E+03  0.00000000000E+00 0. -1.
         24    2    1    2    0    0  0.49852120844E+02 -0.93240110055E+02 -0.35335099529E+02  0.12964293557E+03  0.66179826289E+02 0.  0.
         23    2    1    2    0    0  0.27837037755E+01  0.85801788214E+02 -0.75180570720E+02  0.14569058842E+03  0.90575567740E+02 0.  0.
        -13    1    3    3    0    0 -0.37224611111E+00 -0.68852223729E+02 -0.21317604050E+02  0.72077787994E+02  0.00000000000E+00 0.  1.
         14    1    3    3    0    0  0.50224366955E+02 -0.24387886326E+02 -0.14017495478E+02  0.57565147572E+02  0.00000000000E+00 0. -1.
        -13    1    4    4    0    0 -0.24803435958E+02 -0.29994649048E+01  0.16927617053E+01  0.25041419034E+02  0.00000000000E+00 0.  1.
         13    1    4    4    0    0  0.27587139734E+02  0.88801253119E+02 -0.76873332425E+02  0.12064916938E+03  0.00000000000E+00 0. -1.
         21    1    1    2  502  501 -0.52635824620E+02  0.74383218406E+01  0.47206906623E+02  0.71093956833E+02  0.00000000000E+00 0.  1.
<scales pt_clust_5="13000.00000" pt_clust_6="13000.00000" pt_clust_7="13000.00000" pt_clust_8="13000.00000" pt_clust_9="53.15881"></scales>
<clustering>
<clus scale="   53.159">  1  9  2 -1</clus>
<clus scale="   66.180">  5  6 -1 -1</clus>
<clus scale="   90.576">  7  8 -1 -1</clus>
<clus scale="  112.638">  1  5  2 -1</clus>
<clus scale="  128.497">  2  5  1 -1</clus>
</clustering>
</event>
<event>
 9    2  0.6761422E-005  0.9490102E+02  0.7546771E-02  0.1298868E+00
         -1   -1    0    0    0  501 -0.00000000000E+00  0.00000000000E+00  0.16462728902E+03  0.16462728902E+03  0.00000000000E+00 0.  1.
          2   -1    0    0  502    0  0.00000000000E+00 -0.00000000000E+00 -0.90841150794E+03  0.90841150794E+03  0.00000000000E+00 0. -1.
         23    2    1    2    0    0  0.71564047954E+02 -0.32118093988E+01  0.12828920138E+03  0.17325649595E+03  0.91803951537E+02 0.  0.
         24    2    1    2    0    0 -0.23392849890E+02  0.78473051703E+00 -0.83471438009E+03  0.83877367113E+03  0.79027424504E+02 0.  0.
        -13    1    4    4    0    0 -0.20232714661E+02 -0.19781430096E+02 -0.10450851376E+03  0.10827140512E+03  0.00000000000E+00 0.  1.
         14    1    4    4    0    0 -0.31601352290E+01  0.20566160613E+02 -0.73020586633E+03  0.73050226601E+03  0.00000000000E+00 0. -1.
        -11    1    3    3    0    0  0.70662244151E+02  0.27090151730E+02  0.11992859481E+03  0.14180936825E+03  0.00000000000E+00 0.  1.
         11    1    3    3    0    0  0.90180380336E+00 -0.30301961128E+02  0.83606065674E+01  0.31447127699E+02  0.00000000000E+00 0. -1.
         21    1    1    2  502  501 -0.48171198064E+02  0.24270788817E+01 -0.37359040215E+02  0.61008629886E+02  0.00000000000E+00 0. -1.
<scales pt_clust_5="13000.00000" pt_clust_6="13000.00000" pt_clust_7="13000.00000" pt_clust_8="13000.00000" pt_clust_9="48.23230"></scales>
<clustering>
<clus scale="   48.232">  1  9  2 -1</clus>
<clus scale="   79.027">  5  6 -1 -1</clus>
<clus scale="   82.605">  2  5  1 -1</clus>
<clus scale="   91.804">  7  8 -1 -1</clus>
<clus scale="   82.605">  2  5  1 -1</clus>
</clustering>
</event>
<event>
 9    2  0.5608219E-005  0.1326389E+03  0.7546771E-02  0.1226604E+00
         -1   -1    0    0    0  501 -0.00000000000E+00  0.00000000000E+00  0.10358216422E+03  0.10358216422E+03  0.00000000000E+00 0.  1.
          2   -1    0    0  502    0  0.00000000000E+00 -0.00000000000E+00 -0.26413910463E+03  0.26413910463E+03  0.00000000000E+00 0. -1.
         24    2    1    2    0    0  0.11424795851E+03  0.43833006248E+02 -0.18121804998E+02  0.14709427697E+03  0.79588931646E+02 0.  0.
         23    2    1    2    0    0 -0.75345588710E+02 -0.40475661840E+02 -0.12748138067E+03  0.17881454256E+03  0.91694608744E+02 0.  0.
        -11    1    3    3    0    0  0.19543749746E+02  0.38833627769E+02  0.15972867274E+02  0.46315670013E+02  0.00000000000E+00 0.  1.
         12    1    3    3    0    0  0.94704208766E+02  0.49993784783E+01 -0.34094672271E+02  0.10077860696E+03  0.00000000000E+00 0. -1.
        -11    1    4    4    0    0  0.14856860737E+02 -0.21313743900E+02 -0.66562820300E+01  0.26819919472E+02  0.00000000000E+00 0. -1.
         11    1    4    4    0    0 -0.90202449447E+02 -0.19161917940E+02 -0.12082509864E+03  0.15199462309E+03  0.00000000000E+00 0.  1.
         21    1    1    2  502  501 -0.38902369802E+02 -0.33573444078E+01 -0.14953754746E+02  0.41812449327E+02  0.00000000000E+00 0.  1.
<scales pt_clust_5="13000.00000" pt_clust_6="13000.00000" pt_clust_7="13000.00000" pt_clust_8="13000.00000" pt_clust_9="39.04697"></scales>
<clustering>
<clus scale="   39.047">  1  9  2 -1</clus>
<clus scale="   79.589">  5  6 -1 -1</clus>
<clus scale="   91.695">  7  8 -1 -1</clus>
<clus scale="  124.578">  1  5  2 -1</clus>
<clus scale="  132.639">  2  5  1 -1</clus>
</clustering>
</event>
<event>
 9    2  0.5608219E-005  0.8945705E+02  0.7546771E-02  0.1307764E+00
         -3   -1    0    0    0  501 -0.00000000000E+00  0.00000000000E+00  0.37335679912E+03  0.37335679912E+03  0.00000000000E+00 0.  1.
          4   -1    0    0  502    0  0.00000000000E+00 -0.00000000000E+00 -0.62138748482E+02  0.62138748482E+02  0.00000000000E+00 0. -1.
         23    2    1    2    0    0  0.53490463872E+01 -0.19957834312E+02  0.27358954371E+03  0.28849923395E+03  0.89183194135E+02 0.  0.
         24    2    1    2    0    0  0.84908214498E+01 -0.24302810274E+01 -0.17637187205E+02  0.85783025891E+02  0.83484470674E+02 0.  0.
        -11    1    4    4    0    0 -0.71982947948E+01 -0.34544886343E+02 -0.31641151666E+02  0.47395433316E+02  0.00000000000E+00 0.  1.
         12    1    4    4    0    0  0.15689116245E+02  0.32114605316E+02  0.14003964461E+02  0.38387592575E+02  0.00000000000E+00 0. -1.
        -11    1    3    3    0    0 -0.31105088058E+02  0.19926004409E+02  0.95597854135E+02  0.10248669118E+03  0.00000000000E+00 0.  1.
         11    1    3    3    0    0  0.36454134445E+02 -0.39883838720E+02  0.17799168957E+03  0.18601254277E+03  0.00000000000E+00 0. -1.
         21    1    1    2  502  501 -0.13839867837E+02  0.22388115339E+02  0.55265694131E+02  0.61213287756E+02  0.00000000000E+00 0.  1.
<scales pt_clust_5="13000.00000" pt_clust_6="13000.00000" pt_clust_7="13000.00000" pt_clust_8="13000.00000" pt_clust_9="26.32052"></scales>
<clustering>
<clus scale="   26.321">  1  9  2 -1</clus>
<clus scale="   83.484">  5  6 -1 -1</clus>
<clus scale="   83.777">  2  5  1 -1</clus>
<clus scale="   89.183">  7  8 -1 -1</clus>
<clus scale="   83.777">  2  5  1 -1</clus>
</clustering>
</event>
<event>
 9    2  0.5608219E-005  0.3347236E+03  0.7546771E-02  0.1069338E+00
         -1   -1    0    0    0  501 -0.00000000000E+00  0.00000000000E+00  0.14976372663E+04  0.14976372663E+04  0.00000000000E+00 0.  1.
          2   -1    0    0  502    0  0.00000000000E+00 -0.00000000000E+00 -0.27092537728E+03  0.27092537728E+03  0.00000000000E+00 0. -1.
         23    2    1    2    0    0 -0.14788738447E+03 -0.20719866708E+03  0.56178050285E+03  0.62328533051E+03  0.89918316948E+02 0.  0.
         24    2    1    2    0    0  0.27346827991E+03  0.20139697795E+03 -0.10558405934E+03  0.36457360957E+03  0.80126651989E+02 0.  0.
        -11    1    4    4    0    0  0.63977258041E+02  0.94067538113E+01 -0.23388611020E+02  0.68764843410E+02  0.00000000000E+00 0.  1.
         12    1    4    4    0    0  0.20949102187E+03  0.19199022414E+03 -0.82195448321E+02  0.29580876616E+03  0.00000000000E+00 0. -1.
        -13    1    3    3    0    0 -0.13528818522E+03 -0.12938086439E+03  0.34334204103E+03  0.39105761503E+03  0.00000000000E+00 0.  1.
         13    1    3    3    0    0 -0.12599199247E+02 -0.77817802687E+02  0.21843846182E+03  0.23222771548E+03  0.00000000000E+00 0. -1.
         21    1    1    2  502  501 -0.12558089545E+03  0.58016891218E+01  0.77051544552E+03  0.78070370351E+03  0.00000000000E+00 0.  1.
<scales pt_clust_5="13000.00000" pt_clust_6="13000.00000" pt_clust_7="13000.00000" pt_clust_8="13000.00000" pt_clust_9="125.71484"></scales>
<clustering>
<clus scale="   80.127">  5  6 -1 -1</clus>
<clus scale="   89.918">  7  8 -1 -1</clus>
<clus scale="  125.715">  1  9  2 -1</clus>
<clus scale="  332.227">  2  5  1 -1</clus>
<clus scale="  332.227">  2  5  1 -1</clus>
</clustering>
</event>
<event>
 9    2  0.5608219E-005  0.9082711E+02  0.7546771E-02  0.1302256E+00
          2   -1    0    0  502    0  0.00000000000E+00  0.00000000000E+00  0.53702288770E+03  0.53702288770E+03  0.00000000000E+00 0. -1.
         -1   -1    0    0    0  501 -0.00000000000E+00 -0.00000000000E+00 -0.32579126400E+02  0.32579126400E+02  0.00000000000E+00 0.  1.
         23    2    1    2    0    0 -0.19711684017E+02  0.52005603517E+01  0.95205328543E+02  0.13220078372E+03  0.89428162900E+02 0.  0.
         24    2    1    2    0    0 -0.10370271891E+01 -0.18254663496E+02  0.40215693786E+03  0.41188523156E+03  0.87091521659E+02 0.  0.
        -11    1    4    4    0    0 -0.26330508531E+02 -0.44857492419E+01  0.37210777671E+02  0.45804580564E+02  0.00000000000E+00 0.  1.
         12    1    4    4    0    0  0.25293481342E+02 -0.13768914254E+02  0.36494616019E+03  0.36608065099E+03  0.00000000000E+00 0. -1.
        -11    1    3    3    0    0  0.32517819422E+02 -0.41589963280E+00  0.62124990180E+02  0.70122007653E+02  0.00000000000E+00 0. -1.
         11    1    3    3    0    0 -0.52229503439E+02  0.56164599845E+01  0.33080338363E+02  0.62078776071E+02  0.00000000000E+00 0.  1.
         21    1    1    2  502  501  0.20748711206E+02  0.13054103145E+02  0.70814949001E+01  0.25515998817E+02  0.00000000000E+00 0.  1.
<scales pt_clust_5="13000.00000" pt_clust_6="13000.00000" pt_clust_7="13000.00000" pt_clust_8="13000.00000" pt_clust_9="24.51364"></scales>
<clustering>
<clus scale="   24.514">  2  9  1 -1</clus>
<clus scale="   87.092">  5  6 -1 -1</clus>
<clus scale="   88.527">  1  5  2 -1</clus>
<clus scale="   89.428">  7  8 -1 -1</clus>
<clus scale="   88.527">  1  5  2 -1</clus>
</clustering>
</event>
<event>
 9    2  0.5608219E-005  0.9351172E+02  0.7546771E-02  0.1301231E+00
         -1   -1    0    0    0  501 -0.00000000000E+00  0.00000000000E+00  0.86315342007E+02  0.86315342007E+02  0.00000000000E+00 0.  1.
          2   -1    0    0  502    0  0.00000000000E+00 -0.00000000000E+00 -0.25693034590E+03  0.25693034590E+03  0.00000000000E+00 0. -1.
         23    2    1    2    0    0 -0.59247778509E+01 -0.34116486647E+02  0.32210636336E+01  0.97119077035E+02  0.90679116777E+02 0.  0.
         24    2    1    2    0    0  0.10937399167E+02 -0.33015791449E+02 -0.15262803938E+03  0.17554580900E+03  0.79443964326E+02 0.  0.
        -13    1    4    4    0    0  0.15395869933E+02 -0.24034605746E+02 -0.67585670939E+01  0.29332120850E+02  0.00000000000E+00 0.  1.
         14    1    4    4    0    0 -0.44584707661E+01 -0.89811857022E+01 -0.14586947229E+03  0.14621368815E+03  0.00000000000E+00 0. -1.
        -11    1    3    3    0    0  0.20254450283E+02  0.98579345933E+01  0.31440588325E+02  0.38677283061E+02  0.00000000000E+00 0. -1.
         11    1    3    3    0    0 -0.26179228133E+02 -0.43974421241E+02 -0.28219524692E+02  0.58441793975E+02  0.00000000000E+00 0.  1.
         21    1    1    2  502  501 -0.50126213163E+01  0.67132278096E+02 -0.21208028150E+02  0.70580801871E+02  0.00000000000E+00 0.  1.
<scales pt_clust_5="13000.00000" pt_clust_6="13000.00000" pt_clust_7="13000.00000" pt_clust_8="13000.00000" pt_clust_9="67.31916"></scales>
<clustering>
<clus scale="   67.319">  1  9  2 -1</clus>
<clus scale="   79.444">  5  6 -1 -1</clus>
<clus scale="   82.662">  2  5  1 -1</clus>
<clus scale="   90.679">  7  8 -1 -1</clus>
<clus scale="   82.662">  2  5  1 -1</clus>
</clustering>
</event>
<event>
 9    2  0.5608219E-005  0.1965244E+03  0.7546771E-02  0.1153726E+00
         -1   -1    0    0    0  501 -0.00000000000E+00  0.00000000000E+00  0.51423934949E+03  0.51423934949E+03  0.00000000000E+00 0.  1.
          2   -1    0    0  502    0  0.00000000000E+00 -0.00000000000E+00 -0.14749122919E+03  0.14749122919E+03  0.00000000000E+00 0. -1.
         24    2    1    2    0    0 -0.28878659258E+02  0.18365061421E+03  0.38426590098E+03  0.43450540956E+03  0.81074923481E+02 0.  0.
         23    2    1    2    0    0  0.20899735138E+02 -0.12318887151E+03 -0.43540297783E+02  0.16091938538E+03  0.91580533237E+02 0.  0.
        -13    1    3    3    0    0 -0.41334784967E+02  0.13628764221E+03  0.33947190690E+03  0.36813592794E+03  0.00000000000E+00 0.  1.
         14    1    3    3    0    0  0.12456125709E+02  0.47362971999E+02  0.44793994086E+02  0.66369481619E+02  0.00000000000E+00 0. -1.
        -11    1    4    4    0    0 -0.26963639581E+02 -0.41706717670E+02  0.12286690923E+02  0.51161029427E+02  0.00000000000E+00 0.  1.
         11    1    4    4    0    0  0.47863374719E+02 -0.81482153842E+02 -0.55826988705E+02  0.10975835596E+03  0.00000000000E+00 0. -1.
         21    1    1    2  502  501  0.79789241199E+01 -0.60461742702E+02  0.26022517100E+02  0.66305783736E+02  0.00000000000E+00 0. -1.
<scales pt_clust_5="13000.00000" pt_clust_6="13000.00000" pt_clust_7="13000.00000" pt_clust_8="13000.00000" pt_clust_9="60.98595"></scales>
<clustering>
<clus scale="   60.986">  2  9  1 -1</clus>
<clus scale="   81.075">  5  6 -1 -1</clus>
<clus scale="   91.581">  7  8 -1 -1</clus>
<clus scale="  191.854">  1  5  2 -1</clus>
<clus scale="   60.986">  2  5  1 -1</clus>
</clustering>
</event>
<event>
 9    2  0.5608219E-005  0.1096558E+03  0.7546771E-02  0.1268358E+00
          2   -1    0    0  502    0  0.00000000000E+00  0.00000000000E+00  0.33423305911E+03  0.33423305911E+03  0.00000000000E+00 0. -1.
         -1   -1    0    0    0  501 -0.00000000000E+00 -0.00000000000E+00 -0.76872097834E+02  0.76872097834E+02  0.00000000000E+00 0.  1.
         23    2    1    2    0    0  0.20096970650E+02 -0.91798468369E+02  0.87191937019E+02  0.16094783687E+03  0.97318679034E+02 0.  0.
         24    2    1    2    0    0  0.50711024618E+01  0.38037066513E+02  0.16845355556E+03  0.19077160574E+03  0.80899138842E+02 0.  0.
        -13    1    4    4    0    0 -0.35760451287E+02  0.31252980601E+02  0.78436102939E+02  0.91693952456E+02  0.00000000000E+00 0.  1.
         14    1    4    4    0    0  0.40831553749E+02  0.67840859112E+01  0.90017452626E+02  0.99077653285E+02  0.00000000000E+00 0. -1.
        -11    1    3    3    0    0 -0.34331467045E+02 -0.27489406795E+02  0.55777566346E+02  0.71031359433E+02  0.00000000000E+00 0.  1.
         11    1    3    3    0    0  0.54428437695E+02 -0.64309061574E+02  0.31414370673E+02  0.89916477440E+02  0.00000000000E+00 0. -1.
         21    1    1    2  502  501 -0.25168073112E+02  0.53761401857E+02  0.17154686932E+01  0.59385714331E+02  0.00000000000E+00 0.  1.
<scales pt_clust_5="13000.00000" pt_clust_6="13000.00000" pt_clust_7="13000.00000" pt_clust_8="13000.00000" pt_clust_9="59.36093"></scales>
<clustering>
<clus scale="   59.361">  2  9  1 -1</clus>
<clus scale="   80.899">  5  6 -1 -1</clus>
<clus scale="   95.384">  1  5  2 -1</clus>
<clus scale="   97.319">  7  8 -1 -1</clus>
<clus scale="   95.384">  1  5  2 -1</clus>
</clustering>
</event>
<event>
 9    2  0.5608219E-005  0.8910489E+02  0.7546771E-02  0.1309074E+00
          2   -1    0    0  502    0  0.00000000000E+00  0.00000000000E+00  0.19160818516E+03  0.19160818516E+03  0.00000000000E+00 0. -1.
         -1   -1    0    0    0  501 -0.00000000000E+00 -0.00000000000E+00 -0.12215870756E+03  0.12215870756E+03  0.00000000000E+00 0.  1.
         24    2    1    2    0    0 -0.23073731431E+02  0.42988435440E+02 -0.18864069977E+02  0.96288610901E+02  0.80840836150E+02 0.  0.
         23    2    1    2    0    0  0.14746784071E+02  0.15445236733E+01  0.12907550055E+03  0.15653519927E+03  0.87309395695E+02 0.  0.
        -13    1    3    3    0    0 -0.80101684634E+01 -0.23988878508E+02 -0.80954704508E+00  0.25303842737E+02  0.00000000000E+00 0.  1.
         14    1    3    3    0    0 -0.15063562968E+02  0.66977313948E+02 -0.18054522932E+02  0.70984768163E+02  0.00000000000E+00 0. -1.
        -11    1    4    4    0    0 -0.24685828128E+02  0.80827177935E+01  0.53596739388E+01  0.26522566656E+02  0.00000000000E+00 0.  1.
         11    1    4    4    0    0  0.39432612199E+02 -0.65381941203E+01  0.12371582661E+03  0.13001263262E+03  0.00000000000E+00 0. -1.
         21    1    1    2  502  501  0.83269473599E+01 -0.44532959113E+02 -0.40761952968E+02  0.60943082540E+02  0.00000000000E+00 0.  1.
<scales pt_clust_5="13000.00000" pt_clust_6="13000.00000" pt_clust_7="13000.00000" pt_clust_8="13000.00000" pt_clust_9="45.30477"></scales>
<clustering>
<clus scale="   45.305">  2  9  1 -1</clus>
<clus scale="   80.841">  5  6 -1 -1</clus>
<clus scale="   82.777">  2  5  1 -1</clus>
<clus scale="   87.309">  7  8 -1 -1</clus>
<clus scale="   89.105">  1  5  2 -1</clus>
</clustering>
</event>
<event>
 9    2  0.5608219E-005  0.9519089E+02  0.7546771E-02  0.1300328E+00
         -1   -1    0    0    0  501 -0.00000000000E+00  0.00000000000E+00  0.14730139803E+03  0.14730139803E+03  0.00000000000E+00 0.  1.
          2   -1    0    0  502    0  0.00000000000E+00 -0.00000000000E+00 -0.34147987128E+03  0.34147987128E+03  0.00000000000E+00 0. -1.
         23    2    1    2    0    0  0.10866968299E+02 -0.17447290429E+02  0.11846303492E+03  0.15091032829E+03  0.91202728020E+02 0.  0.
         24    2    1    2    0    0  0.98861868487E+01  0.26011461424E+02 -0.30315085703E+03  0.31349655010E+03  0.74868631577E+02 0.  0.
        -13    1    4    4    0    0  0.17108106728E+02  0.27110772136E+02 -0.45047139915E+02  0.55289475456E+02  0.00000000000E+00 0.  1.
         14    1    4    4    0    0 -0.72219198798E+01 -0.10993107118E+01 -0.25810371711E+03  0.25820707465E+03  0.00000000000E+00 0. -1.
        -13    1    3    3    0    0  0.37399131143E+02 -0.38968139822E+01  0.11491165420E+03  0.12090727208E+03  0.00000000000E+00 0.  1.
         13    1    3    3    0    0 -0.26532162843E+02 -0.13550476447E+02  0.35513807183E+01  0.30003056213E+02  0.00000000000E+00 0. -1.
         21    1    1    2  502  501 -0.20753155148E+02 -0.85641709947E+01 -0.94906511516E+01  0.24374390920E+02  0.00000000000E+00 0. -1.
<scales pt_clust_5="13000.00000" pt_clust_6="13000.00000" pt_clust_7="13000.00000" pt_clust_8="13000.00000" pt_clust_9="22.45080"></scales>
<clustering>
<clus scale="   22.451">  1  9  2 -1</clus>
<clus scale="   74.869">  5  6 -1 -1</clus>
<clus scale="   79.679">  2  5  1 -1</clus>
<clus scale="   91.203">  7  8 -1 -1</clus>
<clus scale="   79.679">  2  5  1 -1</clus>
</clustering>
</event>
<event>
 9    2  0.5608219E-005  0.3438311E+03  0.7546771E-02  0.1065479E+00
          2   -1    0    0  502    0  0.00000000000E+00  0.00000000000E+00  0.86125919238E+03  0.86125919238E+03  0.00000000000E+00 0. -1.
         -1   -1    0    0    0  501 -0.00000000000E+00 -0.00000000000E+00 -0.21157707871E+03  0.21157707871E+03  0.00000000000E+00 0.  1.
         24    2    1    2    0    0 -0.23363279622E+03  0.16407417955E+03  0.12453404247E+03  0.32154051468E+03  0.79843315194E+02 0.  0.
         23    2    1    2    0    0  0.26640174429E+03 -0.24001864420E+03  0.55181086031E+03  0.66439195908E+03  0.91337893619E+02 0.  0.
        -11    1    3    3    0    0 -0.20855501914E+03  0.16207986826E+03  0.90472372793E+02  0.27919586305E+03  0.00000000000E+00 0.  1.
         12    1    3    3    0    0 -0.25077777082E+02  0.19943112926E+01  0.34061669675E+02  0.42344651634E+02  0.00000000000E+00 0. -1.
        -11    1    4    4    0    0  0.78428985754E+02 -0.23824158565E+02  0.98535710185E+02  0.12817169157E+03  0.00000000000E+00 0.  1.
         11    1    4    4    0    0  0.18797275853E+03 -0.21619448563E+03  0.45327515013E+03  0.53622026751E+03  0.00000000000E+00 0. -1.
         21    1    1    2  502  501 -0.32768948066E+02  0.75944464643E+02 -0.26662789114E+02  0.86903797332E+02  0.00000000000E+00 0.  1.
<scales pt_clust_5="13000.00000" pt_clust_6="13000.00000" pt_clust_7="13000.00000" pt_clust_8="13000.00000" pt_clust_9="82.71255"></scales>
<clustering>
<clus scale="   79.843">  5  6 -1 -1</clus>
<clus scale="   82.713">  2  9  1 -1</clus>
<clus scale="   91.338">  7  8 -1 -1</clus>
<clus scale="  340.958">  2  5  1 -1</clus>
<clus scale="  343.831">  1  5  2 -1</clus>
</clustering>
</event>
<event>
 9    2  0.5608219E-005  0.1118061E+03  0.7546771E-02  0.1261272E+00
          2   -1    0    0  502    0  0.00000000000E+00  0.00000000000E+00  0.42398681088E+03  0.42398681088E+03  0.00000000000E+00 0. -1.
         -1   -1    0    0    0  501 -0.00000000000E+00 -0.00000000000E+00 -0.16326434542E+03  0.16326434542E+03  0.00000000000E+00 0.  1.
         24    2    1    2    0    0  0.12942652008E+01  0.35207127521E+02  0.72999036666E+02  0.11443882934E+03  0.80784709914E+02 0.  0.
         23    2    1    2    0    0  0.73692586608E+02 -0.53375588502E+02  0.30573270438E+03  0.33181831984E+03  0.91385776173E+02 0.  0.
        -13    1    3    3    0    0 -0.30336562178E+02  0.20064663150E+00  0.57087730183E+02  0.64647940425E+02  0.00000000000E+00 0.  1.
         14    1    3    3    0    0  0.31630827378E+02  0.35006480890E+02  0.15911306483E+02  0.49790888915E+02  0.00000000000E+00 0. -1.
        -13    1    4    4    0    0  0.38702225621E+02 -0.76577765078E+02  0.22534588392E+03  0.24112814803E+03  0.00000000000E+00 0.  1.
         13    1    4    4    0    0  0.34990360987E+02  0.23202176576E+02  0.80386820456E+02  0.90690171810E+02  0.00000000000E+00 0. -1.
         21    1    1    2  502  501 -0.74986851808E+02  0.18168460980E+02 -0.11800927559E+03  0.14099400712E+03  0.00000000000E+00 0.  1.
<scales pt_clust_5="13000.00000" pt_clust_6="13000.00000" pt_clust_7="13000.00000" pt_clust_8="13000.00000" pt_clust_9="77.15647"></scales>
<clustering>
<clus scale="   77.156">  2  9  1 -1</clus>
<clus scale="   80.785">  5  6 -1 -1</clus>
<clus scale="   91.386">  7  8 -1 -1</clus>
<clus scale="  103.322">  2  5  1 -1</clus>
<clus scale="  111.806">  1  5  2 -1</clus>
</clustering>
</event>
<event>
 9    2  0.5608219E-005  0.3649209E+03  0.7546771E-02  0.1056760E+00
         -1   -1    0    0    0  501 -0.00000000000E+00  0.00000000000E+00  0.15371467983E+03  0.15371467983E+03  0.00000000000E+00 0.  1.
          2   -1    0    0  502    0  0.00000000000E+00 -0.00000000000E+00 -0.17502093571E+04  0.17502093571E+04  0.00000000000E+00 0. -1.
         24    2    1    2    0    0  0.30257662822E+03  0.13623383714E+03 -0.12844424379E+03  0.36451937133E+03  0.79146534914E+02 0.  0.
         23    2    1    2    0    0 -0.34686604039E+03 -0.97980307042E+02 -0.14068731167E+04  0.14547432890E+04  0.84082578303E+02 0.  0.
        -11    1    3    3    0    0  0.24356414241E+03  0.10731740623E+03 -0.13506955352E+03  0.29846993389E+03  0.00000000000E+00 0.  1.
         12    1    3    3    0    0  0.59012485811E+02  0.28916430909E+02  0.66253097267E+01  0.66049437447E+02  0.00000000000E+00 0. -1.
        -13    1    4    4    0    0 -0.20502281531E+03 -0.15725703702E+02 -0.74405899751E+03  0.77194912029E+03  0.00000000000E+00 0.  1.
         13    1    4    4    0    0 -0.14184322508E+03 -0.82254603340E+02 -0.66281411915E+03  0.68279416870E+03  0.00000000000E+00 0. -1.
         21    1    1    2  502  501  0.44289412173E+02 -0.38253530100E+02 -0.61177316835E+02  0.84661376618E+02  0.00000000000E+00 0. -1.
<scales pt_clust_5="13000.00000" pt_clust_6="13000.00000" pt_clust_7="13000.00000" pt_clust_8="13000.00000" pt_clust_9="58.52251"></scales>
<clustering>
<clus scale="   58.523">  1  9  2 -1</clus>
<clus scale="   79.147">  5  6 -1 -1</clus>
<clus scale="   84.083">  7  8 -1 -1</clus>
<clus scale="  363.815">  1  5  2 -1</clus>
<clus scale="  364.921">  2  5  1 -1</clus>
</clustering>
</event>
<event>
 9    2  0.5608219E-005  0.9600930E+02  0.7546771E-02  0.1291864E+00
         -1   -1    0    0    0  501 -0.00000000000E+00  0.00000000000E+00  0.27998500048E+03  0.27998500048E+03  0.00000000000E+00 0.  1.
          2   -1    0    0  502    0  0.00000000000E+00 -0.00000000000E+00 -0.22300128526E+03  0.22300128526E+03  0.00000000000E+00 0. -1.
         23    2    1    2    0    0 -0.47740788233E+02  0.27560216173E+02  0.20473656774E+03  0.23029444806E+03  0.89887275304E+02 0.  0.
         24    2    1    2    0    0  0.11079685926E+02 -0.17309774870E+01 -0.18893107391E+03  0.21180808033E+03  0.95089202753E+02 0.  0.
        -11    1    4    4    0    0 -0.25464582869E+02  0.26200969101E+02 -0.32996561860E+02  0.49231177694E+02  0.00000000000E+00 0.  1.
         12    1    4    4    0    0  0.36544268795E+02 -0.27931946588E+02 -0.15593451205E+03  0.16257690263E+03  0.00000000000E+00 0. -1.
        -11    1    3    3    0    0 -0.80197782703E+01  0.53427452669E+02  0.77137368426E+02  0.94175278868E+02  0.00000000000E+00 0.  1.
         11    1    3    3    0    0 -0.39721009963E+02 -0.25867236496E+02  0.12759919931E+03  0.13611916919E+03  0.00000000000E+00 0. -1.
         21    1    1    2  502  501  0.36661102307E+02 -0.25829238686E+02  0.41178221384E+02  0.60883757356E+02  0.00000000000E+00 0. -1.
<scales pt_clust_5="13000.00000" pt_clust_6="13000.00000" pt_clust_7="13000.00000" pt_clust_8="13000.00000" pt_clust_9="44.84625"></scales>
<clustering>
<clus scale="   44.846">  1  9  2 -1</clus>
<clus scale="   89.887">  7  8 -1 -1</clus>
<clus scale="   90.860">  1  7  2 -1</clus>
<clus scale="   95.089">  5  6 -1 -1</clus>
<clus scale="   96.009">  2  5  1 -1</clus>
</clustering>
</event>
<event>
 9    2  0.5608219E-005  0.1082607E+03  0.7546771E-02  0.1268378E+00
          2   -1    0    0  502    0  0.00000000000E+00  0.00000000000E+00  0.54153639378E+03  0.54153639378E+03  0.00000000000E+00 0. -1.
         -1   -1    0    0    0  501 -0.00000000000E+00 -0.00000000000E+00 -0.47872214956E+02  0.47872214956E+02  0.00000000000E+00 0.  1.
         23    2    1    2    0    0 -0.78137320927E+02  0.94046760685E+01  0.60575575378E+02  0.13470359908E+03  0.91004232969E+02 0.  0.
         24    2    1    2    0    0  0.54030160231E+02 -0.13204595272E+02  0.40897901934E+03  0.42039951989E+03  0.79864250511E+02 0.  0.
        -11    1    4    4    0    0  0.16188341796E+02  0.33120923084E+02  0.17999874804E+03  0.18373515519E+03  0.00000000000E+00 0.  1.
         12    1    4    4    0    0  0.37841818436E+02 -0.46325518356E+02  0.22898027130E+03  0.23666436470E+03  0.00000000000E+00 0. -1.
        -13    1    3    3    0    0  0.31756178904E+01  0.34523542532E+02  0.23441801072E+02  0.41850658005E+02  0.00000000000E+00 0.  1.
         13    1    3    3    0    0 -0.81312938817E+02 -0.25118866464E+02  0.37133774306E+02  0.92852941072E+02  0.00000000000E+00 0. -1.
         21    1    1    2  502  501  0.24107160695E+02  0.37999192040E+01  0.24109584107E+02  0.34305489773E+02  0.00000000000E+00 0.  1.
<scales pt_clust_5="13000.00000" pt_clust_6="13000.00000" pt_clust_7="13000.00000" pt_clust_8="13000.00000" pt_clust_9="24.40481"></scales>
<clustering>
<clus scale="   24.405">  2  9  1 -1</clus>
<clus scale="   79.864">  5  6 -1 -1</clus>
<clus scale="   91.004">  7  8 -1 -1</clus>
<clus scale="   99.080">  1  5  2 -1</clus>
<clus scale="   99.080">  1  5  2 -1</clus>
</clustering>
</event>
<event>
 9    2  0.5608219E-005  0.1060834E+03  0.7546771E-02  0.1269360E+00
         -1   -1    0    0    0  501 -0.00000000000E+00  0.00000000000E+00  0.81037645216E+02  0.81037645216E+02  0.00000000000E+00 0.  1.
          2   -1    0    0  502    0  0.00000000000E+00 -0.00000000000E+00 -0.63751095618E+03  0.63751095618E+03  0.00000000000E+00 0. -1.
         23    2    1    2    0    0 -0.29281268231E+02  0.41318699274E+01  0.30017122314E+02  0.86576377014E+02  0.75630525627E+02 0.  0.
         24    2    1    2    0    0  0.73225530170E+02 -0.10257685283E+02 -0.57633854810E+03  0.58645646289E+03  0.79359073026E+02 0.  0.
        -13    1    4    4    0    0  0.85405041455E+02 -0.23581113181E+02 -0.43189390002E+03  0.44088822946E+03  0.00000000000E+00 0.  1.
         14    1    4    4    0    0 -0.12179511285E+02  0.13323427898E+02 -0.14444464807E+03  0.14556823343E+03  0.00000000000E+00 0. -1.
        -13    1    3    3    0    0  0.18862835378E+02  0.22772035551E+02  0.11577603138E+02  0.31755520087E+02  0.00000000000E+00 0. -1.
         13    1    3    3    0    0 -0.48144103609E+02 -0.18640165623E+02  0.18439519176E+02  0.54820856927E+02  0.00000000000E+00 0.  1.
         21    1    1    2  502  501 -0.43944261939E+02  0.61258153560E+01 -0.10151885181E+02  0.45515761488E+02  0.00000000000E+00 0.  1.
<scales pt_clust_5="13000.00000" pt_clust_6="13000.00000" pt_clust_7="13000.00000" pt_clust_8="13000.00000" pt_clust_9="44.36918"></scales>
<clustering>
<clus scale="   44.369">  1  9  2 -1</clus>
<clus scale="   75.631">  7  8 -1 -1</clus>
<clus scale="   79.359">  5  6 -1 -1</clus>
<clus scale="  103.324">  1  7  2 -1</clus>
<clus scale="  106.083">  2  5  1 -1</clus>
</clustering>
</event>
<event>
 9    2  0.5608219E-005  0.1563413E+03  0.7546771E-02  0.1194409E+00
         -1   -1    0    0    0  501 -0.00000000000E+00  0.00000000000E+00  0.51925002475E+03  0.51925002475E+03  0.00000000000E+00 0.  1.
          2   -1    0    0  502    0  0.00000000000E+00 -0.00000000000E+00 -0.31628416755E+03  0.31628416755E+03  0.00000000000E+00 0. -1.
         24    2    1    2    0    0 -0.12315418638E+03 -0.64080330684E+01  0.27950652562E+03  0.31623170883E+03  0.81673614458E+02 0.  0.
         23    2    1    2    0    0  0.10010273712E+03  0.81623421537E+02 -0.26870397933E+03  0.31165985289E+03  0.90813514822E+02 0.  0.
        -11    1    3    3    0    0 -0.33993590653E+02 -0.11828567900E+02  0.17540541716E+03  0.17906015635E+03  0.00000000000E+00 0.  1.
         12    1    3    3    0    0 -0.89160595724E+02  0.54205348316E+01  0.10410110846E+03  0.13717155248E+03  0.00000000000E+00 0. -1.
        -11    1    4    4    0    0  0.10821153317E+03  0.52927013693E+02 -0.16862532882E+03  0.20723297568E+03  0.00000000000E+00 0.  1.
         11    1    4    4    0    0 -0.81087960503E+01  0.28696407844E+02 -0.10007865050E+03  0.10442687721E+03  0.00000000000E+00 0. -1.
         21    1    1    2  502  501  0.23051449258E+02 -0.75215388468E+02  0.19216331091E+03  0.20764263058E+03  0.00000000000E+00 0.  1.
<scales pt_clust_5="13000.00000" pt_clust_6="13000.00000" pt_clust_7="13000.00000" pt_clust_8="13000.00000" pt_clust_9="78.66844"></scales>
<clustering>
<clus scale="   78.668">  1  9  2 -1</clus>
<clus scale="   81.674">  5  6 -1 -1</clus>
<clus scale="   90.814">  7  8 -1 -1</clus>
<clus scale="  151.215">  1  5  2 -1</clus>
<clus scale="  156.341">  2  5  1 -1</clus>
</clustering>
</event>
<event>
 9    2  0.5608219E-005  0.1799674E+03  0.7546771E-02  0.1168104E+00
         -1   -1    0    0    0  501 -0.00000000000E+00  0.00000000000E+00  0.72617654384E+02  0.72617654384E+02  0.00000000000E+00 0.  1.
          2   -1    0    0  502    0  0.00000000000E+00 -0.00000000000E+00 -0.82017129506E+03  0.82017129506E+03  0.00000000000E+00 0. -1.
         23    2    1    2    0    0  0.96886014875E+02 -0.11785914803E+03 -0.27135678536E+03  0.32473590598E+03  0.92418748176E+02 0.  0.
         24    2    1    2    0    0 -0.80225702927E+02  0.13147179560E+03 -0.50253578481E+03  0.53404408325E+03  0.94550893146E+02 0.  0.
        -13    1    4    4    0    0 -0.26495894795E+01  0.23225918138E+02 -0.13064632298E+02  0.26779623127E+02  0.00000000000E+00 0.  1.
         14    1    4    4    0    0 -0.77576113448E+02  0.10824587746E+03 -0.48947115251E+03  0.50726446012E+03  0.00000000000E+00 0. -1.
        -11    1    3    3    0    0  0.52158030068E+01 -0.24283435610E+02 -0.12863534149E+03  0.13101122443E+03  0.00000000000E+00 0. -1.
         11    1    3    3    0    0  0.91670211868E+02 -0.93575712423E+02 -0.14272144387E+03  0.19372468154E+03  0.00000000000E+00 0.  1.
         21    1    1    2  502  501 -0.16660311948E+02 -0.13612647562E+02  0.26338929498E+02  0.34008960216E+02  0.00000000000E+00 0. -1.
<scales pt_clust_5="13000.00000" pt_clust_6="13000.00000" pt_clust_7="13000.00000" pt_clust_8="13000.00000" pt_clust_9="21.51442"></scales>
<clustering>
<clus scale="   21.514">  1  9  2 -1</clus>
<clus scale="   92.419">  7  8 -1 -1</clus>
<clus scale="   94.551">  5  6 -1 -1</clus>
<clus scale="  178.856">  1  7  2 -1</clus>
<clus scale="  179.967">  2  5  1 -1</clus>
</clustering>
</event>
<event>
 9    2  0.5608219E-005  0.1522783E+03  0.7546771E-02  0.1231725E+00
         -3   -1    0    0    0  501 -0.00000000000E+00  0.00000000000E+00  0.85139451618E+03  0.85139451618E+03  0.00000000000E+00 0.  1.
          4   -1    0    0  502    0  0.00000000000E+00 -0.00000000000E+00 -0.43752623759E+02  0.43752623759E+02  0.00000000000E+00 0. -1.
         24    2    1    2    0    0 -0.10278352861E+02 -0.19858426332E+02  0.32288874889E+03  0.33127191289E+03  0.70596986290E+02 0.  0.
         23    2    1    2    0    0 -0.13202448037E+02  0.13165295392E+03  0.18846007239E+03  0.24632373766E+03  0.87472166666E+02 0.  0.
        -13    1    3    3    0    0  0.25904459384E+02 -0.24612231110E+02  0.12325739345E+03  0.12833233411E+03  0.00000000000E+00 0.  1.
         14    1    3    3    0    0 -0.36182812245E+02  0.47538047776E+01  0.19963135544E+03  0.20293957878E+03  0.00000000000E+00 0. -1.
        -11    1    4    4    0    0  0.33123526736E+02  0.75598821501E+02  0.12509413162E+03  0.14986958197E+03  0.00000000000E+00 0.  1.
         11    1    4    4    0    0 -0.46325974773E+02  0.56054132416E+02  0.63365940771E+02  0.96454155687E+02  0.00000000000E+00 0. -1.
         21    1    1    2  502  501  0.23480800898E+02 -0.11179452759E+03  0.29629307114E+03  0.31755148939E+03  0.00000000000E+00 0.  1.
<scales pt_clust_5="13000.00000" pt_clust_6="13000.00000" pt_clust_7="13000.00000" pt_clust_8="13000.00000" pt_clust_9="124.64870"></scales>
<clustering>
<clus scale="   70.597">  5  6 -1 -1</clus>
<clus scale="   74.054">  1  5  2 -1</clus>
<clus scale="   87.472">  7  8 -1 -1</clus>
<clus scale="  124.649">  1  9  2 -1</clus>
<clus scale="  152.278">  2  5  1 -1</clus>
</clustering>
</event>
<event>
 9    2  0.5608219E-005  0.1536256E+03  0.7546771E-02  0.1216752E+00
         -1   -1    0    0    0  501 -0.00000000000E+00  0.00000000000E+00  0.92424893212E+02  0.92424893212E+02  0.00000000000E+00 0.  1.
          2   -1    0    0  502    0  0.00000000000E+00 -0.00000000000E+00 -0.93496405250E+03  0.93496405250E+03  0.00000000000E+00 0. -1.
         23    2    1    2    0    0  0.56393249667E+00 -0.39599773795E+02  0.22655807374E+02  0.10111808348E+03  0.90239243649E+02 0.  0.
         24    2    1    2    0    0  0.12974893349E+03  0.20086270012E+02 -0.22567417807E+03  0.27331676054E+03  0.80839179623E+02 0.  0.
        -11    1    4    4    0    0  0.13555449859E+03  0.28069991030E+01 -0.20467919508E+03  0.24551267631E+03  0.00000000000E+00 0.  1.
         12    1    4    4    0    0 -0.58055650974E+01  0.17279270909E+02 -0.20994982983E+02  0.27804084227E+02  0.00000000000E+00 0. -1.
        -13    1    3    3    0    0 -0.33595335213E+01 -0.67215817201E+02  0.37159199062E+01  0.67402229994E+02  0.00000000000E+00 0.  1.
         13    1    3    3    0    0  0.39234660180E+01  0.27616043406E+02  0.18939887467E+02  0.33715853486E+02  0.00000000000E+00 0. -1.
         21    1    1    2  502  501 -0.13031286599E+03  0.19513503784E+02 -0.63952078859E+03  0.65295410169E+03  0.00000000000E+00 0. -1.
<scales pt_clust_5="13000.00000" pt_clust_6="13000.00000" pt_clust_7="13000.00000" pt_clust_8="13000.00000" pt_clust_9="130.63634"></scales>
<clustering>
<clus scale="   80.839">  5  6 -1 -1</clus>
<clus scale="   90.239">  7  8 -1 -1</clus>
<clus scale="   98.547">  1  7  2 -1</clus>
<clus scale="  130.636">  2  9  1 -1</clus>
<clus scale="  130.636">  2  5  1 -1</clus>
</clustering>
</event>
<event>
 9    2  0.5608219E-005  0.1364970E+03  0.7546771E-02  0.1223669E+00
         -1   -1    0    0    0  501 -0.00000000000E+00  0.00000000000E+00  0.40242446450E+03  0.40242446450E+03  0.00000000000E+00 0.  1.
          2   -1    0    0  502    0  0.00000000000E+00 -0.00000000000E+00 -0.20857398064E+03  0.20857398064E+03  0.00000000000E+00 0. -1.
         23    2    1    2    0    0  0.62861227151E+02 -0.11030701125E+03  0.22486944560E+03  0.27627153040E+03  0.98186151433E+02 0.  0.
         24    2    1    2    0    0 -0.23876727615E+02  0.89421596758E+02 -0.15915429467E+03  0.19917376912E+03  0.75985397954E+02 0.  0.
        -13    1    4    4    0    0  0.29048979190E+01  0.25223048005E+02  0.10052923902E+00  0.25389972207E+02  0.00000000000E+00 0.  1.
         14    1    4    4    0    0 -0.26781625534E+02  0.64198548753E+02 -0.15925482391E+03  0.17378379691E+03  0.00000000000E+00 0. -1.
        -11    1    3    3    0    0  0.70242513130E+02 -0.72135549369E+02  0.21303785988E+03  0.23563250598E+03  0.00000000000E+00 0.  1.
         11    1    3    3    0    0 -0.73812859792E+01 -0.38171461878E+02  0.11831585723E+02  0.40639024414E+02  0.00000000000E+00 0. -1.
         21    1    1    2  502  501 -0.38984499536E+02  0.20885414489E+02  0.12813533294E+03  0.13555314563E+03  0.00000000000E+00 0. -1.
<scales pt_clust_5="13000.00000" pt_clust_6="13000.00000" pt_clust_7="13000.00000" pt_clust_8="13000.00000" pt_clust_9="44.22660"></scales>
<clustering>
<clus scale="   44.227">  1  9  2 -1</clus>
<clus scale="   75.985">  5  6 -1 -1</clus>
<clus scale="   98.186">  7  8 -1 -1</clus>
<clus scale="  121.510">  2  5  1 -1</clus>
<clus scale="  121.510">  2  5  1 -1</clus>
</clustering>
</event>
<event>
 9    2  0.5608219E-005  0.1051414E+03  0.7546771E-02  0.1273380E+00
         -1   -1    0    0    0  501 -0.00000000000E+00  0.00000000000E+00  0.11275499942E+03  0.11275499942E+03  0.00000000000E+00 0.  1.
          2   -1    0    0  502    0  0.00000000000E+00 -0.00000000000E+00 -0.27754613545E+03  0.27754613545E+03  0.00000000000E+00 0. -1.
         23    2    1    2    0    0 -0.29371862163E+02  0.66367932020E+01  0.59386242764E+02  0.11280647940E+03  0.91059445715E+02 0.  0.
         24    2    1    2    0    0  0.49624174061E+02 -0.24549828590E+02 -0.22923329169E+03  0.24998837929E+03  0.82952004360E+02 0.  0.
        -13    1    4    4    0    0  0.36549135153E+02  0.26213408997E+02 -0.79458175147E+02  0.91304894115E+02  0.00000000000E+00 0.  1.
         14    1    4    4    0    0  0.13075038909E+02 -0.50763237587E+02 -0.14977511654E+03  0.15868348518E+03  0.00000000000E+00 0. -1.
        -11    1    3    3    0    0 -0.14997175797E+02 -0.38346411082E+02  0.61306498314E+01  0.41628684727E+02  0.00000000000E+00 0. -1.
         11    1    3    3    0    0 -0.14374686366E+02  0.44983204284E+02  0.53255592933E+02  0.71177794672E+02  0.00000000000E+00 0.  1.
         21    1    1    2  502  501 -0.20252311899E+02  0.17913035388E+02  0.50559129005E+01  0.27506276180E+02  0.00000000000E+00 0.  1.
<scales pt_clust_5="13000.00000" pt_clust_6="13000.00000" pt_clust_7="13000.00000" pt_clust_8="13000.00000" pt_clust_9="27.03762"></scales>
<clustering>
<clus scale="   27.038">  1  9  2 -1</clus>
<clus scale="   82.952">  5  6 -1 -1</clus>
<clus scale="   91.059">  7  8 -1 -1</clus>
<clus scale="   98.203">  2  5  1 -1</clus>
<clus scale="   98.203">  2  5  1 -1</clus>
</clustering>
</event>
<event>
 9    2  0.5608219E-005  0.1090140E+03  0.7546771E-02  0.1266982E+00
          2   -1    0    0  502    0  0.00000000000E+00  0.00000000000E+00  0.83710795673E+02  0.83710795673E+02  0.00000000000E+00 0. -1.
         -1   -1    0    0    0  501 -0.00000000000E+00 -0.00000000000E+00 -0.47940283024E+03  0.47940283024E+03  0.00000000000E+00 0.  1.
         23    2    1    2    0    0  0.11477900190E+02  0.73425124512E+02 -0.27538597676E+03  0.29941336688E+03  0.91038107228E+02 0.  0.
         24    2    1    2    0    0 -0.18953219449E+02  0.12056902902E+02 -0.14143877158E+03  0.17532804056E+03  0.10114545103E+03 0.  0.
        -13    1    4    4    0    0  0.62793160856E+01  0.48589610992E+02 -0.11146719494E+03  0.12175925285E+03  0.00000000000E+00 0.  1.
         14    1    4    4    0    0 -0.25232535535E+02 -0.36532708089E+02 -0.29971576640E+02  0.53568787705E+02  0.00000000000E+00 0. -1.
        -13    1    3    3    0    0  0.42538356185E+02  0.39313248643E+02 -0.21914806559E+03  0.22667359334E+03  0.00000000000E+00 0.  1.
         13    1    3    3    0    0 -0.31060455995E+02  0.34111875869E+02 -0.56237911171E+02  0.72739773541E+02  0.00000000000E+00 0. -1.
         21    1    1    2  502  501  0.74753192593E+01 -0.85482027414E+02  0.21132713767E+02  0.88372218485E+02  0.00000000000E+00 0. -1.
<scales pt_clust_5="13000.00000" pt_clust_6="13000.00000" pt_clust_7="13000.00000" pt_clust_8="13000.00000" pt_clust_9="85.80826"></scales>
<clustering>
<clus scale="   85.808">  1  9  2 -1</clus>
<clus scale="   91.038">  7  8 -1 -1</clus>
<clus scale="   99.708">  2  7  1 -1</clus>
<clus scale="  101.145">  5  6 -1 -1</clus>
<clus scale="   85.808">  1  5  2 -1</clus>
</clustering>
</event>
<event>
 9    2  0.5608219E-005  0.1011292E+03  0.7546771E-02  0.1283107E+00
         -1   -1    0    0    0  501 -0.00000000000E+00  0.00000000000E+00  0.35379155130E+03  0.35379155130E+03  0.00000000000E+00 0.  1.
          2   -1    0    0  502    0  0.00000000000E+00 -0.00000000000E+00 -0.10836714133E+03  0.10836714133E+03  0.00000000000E+00 0. -1.
         24    2    1    2    0    0 -0.27657378186E+02  0.23873949373E+01  0.13673113557E+03  0.16088974997E+03  0.80121644953E+02 0.  0.
         23    2    1    2    0    0  0.39878272275E+02 -0.27184331774E+02 -0.67446151534E+02  0.12297330138E+03  0.90797494465E+02 0.  0.
        -11    1    3    3    0    0 -0.38966091273E+02  0.13897774560E+02  0.25723648228E+02  0.48715608227E+02  0.00000000000E+00 0.  1.
         12    1    3    3    0    0  0.11308713087E+02 -0.11510379623E+02  0.11100748734E+03  0.11217414174E+03  0.00000000000E+00 0. -1.
        -13    1    4    4    0    0 -0.10430013347E+02  0.24090337629E+02 -0.29179763893E+01  0.26412953862E+02  0.00000000000E+00 0.  1.
         13    1    4    4    0    0  0.50308285622E+02 -0.51274669403E+02 -0.64528175145E+02  0.96560347515E+02  0.00000000000E+00 0. -1.
         21    1    1    2  502  501 -0.12220894089E+02  0.24796936837E+02  0.17613942593E+03  0.17829564127E+03  0.00000000000E+00 0.  1.
<scales pt_clust_5="13000.00000" pt_clust_6="13000.00000" pt_clust_7="13000.00000" pt_clust_8="13000.00000" pt_clust_9="27.64486"></scales>
<clustering>
<clus scale="   27.645">  1  9  2 -1</clus>
<clus scale="   80.122">  5  6 -1 -1</clus>
<clus scale="   90.797">  7  8 -1 -1</clus>
<clus scale="   91.665">  1  5  2 -1</clus>
<clus scale="  101.129">  2  5  1 -1</clus>
</clustering>
</event>
<event>
 9    2  0.5608219E-005  0.2043792E+03  0.7546771E-02  0.1146551E+00
         -1   -1    0    0    0  501 -0.00000000000E+00  0.00000000000E+00  0.13653419082E+03  0.13653419082E+03  0.00000000000E+00 0.  1.
          2   -1    0    0  502    0  0.00000000000E+00 -0.00000000000E+00 -0.48264843916E+03  0.48264843916E+03  0.00000000000E+00 0. -1.
         24    2    1    2    0    0 -0.15488704323E+03 -0.79478701103E+02 -0.30813345656E+01  0.19393826866E+03  0.85414854327E+02 0.  0.
         23    2    1    2    0    0  0.17511601260E+03  0.63698885750E+02 -0.34165046341E+03  0.39955146457E+03  0.90516118880E+02 0.  0.
        -11    1    3    3    0    0 -0.11869482491E+03 -0.54693610415E+02  0.35602167557E+02  0.13545245223E+03  0.00000000000E+00 0.  1.
         12    1    3    3    0    0 -0.36192218324E+02 -0.24785090689E+02 -0.38683502123E+02  0.58485816436E+02  0.00000000000E+00 0. -1.
        -11    1    4    4    0    0  0.91885897329E+02  0.53026449606E+01 -0.92660651558E+02  0.13060295754E+03  0.00000000000E+00 0.  1.
         11    1    4    4    0    0  0.83230115271E+02  0.58396240790E+02 -0.24898981186E+03  0.26894850703E+03  0.00000000000E+00 0. -1.
         21    1    1    2  502  501 -0.20228969370E+02  0.15779815353E+02 -0.13824503610E+01  0.25692896749E+02  0.00000000000E+00 0. -1.
<scales pt_clust_5="13000.00000" pt_clust_6="13000.00000" pt_clust_7="13000.00000" pt_clust_8="13000.00000" pt_clust_9="25.65568"></scales>
<clustering>
<clus scale="   25.656">  1  9  2 -1</clus>
<clus scale="   85.415">  5  6 -1 -1</clus>
<clus scale="   90.516">  7  8 -1 -1</clus>
<clus scale="  202.172">  1  5  2 -1</clus>
<clus scale="  204.379">  2  5  1 -1</clus>
</clustering>
</event>
<event>
 9    2  0.5608219E-005  0.2250397E+03  0.7546771E-02  0.1131061E+00
         -1   -1    0    0    0  501 -0.00000000000E+00  0.00000000000E+00  0.15852971202E+03  0.15852971202E+03  0.00000000000E+00 0.  1.
          2   -1    0    0  502    0  0.00000000000E+00 -0.00000000000E+00 -0.35176325948E+03  0.35176325948E+03  0.00000000000E+00 0. -1.
         23    2    1    2    0    0 -0.13219721230E+03 -0.14005129205E+03 -0.79926762837E+02  0.22848844003E+03  0.93424902817E+02 0.  0.
         24    2    1    2    0    0  0.15168722593E+03  0.15452532228E+03 -0.11333994968E+03  0.25752780841E+03  0.81163650575E+02 0.  0.
        -13    1    4    4    0    0  0.76770573513E+02  0.64277384349E+02 -0.89764325394E+01  0.10052800325E+03  0.00000000000E+00 0.  1.
         14    1    4    4    0    0  0.74916652415E+02  0.90247937932E+02 -0.10436351714E+03  0.15699980516E+03  0.00000000000E+00 0. -1.
        -11    1    3    3    0    0 -0.96362573346E+02 -0.66977544248E+02 -0.43680006065E+01  0.11743430676E+03  0.00000000000E+00 0.  1.
         11    1    3    3    0    0 -0.35834638953E+02 -0.73073747803E+02 -0.75558762230E+02  0.11105413327E+03  0.00000000000E+00 0. -1.
         21    1    1    2  502  501 -0.19490013629E+02 -0.14474030231E+02  0.33165055352E-01  0.24276723055E+02  0.00000000000E+00 0. -1.
<scales pt_clust_5="13000.00000" pt_clust_6="13000.00000" pt_clust_7="13000.00000" pt_clust_8="13000.00000" pt_clust_9="24.27670"></scales>
<clustering>
<clus scale="   24.277">  1  9  2 -1</clus>
<clus scale="   81.164">  5  6 -1 -1</clus>
<clus scale="   93.425">  7  8 -1 -1</clus>
<clus scale="  220.232">  2  5  1 -1</clus>
<clus scale="  220.232">  2  5  1 -1</clus>
</clustering>
</event>
<event>
 9    2  0.5608219E-005  0.1378050E+03  0.7546771E-02  0.1220014E+00
         -1   -1    0    0    0  501 -0.00000000000E+00  0.00000000000E+00  0.13066532692E+03  0.13066532692E+03  0.00000000000E+00 0.  1.
          2   -1    0    0  502    0  0.00000000000E+00 -0.00000000000E+00 -0.62593051607E+03  0.62593051607E+03  0.00000000000E+00 0. -1.
         23    2    1    2    0    0  0.10237973225E+03 -0.38680551600E+02  0.61358352009E+02  0.15700286600E+03  0.94378270402E+02 0.  0.
         24    2    1    2    0    0 -0.78764269264E+02  0.61817995221E+02 -0.55168000670E+03  0.56616439757E+03  0.78524013109E+02 0.  0.
        -11    1    4    4    0    0 -0.58846611988E+02  0.28948082023E+02 -0.16464118724E+03  0.17722199562E+03  0.00000000000E+00 0.  1.
         12    1    4    4    0    0 -0.19917657276E+02  0.32869913197E+02 -0.38703881946E+03  0.38894240195E+03  0.00000000000E+00 0. -1.
        -13    1    3    3    0    0  0.88750569463E+02  0.11949972290E+02  0.52561305665E+02  0.10383716228E+03  0.00000000000E+00 0.  1.
         13    1    3    3    0    0  0.13629162789E+02 -0.50630523890E+02  0.87970463443E+01  0.53165703721E+02  0.00000000000E+00 0. -1.
         21    1    1    2  502  501 -0.23615462988E+02 -0.23137443621E+02 -0.49435344556E+01  0.33428579425E+02  0.00000000000E+00 0. -1.
<scales pt_clust_5="13000.00000" pt_clust_6="13000.00000" pt_clust_7="13000.00000" pt_clust_8="13000.00000" pt_clust_9="33.06103"></scales>
<clustering>
<clus scale="   33.061">  1  9  2 -1</clus>
<clus scale="   78.524">  5  6 -1 -1</clus>
<clus scale="   94.378">  7  8 -1 -1</clus>
<clus scale="  127.472">  2  5  1 -1</clus>
<clus scale="  127.472">  2  5  1 -1</clus>
</clustering>
</event>
<event>
 9    2  0.5608219E-005  0.1280094E+03  0.7546771E-02  0.1232763E+00
          2   -1    0    0  502    0  0.00000000000E+00  0.00000000000E+00  0.36319326479E+03  0.36319326479E+03  0.00000000000E+00 0. -1.
         -1   -1    0    0    0  501 -0.00000000000E+00 -0.00000000000E+00 -0.58040285722E+02  0.58040285722E+02  0.00000000000E+00 0.  1.
         23    2    1    2    0    0 -0.30740892536E+01  0.79812529012E+02  0.64876008584E+02  0.13699513877E+03  0.90439381599E+02 0.  0.
         24    2    1    2    0    0 -0.15520302047E+02 -0.94978290748E+02  0.21532967779E+03  0.24962455426E+03  0.81754464495E+02 0.  0.
        -13    1    4    4    0    0 -0.40983663504E+02 -0.81467638698E+02  0.12447730449E+03  0.15430889852E+03  0.00000000000E+00 0.  1.
         14    1    4    4    0    0  0.25463361457E+02 -0.13510652051E+02  0.90852373302E+02  0.95315655746E+02  0.00000000000E+00 0. -1.
        -13    1    3    3    0    0  0.13849857698E+02  0.36177854974E+02 -0.17300268490E+02  0.42425876993E+02  0.00000000000E+00 0.  1.
         13    1    3    3    0    0 -0.16923946952E+02  0.43634674038E+02  0.82176277074E+02  0.94569261775E+02  0.00000000000E+00 0. -1.
         21    1    1    2  502  501  0.18594391301E+02  0.15165761736E+02  0.24947292690E+02  0.34613857477E+02  0.00000000000E+00 0.  1.
<scales pt_clust_5="13000.00000" pt_clust_6="13000.00000" pt_clust_7="13000.00000" pt_clust_8="13000.00000" pt_clust_9="23.99483"></scales>
<clustering>
<clus scale="   23.995">  2  9  1 -1</clus>
<clus scale="   81.754">  5  6 -1 -1</clus>
<clus scale="   90.439">  7  8 -1 -1</clus>
<clus scale="  122.028">  1  5  2 -1</clus>
<clus scale="  122.028">  1  5  2 -1</clus>
</clustering>
</event>
<event>
 9    2  0.5608219E-005  0.1098303E+03  0.7546771E-02  0.1266374E+00
         -1   -1    0    0    0  501 -0.00000000000E+00  0.00000000000E+00  0.39031948524E+02  0.39031948524E+02  0.00000000000E+00 0.  1.
          2   -1    0    0  502    0  0.00000000000E+00 -0.00000000000E+00 -0.64131641245E+03  0.64131641245E+03  0.00000000000E+00 0. -1.
         23    2    1    2    0    0 -0.85997090174E+02 -0.18777498540E+02 -0.36967321163E+03  0.39105707426E+03  0.92299826446E+02 0.  0.
         24    2    1    2    0    0  0.36350308741E+02 -0.18634570229E+02 -0.20071674237E+03  0.21942194037E+03  0.78677729321E+02 0.  0.
        -11    1    4    4    0    0  0.18906617708E+02  0.26050513189E+02 -0.38095526384E+02  0.49873425399E+02  0.00000000000E+00 0.  1.
         12    1    4    4    0    0  0.17443691033E+02 -0.44685083418E+02 -0.16262121599E+03  0.16954851497E+03  0.00000000000E+00 0. -1.
        -11    1    3    3    0    0 -0.36582325260E+02  0.30156387436E+02 -0.78598955342E+02  0.91790359001E+02  0.00000000000E+00 0.  1.
         11    1    3    3    0    0 -0.49414764913E+02 -0.48933885976E+02 -0.29107425628E+03  0.29926671525E+03  0.00000000000E+00 0. -1.
         21    1    1    2  502  501  0.49646781432E+02  0.37412068768E+02 -0.31894509920E+02  0.69869346348E+02  0.00000000000E+00 0.  1.
<scales pt_clust_5="13000.00000" pt_clust_6="13000.00000" pt_clust_7="13000.00000" pt_clust_8="13000.00000" pt_clust_9="62.16483"></scales>
<clustering>
<clus scale="   62.165">  1  9  2 -1</clus>
<clus scale="   78.678">  5  6 -1 -1</clus>
<clus scale="   92.300">  7  8 -1 -1</clus>
<clus scale="   98.659">  2  5  1 -1</clus>
<clus scale="   98.659">  2  5  1 -1</clus>
</clustering>
</event>
<event>
 9    2  0.5608219E-005  0.1038924E+03  0.7546771E-02  0.1276169E+00
         -1   -1    0    0    0  501 -0.00000000000E+00  0.00000000000E+00  0.45988251552E+02  0.45988251552E+02  0.00000000000E+00 0.  1.
          2   -1    0    0  502    0  0.00000000000E+00 -0.00000000000E+00 -0.50487258275E+03  0.50487258275E+03  0.00000000000E+00 0. -1.
         23    2    1    2    0    0 -0.25016907860E+02  0.67443925193E+01 -0.66001803519E+02  0.11555065992E+03  0.91238064588E+02 0.  0.
         24    2    1    2    0    0  0.46576195439E+02 -0.31176775418E+02 -0.39000630598E+03  0.40259906212E+03  0.82702798039E+02 0.  0.
        -13    1    4    4    0    0  0.54082847862E+01 -0.42084324529E+02 -0.89023060027E+02  0.98617671499E+02  0.00000000000E+00 0.  1.
         14    1    4    4    0    0  0.41167910653E+02  0.10907549111E+02 -0.30098324596E+03  0.30398139062E+03  0.00000000000E+00 0. -1.
        -11    1    3    3    0    0  0.16697823659E+02  0.32894495393E+02 -0.51053610695E+01  0.37241507136E+02  0.00000000000E+00 0. -1.
         11    1    3    3    0    0 -0.41714731519E+02 -0.26150102874E+02 -0.60896442450E+02  0.78309152780E+02  0.00000000000E+00 0.  1.
         21    1    1    2  502  501 -0.21559287579E+02  0.24432382899E+02 -0.28762217012E+01  0.32711112275E+02  0.00000000000E+00 0. -1.
<scales pt_clust_5="13000.00000" pt_clust_6="13000.00000" pt_clust_7="13000.00000" pt_clust_8="13000.00000" pt_clust_9="32.58442"></scales>
<clustering>
<clus scale="   32.584">  1  9  2 -1</clus>
<clus scale="   82.703">  5  6 -1 -1</clus>
<clus scale="   91.238">  7  8 -1 -1</clus>
<clus scale="   96.483">  2  5  1 -1</clus>
<clus scale="   96.483">  2  5  1 -1</clus>
</clustering>
</event>
<event>
 9    2  0.5608219E-005  0.2082246E+03  0.7546771E-02  0.1143864E+00
          2   -1    0    0  502    0  0.00000000000E+00  0.00000000000E+00  0.60629222498E+03  0.60629222498E+03  0.00000000000E+00 0. -1.
         -1   -1    0    0    0  501 -0.00000000000E+00 -0.00000000000E+00 -0.13629168060E+03  0.13629168060E+03  0.00000000000E+00 0.  1.
         24    2    1    2    0    0  0.14512326550E+03 -0.16221432322E+03  0.49256960016E+02  0.23703824310E+03  0.79916404667E+02 0.  0.
         23    2    1    2    0    0 -0.13051820490E+03  0.12437327635E+03  0.41890522951E+03  0.46494231074E+03  0.90476777813E+02 0.  0.
        -13    1    3    3    0    0  0.14799857559E+03 -0.16619515482E+03  0.39366589446E+02  0.22599587658E+03  0.00000000000E+00 0.  1.
         14    1    3    3    0    0 -0.28753100946E+01  0.39808316054E+01  0.98903705700E+01  0.11042366523E+02  0.00000000000E+00 0. -1.
        -13    1    4    4    0    0 -0.57720574103E+02  0.10543545356E+01  0.10250010141E+03  0.11763947946E+03  0.00000000000E+00 0.  1.
         13    1    4    4    0    0 -0.72797630799E+02  0.12331892181E+03  0.31640512810E+03  0.34730283128E+03  0.00000000000E+00 0. -1.
         21    1    1    2  502  501 -0.14605060597E+02  0.37841046873E+02  0.18383548523E+01  0.40603351734E+02  0.00000000000E+00 0. -1.
<scales pt_clust_5="13000.00000" pt_clust_6="13000.00000" pt_clust_7="13000.00000" pt_clust_8="13000.00000" pt_clust_9="40.56171"></scales>
<clustering>
<clus scale="   40.562">  2  9  1 -1</clus>
<clus scale="   79.916">  5  6 -1 -1</clus>
<clus scale="   90.477">  7  8 -1 -1</clus>
<clus scale="  203.858">  2  5  1 -1</clus>
<clus scale="  208.225">  1  5  2 -1</clus>
</clustering>
</event>
<event>
 9    2  0.5608219E-005  0.1315162E+03  0.7546771E-02  0.1228022E+00
         -3   -1    0    0    0  501 -0.00000000000E+00  0.00000000000E+00  0.39879485820E+03  0.39879485820E+03  0.00000000000E+00 0.  1.
          4   -1    0    0  502    0  0.00000000000E+00 -0.00000000000E+00 -0.11805557443E+03  0.11805557443E+03  0.00000000000E+00 0. -1.
         24    2    1    2    0    0 -0.41715867060E+02  0.90376372915E+02  0.27529963282E+03  0.30314735510E+03  0.78742166119E+02 0.  0.
         23    2    1    2    0    0  0.68912180422E+02 -0.67153412848E+02 -0.55568456073E+02  0.14298579211E+03  0.89992299496E+02 0.  0.
        -13    1    3    3    0    0 -0.56106868976E+02  0.58069930091E+02  0.12552366244E+03  0.14925242832E+03  0.00000000000E+00 0.  1.
         14    1    3    3    0    0  0.14391001917E+02  0.32306442823E+02  0.14977597038E+03  0.15389492678E+03  0.00000000000E+00 0. -1.
        -13    1    4    4    0    0  0.25904932470E+02  0.19382444003E+02 -0.18070793614E+01  0.32403860845E+02  0.00000000000E+00 0.  1.
         13    1    4    4    0    0  0.43007247952E+02 -0.86535856851E+02 -0.53761376712E+02  0.11058193127E+03  0.00000000000E+00 0. -1.
         21    1    1    2  502  501 -0.27196313363E+02 -0.23222960067E+02  0.61008107022E+02  0.70717285420E+02  0.00000000000E+00 0.  1.
<scales pt_clust_5="13000.00000" pt_clust_6="13000.00000" pt_clust_7="13000.00000" pt_clust_8="13000.00000" pt_clust_9="35.76235"></scales>
<clustering>
<clus scale="   35.762">  1  9  2 -1</clus>
<clus scale="   78.742">  5  6 -1 -1</clus>
<clus scale="   89.992">  7  8 -1 -1</clus>
<clus scale="  124.090">  1  5  2 -1</clus>
<clus scale="  131.516">  2  5  1 -1</clus>
</clustering>
</event>
<event>
 9    2  0.5608219E-005  0.1074679E+03  0.7546771E-02  0.1268889E+00
         -1   -1    0    0    0  501 -0.00000000000E+00  0.00000000000E+00  0.58726799165E+02  0.58726799165E+02  0.00000000000E+00 0.  1.
          2   -1    0    0  502    0  0.00000000000E+00 -0.00000000000E+00 -0.48131099917E+03  0.48131099917E+03  0.00000000000E+00 0. -1.
         24    2    1    2    0    0 -0.81280779239E+02 -0.16328626876E+02 -0.31522719844E+02  0.11991484718E+03  0.80701298488E+02 0.  0.
         23    2    1    2    0    0  0.51058701699E+02  0.22658483409E+02 -0.36430436805E+03  0.37926485400E+03  0.89463730140E+02 0.  0.
        -11    1    3    3    0    0 -0.59379534137E+02 -0.29261356956E+02  0.14098500412E+02  0.67682522109E+02  0.00000000000E+00 0.  1.
         12    1    3    3    0    0 -0.21901245102E+02  0.12932730079E+02 -0.45621220256E+02  0.52232325067E+02  0.00000000000E+00 0. -1.
        -13    1    4    4    0    0  0.20993590678E+02 -0.33009948203E+02 -0.18596902383E+03  0.19003911533E+03  0.00000000000E+00 0.  1.
         13    1    4    4    0    0  0.30065111021E+02  0.55668431612E+02 -0.17833534422E+03  0.18922573868E+03  0.00000000000E+00 0. -1.
         21    1    1    2  502  501  0.30222077540E+02 -0.63298565326E+01 -0.26757112106E+02  0.40858097151E+02  0.00000000000E+00 0.  1.
<scales pt_clust_5="13000.00000" pt_clust_6="13000.00000" pt_clust_7="13000.00000" pt_clust_8="13000.00000" pt_clust_9="30.87784"></scales>
<clustering>
<clus scale="   30.878">  1  9  2 -1</clus>
<clus scale="   80.701">  5  6 -1 -1</clus>
<clus scale="   89.464">  7  8 -1 -1</clus>
<clus scale="  100.291">  1  5  2 -1</clus>
<clus scale="  107.468">  2  5  1 -1</clus>
</clustering>
</event>
<event>
 9    2  0.5608219E-005  0.1036561E+03  0.7546771E-02  0.1278061E+00
          2   -1    0    0  502    0  0.00000000000E+00  0.00000000000E+00  0.30220277226E+03  0.30220277226E+03  0.00000000000E+00 0. -1.
         -1   -1    0    0    0  501 -0.00000000000E+00 -0.00000000000E+00 -0.23535595300E+03  0.23535595300E+03  0.00000000000E+00 0.  1.
         24    2    1    2    0    0 -0.33725717183E+02  0.33134370051E+02 -0.18317049056E+03  0.20547031331E+03  0.80195452263E+02 0.  0.
         23    2    1    2    0    0  0.47078631827E+02 -0.12792466063E+02  0.27696407135E+03  0.29578109389E+03  0.91636858975E+02 0.  0.
        -11    1    3    3    0    0 -0.18924569688E+02 -0.24299090688E+02 -0.39867062173E+02  0.50378247215E+02  0.00000000000E+00 0.  1.
         12    1    3    3    0    0 -0.14801147495E+02  0.57433460740E+02 -0.14330342839E+03  0.15509206610E+03  0.00000000000E+00 0. -1.
        -11    1    4    4    0    0  0.42471241221E+02 -0.50388621627E+02  0.17962867811E+03  0.19133552080E+03  0.00000000000E+00 0.  1.
         11    1    4    4    0    0  0.46073906063E+01  0.37596155564E+02  0.97335393241E+02  0.10444557309E+03  0.00000000000E+00 0. -1.
         21    1    1    2  502  501 -0.13352914645E+02 -0.20341903988E+02 -0.26946761525E+02  0.36307318051E+02  0.00000000000E+00 0.  1.
<scales pt_clust_5="13000.00000" pt_clust_6="13000.00000" pt_clust_7="13000.00000" pt_clust_8="13000.00000" pt_clust_9="24.33297"></scales>
<clustering>
<clus scale="   24.333">  2  9  1 -1</clus>
<clus scale="   80.195">  5  6 -1 -1</clus>
<clus scale="   91.637">  7  8 -1 -1</clus>
<clus scale="   93.694">  2  5  1 -1</clus>
<clus scale="  103.656">  1  5  2 -1</clus>
</clustering>
</event>
<event>
 9    2  0.5608219E-005  0.1012513E+03  0.7546771E-02  0.1281435E+00
         -1   -1    0    0    0  501 -0.00000000000E+00  0.00000000000E+00  0.19100829459E+03  0.19100829459E+03  0.00000000000E+00 0.  1.
          2   -1    0    0  502    0  0.00000000000E+00 -0.00000000000E+00 -0.11886431153E+03  0.11886431153E+03  0.00000000000E+00 0. -1.
         24    2    1    2    0    0  0.27053010617E+01 -0.36046555654E+02  0.10377841261E+03  0.13678482650E+03  0.81446037406E+02 0.  0.
         23    2    1    2    0    0  0.32070975414E+02  0.41006876286E+02 -0.66973280578E+02  0.12325978971E+03  0.89428429942E+02 0.  0.
        -13    1    3    3    0    0  0.19040115335E+02 -0.43693124763E+02  0.10818488264E+03  0.11821837411E+03  0.00000000000E+00 0.  1.
         14    1    3    3    0    0 -0.16334814273E+02  0.76465691092E+01 -0.44064700332E+01  0.18566452397E+02  0.00000000000E+00 0. -1.
        -13    1    4    4    0    0  0.42952673248E+02 -0.15388604296E+02 -0.24198916342E+02  0.51646188954E+02  0.00000000000E+00 0. -1.
         13    1    4    4    0    0 -0.10881697834E+02  0.56395480581E+02 -0.42774364236E+02  0.71613600759E+02  0.00000000000E+00 0.  1.
         21    1    1    2  502  501 -0.34776276476E+02 -0.49603206319E+01  0.35338851027E+02  0.49827989908E+02  0.00000000000E+00 0. -1.
<scales pt_clust_5="13000.00000" pt_clust_6="13000.00000" pt_clust_7="13000.00000" pt_clust_8="13000.00000" pt_clust_9="35.12825"></scales>
<clustering>
<clus scale="   35.128">  1  9  2 -1</clus>
<clus scale="   81.446">  5  6 -1 -1</clus>
<clus scale="   89.428">  7  8 -1 -1</clus>
<clus scale="   94.275">  1  5  2 -1</clus>
<clus scale="  101.251">  2  5  1 -1</clus>
</clustering>
</event>
<event>
 9    2  0.5608219E-005  0.1483345E+03  0.7546771E-02  0.1204297E+00
         -1   -1    0    0    0  501 -0.00000000000E+00  0.00000000000E+00  0.11367180402E+03  0.11367180402E+03  0.00000000000E+00 0.  1.
          2   -1    0    0  502    0  0.00000000000E+00 -0.00000000000E+00 -0.67756196908E+03  0.67756196908E+03  0.00000000000E+00 0. -1.
         23    2    1    2    0    0 -0.29310911796E+02  0.93612351746E+02  0.44571078345E+02  0.14046023777E+03  0.90111572061E+02 0.  0.
         24    2    1    2    0    0  0.17565446882E+02 -0.11844059503E+03 -0.60626589350E+03  0.62321963957E+03  0.80670106262E+02 0.  0.
        -13    1    4    4    0    0 -0.26127092266E+02 -0.31107445404E+02 -0.10612663663E+03  0.11363609071E+03  0.00000000000E+00 0.  1.
         14    1    4    4    0    0  0.43692539148E+02 -0.87333149630E+02 -0.50013925687E+03  0.50958354886E+03  0.00000000000E+00 0. -1.
        -13    1    3    3    0    0 -0.42741434190E+02  0.44635332996E+01  0.12232715657E+02  0.44681010043E+02  0.00000000000E+00 0.  1.
         13    1    3    3    0    0  0.13430522394E+02  0.89148818447E+02  0.32338362688E+02  0.95779227725E+02  0.00000000000E+00 0. -1.
         21    1    1    2  502  501  0.11745464914E+02  0.24828243287E+02 -0.21953499054E+01  0.27553895767E+02  0.00000000000E+00 0.  1.
<scales pt_clust_5="13000.00000" pt_clust_6="13000.00000" pt_clust_7="13000.00000" pt_clust_8="13000.00000" pt_clust_9="27.46630"></scales>
<clustering>
<clus scale="   27.466">  1  9  2 -1</clus>
<clus scale="   80.670">  5  6 -1 -1</clus>
<clus scale="   90.112">  7  8 -1 -1</clus>
<clus scale="  142.796">  2  5  1 -1</clus>
<clus scale="  142.796">  2  5  1 -1</clus>
</clustering>
</event>
<event>
 9    2  0.5608219E-005  0.1163555E+03  0.7546771E-02  0.1264649E+00
          2   -1    0    0  502    0  0.00000000000E+00  0.00000000000E+00  0.66688843674E+03  0.66688843674E+03  0.00000000000E+00 0. -1.
         -1   -1    0    0    0  501 -0.00000000000E+00 -0.00000000000E+00 -0.40477495747E+02  0.40477495747E+02  0.00000000000E+00 0.  1.
         23    2    1    2    0    0 -0.12084386326E+02 -0.78427588720E+01  0.65208505929E+02  0.13079526534E+03  0.11246204218E+03 0.  0.
         24    2    1    2    0    0 -0.81255899990E+01  0.31645865297E+02  0.50376875614E+03  0.51119744255E+03  0.80451100728E+02 0.  0.
        -11    1    4    4    0    0 -0.20209932441E+02  0.38634202088E+02  0.12900728220E+03  0.13617606912E+03  0.00000000000E+00 0.  1.
         12    1    4    4    0    0  0.12084342442E+02 -0.69883367903E+01  0.37476147394E+03  0.37502137344E+03  0.00000000000E+00 0. -1.
        -13    1    3    3    0    0  0.48260904640E+02 -0.19264973471E+02  0.30023638508E+02  0.60013939954E+02  0.00000000000E+00 0. -1.
         13    1    3    3    0    0 -0.60345290966E+02  0.11422214599E+02  0.35184867421E+02  0.70781325387E+02  0.00000000000E+00 0.  1.
         21    1    1    2  502  501  0.20209976325E+02 -0.23803106425E+02  0.57433678921E+02  0.65373224587E+02  0.00000000000E+00 0.  1.
<scales pt_clust_5="13000.00000" pt_clust_6="13000.00000" pt_clust_7="13000.00000" pt_clust_8="13000.00000" pt_clust_9="31.22549"></scales>
<clustering>
<clus scale="   31.225">  2  9  1 -1</clus>
<clus scale="   80.451">  5  6 -1 -1</clus>
<clus scale="   85.809">  1  5  2 -1</clus>
<clus scale="  112.462">  7  8 -1 -1</clus>
<clus scale="   85.809">  1  5  2 -1</clus>
</clustering>
</event>
<event>
 9    2  0.5608219E-005  0.1115124E+03  0.7546771E-02  0.1260419E+00
         -1   -1    0    0    0  501 -0.00000000000E+00  0.00000000000E+00  0.35351429861E+03  0.35351429861E+03  0.00000000000E+00 0.  1.
          2   -1    0    0  502    0  0.00000000000E+00 -0.00000000000E+00 -0.93316272191E+02  0.93316272191E+02  0.00000000000E+00 0. -1.
         23    2    1    2    0    0 -0.11903167494E+02  0.15731678428E+02  0.20696321154E+03  0.22605080026E+03  0.88746956372E+02 0.  0.
         24    2    1    2    0    0  0.39636222587E+01 -0.77615700697E+02 -0.30149892044E+02  0.11663718588E+03  0.81580082395E+02 0.  0.
        -11    1    4    4    0    0  0.16463112833E+02 -0.71899617453E+02  0.97819197465E+01  0.74406149127E+02  0.00000000000E+00 0.  1.
         12    1    4    4    0    0 -0.12499490575E+02 -0.57160832439E+01 -0.39931811791E+02  0.42231036752E+02  0.00000000000E+00 0. -1.
        -13    1    3    3    0    0 -0.21008019873E+02  0.40748130329E+02  0.18762981781E+03  0.19314941251E+03  0.00000000000E+00 0.  1.
         13    1    3    3    0    0  0.91048523784E+01 -0.25016451901E+02  0.19333393738E+02  0.32901387752E+02  0.00000000000E+00 0. -1.
         21    1    1    2  502  501  0.79395452356E+01  0.61884022269E+02  0.83384706920E+02  0.10414258466E+03  0.00000000000E+00 0.  1.
<scales pt_clust_5="13000.00000" pt_clust_6="13000.00000" pt_clust_7="13000.00000" pt_clust_8="13000.00000" pt_clust_9="62.39125"></scales>
<clustering>
<clus scale="   62.391">  1  9  2 -1</clus>
<clus scale="   81.580">  5  6 -1 -1</clus>
<clus scale="   88.747">  7  8 -1 -1</clus>
<clus scale="  105.898">  2  5  1 -1</clus>
<clus scale="  105.898">  2  5  1 -1</clus>
</clustering>
</event>
<event>
 9    2  0.5608219E-005  0.1056525E+03  0.7546771E-02  0.1272114E+00
          2   -1    0    0  502    0  0.00000000000E+00  0.00000000000E+00  0.10352030487E+03  0.10352030487E+03  0.00000000000E+00 0. -1.
         -1   -1    0    0    0  501 -0.00000000000E+00 -0.00000000000E+00 -0.29297389115E+03  0.29297389115E+03  0.00000000000E+00 0.  1.
         23    2    1    2    0    0 -0.26686477443E+02 -0.98003664766E+02 -0.13663885320E+03  0.19194942639E+03  0.88642651703E+02 0.  0.
         24    2    1    2    0    0 -0.61075877071E+01  0.49186934626E+02  0.33114658570E+02  0.10041799978E+03  0.80811737399E+02 0.  0.
        -11    1    4    4    0    0 -0.62891595572E+01 -0.22273509933E+02  0.10910740470E+02  0.25587243507E+02  0.00000000000E+00 0.  1.
         12    1    4    4    0    0  0.18157185011E+00  0.71460444559E+02  0.22203918099E+02  0.74830756270E+02  0.00000000000E+00 0. -1.
        -11    1    3    3    0    0  0.27566838211E+01 -0.10336643300E+03 -0.11704325971E+03  0.15617728202E+03  0.00000000000E+00 0.  1.
         11    1    3    3    0    0 -0.29443161264E+02  0.53627682324E+01 -0.19595593497E+02  0.35772144370E+02  0.00000000000E+00 0. -1.
         21    1    1    2  502  501  0.32794065150E+02  0.48816730140E+02 -0.85929391646E+02  0.10412676985E+03  0.00000000000E+00 0. -1.
<scales pt_clust_5="13000.00000" pt_clust_6="13000.00000" pt_clust_7="13000.00000" pt_clust_8="13000.00000" pt_clust_9="58.80922"></scales>
<clustering>
<clus scale="   58.809">  2  9  1 -1</clus>
<clus scale="   80.812">  5  6 -1 -1</clus>
<clus scale="   88.643">  7  8 -1 -1</clus>
<clus scale="   99.174">  1  5  2 -1</clus>
<clus scale="   99.174">  1  5  2 -1</clus>
</clustering>
</event>
<event>
 9    2  0.5608219E-005  0.1193255E+03  0.7546771E-02  0.1249620E+00
          2   -1    0    0  502    0  0.00000000000E+00  0.00000000000E+00  0.33938947886E+02  0.33938947886E+02  0.00000000000E+00 0. -1.
         -1   -1    0    0    0  501 -0.00000000000E+00 -0.00000000000E+00 -0.79804717633E+03  0.79804717633E+03  0.00000000000E+00 0.  1.
         24    2    1    2    0    0 -0.48305339449E+01  0.52126839504E+02 -0.31716275329E+03  0.33090912455E+03  0.78537221627E+02 0.  0.
         23    2    1    2    0    0 -0.36307243915E+02 -0.77628221618E+02 -0.13648918449E+03  0.18687046620E+03  0.94588143573E+02 0.  0.
        -13    1    3    3    0    0 -0.49352633034E+01  0.71947865716E+02 -0.27532931150E+03  0.28461743090E+03  0.00000000000E+00 0.  1.
         14    1    3    3    0    0  0.10472935854E+00 -0.19821026213E+02 -0.41833441798E+02  0.46291693650E+02  0.00000000000E+00 0. -1.
        -13    1    4    4    0    0 -0.43466253917E+02  0.54445858574E+01 -0.39701629988E+02  0.59120031871E+02  0.00000000000E+00 0.  1.
         13    1    4    4    0    0  0.71590100018E+01 -0.83072807475E+02 -0.96787554497E+02  0.12775043433E+03  0.00000000000E+00 0. -1.
         21    1    1    2  502  501  0.41137777860E+02  0.25501382114E+02 -0.31045629066E+03  0.31420653346E+03  0.00000000000E+00 0. -1.
<scales pt_clust_5="13000.00000" pt_clust_6="13000.00000" pt_clust_7="13000.00000" pt_clust_8="13000.00000" pt_clust_9="48.40080"></scales>
<clustering>
<clus scale="   48.401">  2  9  1 -1</clus>
<clus scale="   78.537">  5  6 -1 -1</clus>
<clus scale="   94.588">  7  8 -1 -1</clus>
<clus scale="  107.050">  2  5  1 -1</clus>
<clus scale="  119.326">  1  5  2 -1</clus>
</clustering>
</event>
<event>
 9    2  0.5608219E-005  0.1367928E+03  0.7546771E-02  0.1220609E+00
          2   -1    0    0  502    0  0.00000000000E+00  0.00000000000E+00  0.11652559081E+04  0.11652559081E+04  0.00000000000E+00 0. -1.
         -1   -1    0    0    0  501 -0.00000000000E+00 -0.00000000000E+00 -0.22724933429E+02  0.22724933429E+02  0.00000000000E+00 0.  1.
         23    2    1    2    0    0 -0.51493770505E+02  0.11119701223E+03  0.50697431050E+03  0.52953315186E+03  0.91465968971E+02 0.  0.
         24    2    1    2    0    0  0.27934044190E+02 -0.86322957465E+02  0.58598809659E+03  0.59819138546E+03  0.78860132403E+02 0.  0.
        -13    1    4    4    0    0 -0.25786543616E+02 -0.31727557257E+02  0.14738411661E+03  0.15294986613E+03  0.00000000000E+00 0.  1.
         14    1    4    4    0    0  0.53720587806E+02 -0.54595400208E+02  0.43860397998E+03  0.44524151933E+03  0.00000000000E+00 0. -1.
        -13    1    3    3    0    0 -0.68984538340E+02  0.81016670721E+02  0.45253604425E+03  0.46487787516E+03  0.00000000000E+00 0. -1.
         13    1    3    3    0    0  0.17490767835E+02  0.30180341508E+02  0.54438266251E+02  0.64655276702E+02  0.00000000000E+00 0.  1.
         21    1    1    2  502  501  0.23559726315E+02 -0.24874054764E+02  0.49568567543E+02  0.60256304174E+02  0.00000000000E+00 0. -1.
<scales pt_clust_5="13000.00000" pt_clust_6="13000.00000" pt_clust_7="13000.00000" pt_clust_8="13000.00000" pt_clust_9="34.26046"></scales>
<clustering>
<clus scale="   34.260">  2  9  1 -1</clus>
<clus scale="   78.860">  5  6 -1 -1</clus>
<clus scale="   91.466">  7  8 -1 -1</clus>
<clus scale="  128.706">  1  5  2 -1</clus>
<clus scale="  128.706">  1  5  2 -1</clus>
</clustering>
</event>
<event>
 9    2  0.5608219E-005  0.8800184E+02  0.7546771E-02  0.1311192E+00
          2   -1    0    0  502    0  0.00000000000E+00  0.00000000000E+00  0.20572729024E+03  0.20572729024E+03  0.00000000000E+00 0. -1.
         -1   -1    0    0    0  501 -0.00000000000E+00 -0.00000000000E+00 -0.51393136293E+02  0.51393136293E+02  0.00000000000E+00 0.  1.
         23    2    1    2    0    0 -0.36662018152E+01  0.23993575053E+02  0.54705364757E+02  0.10437617302E+03  0.85513600563E+02 0.  0.
         24    2    1    2    0    0 -0.20320045361E+02 -0.13595252904E+02  0.94270647522E+02  0.12605764940E+03  0.80036496940E+02 0.  0.
        -11    1    4    4    0    0  0.22612775066E+02  0.70423646991E+01  0.40418723611E+01  0.24026427719E+02  0.00000000000E+00 0.  1.
         12    1    4    4    0    0 -0.42932820427E+02 -0.20637617603E+02  0.90228775161E+02  0.10203122168E+03  0.00000000000E+00 0. -1.
        -11    1    3    3    0    0  0.32612157918E+02  0.36861418309E+02  0.39027888711E+02  0.62813160253E+02  0.00000000000E+00 0.  1.
         11    1    3    3    0    0 -0.36278359733E+02 -0.12867843256E+02  0.15677476046E+02  0.41563012765E+02  0.00000000000E+00 0. -1.
         21    1    1    2  502  501  0.23986247177E+02 -0.10398322149E+02  0.53581416670E+01  0.26686604116E+02  0.00000000000E+00 0.  1.
<scales pt_clust_5="13000.00000" pt_clust_6="13000.00000" pt_clust_7="13000.00000" pt_clust_8="13000.00000" pt_clust_9="26.14317"></scales>
<clustering>
<clus scale="   26.143">  2  9  1 -1</clus>
<clus scale="   80.036">  5  6 -1 -1</clus>
<clus scale="   82.690">  1  5  2 -1</clus>
<clus scale="   85.514">  7  8 -1 -1</clus>
<clus scale="   82.690">  1  5  2 -1</clus>
</clustering>
</event>
<event>
 9    2  0.6534588E-005  0.1200919E+03  0.7546771E-02  0.1246750E+00
          2   -1    0    0  502    0  0.00000000000E+00  0.00000000000E+00  0.70587976357E+03  0.70587976357E+03  0.00000000000E+00 0. -1.
         -1   -1    0    0    0  501 -0.00000000000E+00 -0.00000000000E+00 -0.93771752561E+02  0.93771752561E+02  0.00000000000E+00 0.  1.
         24    2    1    2    0    0 -0.26165383059E+02 -0.56455408551E+02 -0.51315645476E+02  0.11326889509E+03  0.79528024611E+02 0.  0.
         23    2    1    2    0    0  0.20613077561E+02  0.76130184524E+02  0.65172695834E+03  0.66282975172E+03  0.91512554209E+02 0.  0.
        -13    1    3    3    0    0 -0.41800098994E+02 -0.42130346975E+02 -0.65010533463E+02  0.88026040881E+02  0.00000000000E+00 0.  1.
         14    1    3    3    0    0  0.15634715935E+02 -0.14325061576E+02  0.13694887987E+02  0.25242854207E+02  0.00000000000E+00 0. -1.
        -11    1    4    4    0    0  0.69353452931E+01  0.96215974114E+02  0.52766428473E+03  0.53640955442E+03  0.00000000000E+00 0. -1.
         11    1    4    4    0    0  0.13677732268E+02 -0.20085789591E+02  0.12406267360E+03  0.12642019730E+03  0.00000000000E+00 0.  1.
         21    1    1    2  502  501  0.55523054979E+01 -0.19674775973E+02  0.11696698150E+02  0.23552869327E+02  0.00000000000E+00 0.  1.
<scales pt_clust_5="13000.00000" pt_clust_6="13000.00000" pt_clust_7="13000.00000" pt_clust_8="13000.00000" pt_clust_9="20.44321"></scales>
<clustering>
<clus scale="   20.443">  2  9  1 -1</clus>
<clus scale="   79.528">  5  6 -1 -1</clus>
<clus scale="   91.513">  7  8 -1 -1</clus>
<clus scale="  111.231">  2  5  1 -1</clus>
<clus scale="  120.092">  1  5  2 -1</clus>
</clustering>
</event>
<event>
 9    2  0.5608219E-005  0.9871370E+02  0.7546771E-02  0.1288268E+00
          2   -1    0    0  502    0  0.00000000000E+00  0.00000000000E+00  0.42440599397E+03  0.42440599397E+03  0.00000000000E+00 0. -1.
         -1   -1    0    0    0  501 -0.00000000000E+00 -0.00000000000E+00 -0.13583178407E+03  0.13583178407E+03  0.00000000000E+00 0.  1.
         23    2    1    2    0    0  0.89050222135E+01  0.50258648972E+02 -0.29707727990E+02  0.10857457099E+03  0.91107942278E+02 0.  0.
         24    2    1    2    0    0  0.32452423661E+02 -0.21949066496E+02  0.36933251067E+03  0.38012278652E+03  0.80943857503E+02 0.  0.
        -11    1    4    4    0    0  0.58193402268E+02 -0.10905049863E+02  0.20336319968E+03  0.21180647574E+03  0.00000000000E+00 0.  1.
         12    1    4    4    0    0 -0.25740978606E+02 -0.11044016633E+02  0.16596931099E+03  0.16831631078E+03  0.00000000000E+00 0. -1.
        -13    1    3    3    0    0 -0.33838350652E+01  0.75645535058E+02 -0.26329469276E+02  0.80168187371E+02  0.00000000000E+00 0.  1.
         13    1    3    3    0    0  0.12288857279E+02 -0.25386886086E+02 -0.33782587146E+01  0.28406383619E+02  0.00000000000E+00 0. -1.
         21    1    1    2  502  501 -0.41357445875E+02 -0.28309582476E+02 -0.51050572782E+02  0.71540420537E+02  0.00000000000E+00 0.  1.
<scales pt_clust_5="13000.00000" pt_clust_6="13000.00000" pt_clust_7="13000.00000" pt_clust_8="13000.00000" pt_clust_9="50.11857"></scales>
<clustering>
<clus scale="   50.119">  2  9  1 -1</clus>
<clus scale="   80.944">  5  6 -1 -1</clus>
<clus scale="   89.418">  1  5  2 -1</clus>
<clus scale="   91.108">  7  8 -1 -1</clus>
<clus scale="   89.418">  1  5  2 -1</clus>
</clustering>
</event>
<event>
 9    2  0.5608219E-005  0.1591841E+03  0.7546771E-02  0.1191025E+00
         -1   -1    0    0    0  501 -0.00000000000E+00  0.00000000000E+00  0.66332104730E+02  0.66332104730E+02  0.00000000000E+00 0.  1.
          2   -1    0    0  502    0  0.00000000000E+00 -0.00000000000E+00 -0.75324119577E+03  0.75324119577E+03  0.00000000000E+00 0. -1.
         23    2    1    2    0    0  0.17301465235E+03  0.17960181057E+02 -0.23010316150E+03  0.30175889933E+03  0.88624659991E+02 0.  0.
         24    2    1    2    0    0 -0.10322561232E+03 -0.62380048656E+02 -0.37321674167E+03  0.40021003443E+03  0.79564677415E+02 0.  0.
        -11    1    4    4    0    0 -0.49003693626E+02 -0.45837477271E+02 -0.30106527248E+03  0.30845215935E+03  0.00000000000E+00 0.  1.
         12    1    4    4    0    0 -0.54221918694E+02 -0.16542571385E+02 -0.72151469186E+02  0.91757875088E+02  0.00000000000E+00 0. -1.
        -11    1    3    3    0    0  0.10722833145E+03  0.27600398730E+02 -0.20036363887E+03  0.22892200606E+03  0.00000000000E+00 0. -1.
         11    1    3    3    0    0  0.65786320905E+02 -0.96402176732E+01 -0.29739522627E+02  0.72836893269E+02  0.00000000000E+00 0.  1.
         21    1    1    2  502  501 -0.69789040034E+02  0.44419867599E+02 -0.83589187869E+02  0.11760436673E+03  0.00000000000E+00 0. -1.
<scales pt_clust_5="13000.00000" pt_clust_6="13000.00000" pt_clust_7="13000.00000" pt_clust_8="13000.00000" pt_clust_9="82.72626"></scales>
<clustering>
<clus scale="   79.565">  5  6 -1 -1</clus>
<clus scale="   82.726">  1  9  2 -1</clus>
<clus scale="   88.625">  7  8 -1 -1</clus>
<clus scale="  154.324">  2  5  1 -1</clus>
<clus scale="  154.324">  2  5  1 -1</clus>
</clustering>
</event>
<event>
 9    2  0.5608219E-005  0.9480327E+02  0.7546771E-02  0.1294874E+00
         -3   -1    0    0    0  501 -0.00000000000E+00  0.00000000000E+00  0.36687910150E+03  0.36687910150E+03  0.00000000000E+00 0.  1.
          4   -1    0    0  502    0  0.00000000000E+00 -0.00000000000E+00 -0.84795552800E+02  0.84795552800E+02  0.00000000000E+00 0. -1.
         24    2    1    2    0    0  0.28559677503E+02 -0.69103884835E+01  0.27935153590E+03  0.29273511483E+03  0.82420617545E+02 0.  0.
         23    2    1    2    0    0 -0.22831028162E+02 -0.28459560197E+02 -0.39553437993E+02  0.10351472516E+03  0.88428623497E+02 0.  0.
        -11    1    3    3    0    0  0.20201949998E+02 -0.44555565259E+02  0.15919670864E+03  0.16654401587E+03  0.00000000000E+00 0.  1.
         12    1    3    3    0    0  0.83577275051E+01  0.37645176776E+02  0.12015482726E+03  0.12619109896E+03  0.00000000000E+00 0. -1.
        -11    1    4    4    0    0 -0.56372930597E+02 -0.10739288268E+02 -0.28041101002E+02  0.63871299987E+02  0.00000000000E+00 0. -1.
         11    1    4    4    0    0  0.33541902435E+02 -0.17720271929E+02 -0.11512336992E+02  0.39643425170E+02  0.00000000000E+00 0.  1.
         21    1    1    2  502  501 -0.57286493406E+01  0.35369948681E+02  0.42285450789E+02  0.55424814311E+02  0.00000000000E+00 0. -1.
<scales pt_clust_5="13000.00000" pt_clust_6="13000.00000" pt_clust_7="13000.00000" pt_clust_8="13000.00000" pt_clust_9="35.83086"></scales>
<clustering>
<clus scale="   35.831">  1  9  2 -1</clus>
<clus scale="   82.421">  5  6 -1 -1</clus>
<clus scale="   88.429">  7  8 -1 -1</clus>
<clus scale="   89.226">  1  5  2 -1</clus>
<clus scale="   94.803">  2  5  1 -1</clus>
</clustering>
</event>
<event>
 9    2  0.5608219E-005  0.1356968E+03  0.7546771E-02  0.1223811E+00
         -1   -1    0    0    0  501 -0.00000000000E+00  0.00000000000E+00  0.30038141811E+02  0.30038141811E+02  0.00000000000E+00 0.  1.
          2   -1    0    0  502    0  0.00000000000E+00 -0.00000000000E+00 -0.73152070805E+03  0.73152070805E+03  0.00000000000E+00 0. -1.
         24    2    1    2    0    0 -0.51001383099E+02 -0.70485111260E+02 -0.19418334887E+03  0.22567516411E+03  0.75185202885E+02 0.  0.
         23    2    1    2    0    0  0.47443112405E+02  0.93846549634E+02 -0.47709667294E+03  0.49753512928E+03  0.94137908112E+02 0.  0.
        -13    1    3    3    0    0 -0.27949166810E+02 -0.45034933175E+02 -0.36643311003E+02  0.64436273734E+02  0.00000000000E+00 0.  1.
         14    1    3    3    0    0 -0.23052216289E+02 -0.25450178085E+02 -0.15754003786E+03  0.16123889038E+03  0.00000000000E+00 0. -1.
        -13    1    4    4    0    0  0.14350659083E+02 -0.17532622889E+02 -0.49601530050E+02  0.54531147657E+02  0.00000000000E+00 0.  1.
         13    1    4    4    0    0  0.33092453321E+02  0.11137917252E+03 -0.42749514289E+03  0.44300398162E+03  0.00000000000E+00 0. -1.
         21    1    1    2  502  501  0.35582706944E+01 -0.23361438374E+02 -0.30202544438E+02  0.38348556476E+02  0.00000000000E+00 0.  1.
<scales pt_clust_5="13000.00000" pt_clust_6="13000.00000" pt_clust_7="13000.00000" pt_clust_8="13000.00000" pt_clust_9="23.63087"></scales>
<clustering>
<clus scale="   23.631">  1  9  2 -1</clus>
<clus scale="   75.185">  5  6 -1 -1</clus>
<clus scale="   94.138">  7  8 -1 -1</clus>
<clus scale="  123.306">  1  5  2 -1</clus>
<clus scale="  135.697">  2  5  1 -1</clus>
</clustering>
</event>
<event>
 9    2  0.5608219E-005  0.1446080E+03  0.7546771E-02  0.1209814E+00
          2   -1    0    0  502    0  0.00000000000E+00  0.00000000000E+00  0.74820429014E+03  0.74820429014E+03  0.00000000000E+00 0. -1.
         -1   -1    0    0    0  501 -0.00000000000E+00 -0.00000000000E+00 -0.33468857413E+02  0.33468857413E+02  0.00000000000E+00 0.  1.
         23    2    1    2    0    0 -0.22784391295E+02 -0.11578258573E+03  0.30006837984E+03  0.33515835380E+03  0.91462308642E+02 0.  0.
         24    2    1    2    0    0  0.17600456024E+00  0.10898500271E+03  0.38929194630E+03  0.41185585089E+03  0.78735383827E+02 0.  0.
        -13    1    4    4    0    0 -0.26821978683E+02  0.75429973684E+01  0.58283257197E+02  0.64600723055E+02  0.00000000000E+00 0.  1.
         14    1    4    4    0    0  0.26997983243E+02  0.10144200535E+03  0.33100868910E+03  0.34725512784E+03  0.00000000000E+00 0. -1.
        -11    1    3    3    0    0  0.12559983348E+02 -0.75504666514E+02  0.88967747959E+02  0.11736254950E+03  0.00000000000E+00 0.  1.
         11    1    3    3    0    0 -0.35344374642E+02 -0.40277919211E+02  0.21110063188E+03  0.21779580431E+03  0.00000000000E+00 0. -1.
         21    1    1    2  502  501  0.22608386734E+02  0.67975830120E+01  0.25375106586E+02  0.34658942855E+02  0.00000000000E+00 0. -1.
<scales pt_clust_5="13000.00000" pt_clust_6="13000.00000" pt_clust_7="13000.00000" pt_clust_8="13000.00000" pt_clust_9="23.60818"></scales>
<clustering>
<clus scale="   23.608">  2  9  1 -1</clus>
<clus scale="   78.735">  5  6 -1 -1</clus>
<clus scale="   91.462">  7  8 -1 -1</clus>
<clus scale="  136.914">  1  5  2 -1</clus>
<clus scale="  136.914">  1  5  2 -1</clus>
</clustering>
</event>
<event>
 9    2  0.5608219E-005  0.1204509E+03  0.7546771E-02  0.1246372E+00
          2   -1    0    0  502    0  0.00000000000E+00  0.00000000000E+00  0.47963876418E+03  0.47963876418E+03  0.00000000000E+00 0. -1.
         -1   -1    0    0    0  501 -0.00000000000E+00 -0.00000000000E+00 -0.71035290643E+02  0.71035290643E+02  0.00000000000E+00 0.  1.
         23    2    1    2    0    0  0.61716420968E+02  0.72155012405E+02  0.10481521678E+03  0.16939405141E+03  0.93235468318E+02 0.  0.
         24    2    1    2    0    0 -0.65568235027E+02 -0.31456316279E+02  0.31950370355E+03  0.33748279339E+03  0.80767109459E+02 0.  0.
        -11    1    4    4    0    0 -0.16443668940E+02  0.27339579971E+02  0.85724364656E+02  0.91468648054E+02  0.00000000000E+00 0.  1.
         12    1    4    4    0    0 -0.49124566088E+02 -0.58795896250E+02  0.23377933890E+03  0.24601414533E+03  0.00000000000E+00 0. -1.
        -13    1    3    3    0    0 -0.20756609114E+02  0.15169141560E+02  0.19836934910E+01  0.25785164677E+02  0.00000000000E+00 0.  1.
         13    1    3    3    0    0  0.82473030082E+02  0.56985870845E+02  0.10283152329E+03  0.14360888673E+03  0.00000000000E+00 0. -1.
         21    1    1    2  502  501  0.38518140590E+01 -0.40698696126E+02 -0.15715446796E+02  0.43797210024E+02  0.00000000000E+00 0.  1.
<scales pt_clust_5="13000.00000" pt_clust_6="13000.00000" pt_clust_7="13000.00000" pt_clust_8="13000.00000" pt_clust_9="40.88056"></scales>
<clustering>
<clus scale="   40.881">  2  9  1 -1</clus>
<clus scale="   80.767">  5  6 -1 -1</clus>
<clus scale="   93.235">  7  8 -1 -1</clus>
<clus scale="  111.081">  1  5  2 -1</clus>
<clus scale="  111.081">  1  5  2 -1</clus>
</clustering>
</event>
<event>
 9    2  0.5608219E-005  0.9910924E+02  0.7546771E-02  0.1286721E+00
          2   -1    0    0  502    0  0.00000000000E+00  0.00000000000E+00  0.24854478282E+02  0.24854478282E+02  0.00000000000E+00 0. -1.
         -1   -1    0    0    0  501 -0.00000000000E+00 -0.00000000000E+00 -0.54868535425E+03  0.54868535425E+03  0.00000000000E+00 0.  1.
         23    2    1    2    0    0 -0.14157730179E+02 -0.24878266167E+02 -0.33225958475E+03  0.34511675772E+03  0.88824407366E+02 0.  0.
         24    2    1    2    0    0  0.39371534810E+02  0.32330095237E+02 -0.12405241265E+03  0.15596574487E+03  0.79630143017E+02 0.  0.
        -11    1    4    4    0    0  0.47956321589E+02  0.41482263333E+02 -0.12797196527E+03  0.14281950443E+03  0.00000000000E+00 0.  1.
         12    1    4    4    0    0 -0.85847867790E+01 -0.91521680960E+01  0.39195526183E+01  0.13146240437E+02  0.00000000000E+00 0. -1.
        -11    1    3    3    0    0  0.35768745238E+02 -0.21822540559E+02 -0.18158550135E+03  0.18635697120E+03  0.00000000000E+00 0.  1.
         11    1    3    3    0    0 -0.49926475416E+02 -0.30557256083E+01 -0.15067408340E+03  0.15875978652E+03  0.00000000000E+00 0. -1.
         21    1    1    2  502  501 -0.25213804631E+02 -0.74518290699E+01 -0.67518878559E+02  0.72457329942E+02  0.00000000000E+00 0.  1.
<scales pt_clust_5="13000.00000" pt_clust_6="13000.00000" pt_clust_7="13000.00000" pt_clust_8="13000.00000" pt_clust_9="26.29193"></scales>
<clustering>
<clus scale="   26.292">  2  9  1 -1</clus>
<clus scale="   79.630">  5  6 -1 -1</clus>
<clus scale="   88.824">  7  8 -1 -1</clus>
<clus scale="   90.961">  1  5  2 -1</clus>
<clus scale="   90.961">  1  5  2 -1</clus>
</clustering>
</event>
<event>
 9    2  0.5608219E-005  0.1347727E+03  0.7546771E-02  0.1223179E+00
         -1   -1    0    0    0  501 -0.00000000000E+00  0.00000000000E+00  0.21947675527E+02  0.21947675527E+02  0.00000000000E+00 0.  1.
          2   -1    0    0  502    0  0.00000000000E+00 -0.00000000000E+00 -0.97603188288E+03  0.97603188288E+03  0.00000000000E+00 0. -1.
         23    2    1    2    0    0  0.10586898722E+03  0.30175654932E+02 -0.49665577592E+03  0.51684970489E+03  0.91366542494E+02 0.  0.
         24    2    1    2    0    0 -0.89665402358E+02 -0.73604665642E+01 -0.38667585975E+03  0.40504427418E+03  0.80303067722E+02 0.  0.
        -11    1    4    4    0    0 -0.41661545723E+02  0.32895173888E+02 -0.12187701560E+03  0.13293526165E+03  0.00000000000E+00 0.  1.
         12    1    4    4    0    0 -0.48003856635E+02 -0.40255640452E+02 -0.26479884415E+03  0.27210901254E+03  0.00000000000E+00 0. -1.
        -13    1    3    3    0    0  0.64134831896E+02  0.62219549842E+02 -0.34236471665E+03  0.35383350357E+03  0.00000000000E+00 0.  1.
         13    1    3    3    0    0  0.41734155326E+02 -0.32043894910E+02 -0.15429105927E+03  0.16301620132E+03  0.00000000000E+00 0. -1.
         21    1    1    2  502  501 -0.16203584864E+02 -0.22815188368E+02 -0.70752571690E+02  0.76085579339E+02  0.00000000000E+00 0. -1.
<scales pt_clust_5="13000.00000" pt_clust_6="13000.00000" pt_clust_7="13000.00000" pt_clust_8="13000.00000" pt_clust_9="27.98373"></scales>
<clustering>
<clus scale="   27.984">  1  9  2 -1</clus>
<clus scale="   80.303">  5  6 -1 -1</clus>
<clus scale="   91.367">  7  8 -1 -1</clus>
<clus scale="  127.532">  2  5  1 -1</clus>
<clus scale="  127.532">  2  5  1 -1</clus>
</clustering>
</event>
<event>
 9    2  0.5608219E-005  0.1637161E+03  0.7546771E-02  0.1185600E+00
          2   -1    0    0  502    0  0.00000000000E+00  0.00000000000E+00  0.70549206143E+03  0.70549206143E+03  0.00000000000E+00 0. -1.
         -1   -1    0    0    0  501 -0.00000000000E+00 -0.00000000000E+00 -0.24556855585E+03  0.24556855585E+03  0.00000000000E+00 0.  1.
         23    2    1    2    0    0 -0.52333143910E+02  0.32507305712E+01 -0.15970589310E+03  0.19017515644E+03  0.88945447532E+02 0.  0.
         24    2    1    2    0    0  0.14192601200E+03 -0.12103069589E+02  0.64640729019E+03  0.66695835404E+03  0.81863203214E+02 0.  0.
        -11    1    4    4    0    0  0.35097627970E+02  0.74236309702E+01  0.55017348281E+02  0.65679999983E+02  0.00000000000E+00 0.  1.
         12    1    4    4    0    0  0.10682838403E+03 -0.19526700559E+02  0.59138994191E+03  0.60127835406E+03  0.00000000000E+00 0. -1.
        -11    1    3    3    0    0  0.40236621489E+01 -0.32161078054E+02 -0.28970686376E+02  0.43472122881E+02  0.00000000000E+00 0.  1.
         11    1    3    3    0    0 -0.56356806059E+02  0.35411808625E+02 -0.13073520672E+03  0.14670303356E+03  0.00000000000E+00 0. -1.
         21    1    1    2  502  501 -0.89592868093E+02  0.88523390176E+01 -0.26777891512E+02  0.93927106806E+02  0.00000000000E+00 0.  1.
<scales pt_clust_5="13000.00000" pt_clust_6="13000.00000" pt_clust_7="13000.00000" pt_clust_8="13000.00000" pt_clust_9="90.02914"></scales>
<clustering>
<clus scale="   81.863">  5  6 -1 -1</clus>
<clus scale="   88.945">  7  8 -1 -1</clus>
<clus scale="   90.029">  2  9  1 -1</clus>
<clus scale="  159.979">  1  5  2 -1</clus>
<clus scale="  159.979">  1  5  2 -1</clus>
</clustering>
</event>
<event>
 9    2  0.5608219E-005  0.1139625E+03  0.7546771E-02  0.1257682E+00
         -1   -1    0    0    0  501 -0.00000000000E+00  0.00000000000E+00  0.19282854788E+03  0.19282854788E+03  0.00000000000E+00 0.  1.
          2   -1    0    0  502    0  0.00000000000E+00 -0.00000000000E+00 -0.27393417792E+03  0.27393417792E+03  0.00000000000E+00 0. -1.
         24    2    1    2    0    0 -0.52049046283E+02 -0.32503411861E+02  0.11430671513E+03  0.15249535948E+03  0.80145084297E+02 0.  0.
         23    2    1    2    0    0  0.67709704416E+02  0.99370177939E+01 -0.23767856081E+03  0.26385971473E+03  0.91910295377E+02 0.  0.
        -11    1    3    3    0    0 -0.59123056241E+02 -0.62697450900E+01  0.10992529882E+03  0.12497366444E+03  0.00000000000E+00 0.  1.
         12    1    3    3    0    0  0.70740099579E+01 -0.26233666771E+02  0.43814163158E+01  0.27521695044E+02  0.00000000000E+00 0. -1.
        -13    1    4    4    0    0  0.56485743297E+02  0.32135877264E+02 -0.22814500823E+03  0.23722035870E+03  0.00000000000E+00 0. -1.
         13    1    4    4    0    0  0.11223961120E+02 -0.22198859470E+02 -0.95335525813E+01  0.26639356032E+02  0.00000000000E+00 0.  1.
         21    1    1    2  502  501 -0.15660658133E+02  0.22566394067E+02  0.42266215642E+02  0.50407651592E+02  0.00000000000E+00 0.  1.
<scales pt_clust_5="13000.00000" pt_clust_6="13000.00000" pt_clust_7="13000.00000" pt_clust_8="13000.00000" pt_clust_9="27.46813"></scales>
<clustering>
<clus scale="   27.468">  1  9  2 -1</clus>
<clus scale="   80.145">  5  6 -1 -1</clus>
<clus scale="   91.910">  7  8 -1 -1</clus>
<clus scale="  104.705">  1  5  2 -1</clus>
<clus scale="  113.962">  2  5  1 -1</clus>
</clustering>
</event>
<event>
 9    2  0.5608219E-005  0.1016255E+03  0.7546771E-02  0.1281352E+00
          2   -1    0    0  502    0  0.00000000000E+00  0.00000000000E+00  0.19029991498E+03  0.19029991498E+03  0.00000000000E+00 0. -1.
         -1   -1    0    0    0  501 -0.00000000000E+00 -0.00000000000E+00 -0.32300690857E+03  0.32300690857E+03  0.00000000000E+00 0.  1.
         24    2    1    2    0    0  0.80522553612E+02  0.18298564902E+02 -0.66049994445E+02  0.13287100288E+03  0.80457333547E+02 0.  0.
         23    2    1    2    0    0 -0.36405777187E+02 -0.21418328771E+02  0.13857496137E+03  0.17049254142E+03  0.89891942575E+02 0.  0.
        -11    1    3    3    0    0  0.48101440195E+02  0.41941104399E+02 -0.67270950542E+02  0.92726401709E+02  0.00000000000E+00 0.  1.
         12    1    3    3    0    0  0.32421113417E+02 -0.23642539497E+02  0.12209560973E+01  0.40144601167E+02  0.00000000000E+00 0. -1.
        -11    1    4    4    0    0 -0.10614330331E+02  0.35376362505E+02  0.50362524065E+02  0.62454262166E+02  0.00000000000E+00 0.  1.
         11    1    4    4    0    0 -0.25791446857E+02 -0.56794691276E+02  0.88212437308E+02  0.10803827925E+03  0.00000000000E+00 0. -1.
         21    1    1    2  502  501 -0.44116776424E+02  0.31197638692E+01 -0.20523196052E+03  0.20994327926E+03  0.00000000000E+00 0.  1.
<scales pt_clust_5="13000.00000" pt_clust_6="13000.00000" pt_clust_7="13000.00000" pt_clust_8="13000.00000" pt_clust_9="44.22695"></scales>
<clustering>
<clus scale="   44.227">  2  9  1 -1</clus>
<clus scale="   80.457">  5  6 -1 -1</clus>
<clus scale="   89.892">  7  8 -1 -1</clus>
<clus scale="   93.384">  2  5  1 -1</clus>
<clus scale="  101.626">  1  5  2 -1</clus>
</clustering>
</event>
<event>
 9    2  0.5608219E-005  0.1292264E+03  0.7546771E-02  0.1231059E+00
         -1   -1    0    0    0  501 -0.00000000000E+00  0.00000000000E+00  0.61700318838E+02  0.61700318838E+02  0.00000000000E+00 0.  1.
          2   -1    0    0  502    0  0.00000000000E+00 -0.00000000000E+00 -0.34386164905E+03  0.34386164905E+03  0.00000000000E+00 0. -1.
         24    2    1    2    0    0 -0.91536185338E+01  0.81451075842E+02 -0.69409377555E+02  0.13476107279E+03  0.81392988395E+02 0.  0.
         23    2    1    2    0    0  0.27653301554E+02 -0.94599351556E+02 -0.20831981367E+03  0.24767603224E+03  0.90733289240E+02 0.  0.
        -11    1    3    3    0    0  0.25864498953E+02  0.67573159054E+02 -0.25052888534E+02  0.76568605542E+02  0.00000000000E+00 0.  1.
         12    1    3    3    0    0 -0.35018117487E+02  0.13877916787E+02 -0.44356489021E+02  0.58192467252E+02  0.00000000000E+00 0. -1.
        -11    1    4    4    0    0  0.33555935781E+02 -0.22519264398E+02 -0.14825625537E+03  0.15366533555E+03  0.00000000000E+00 0.  1.
         11    1    4    4    0    0 -0.59026342270E+01 -0.72080087158E+02 -0.60063558307E+02  0.94010696689E+02  0.00000000000E+00 0. -1.
         21    1    1    2  502  501 -0.18499683020E+02  0.13148275714E+02 -0.44321389863E+01  0.23124862855E+02  0.00000000000E+00 0. -1.
<scales pt_clust_5="13000.00000" pt_clust_6="13000.00000" pt_clust_7="13000.00000" pt_clust_8="13000.00000" pt_clust_9="22.69615"></scales>
<clustering>
<clus scale="   22.696">  1  9  2 -1</clus>
<clus scale="   81.393">  5  6 -1 -1</clus>
<clus scale="   90.733">  7  8 -1 -1</clus>
<clus scale="  122.848">  1  5  2 -1</clus>
<clus scale="  129.226">  2  5  1 -1</clus>
</clustering>
</event>
<event>
 9    2  0.5608219E-005  0.8913382E+02  0.7546771E-02  0.1309938E+00
         -1   -1    0    0    0  501 -0.00000000000E+00  0.00000000000E+00  0.31126157367E+03  0.31126157367E+03  0.00000000000E+00 0.  1.
          2   -1    0    0  502    0  0.00000000000E+00 -0.00000000000E+00 -0.36878098363E+02  0.36878098363E+02  0.00000000000E+00 0. -1.
         24    2    1    2    0    0  0.11675181883E+02 -0.13376553579E+02  0.16755370681E+03  0.18658008524E+03  0.80141384357E+02 0.  0.
         23    2    1    2    0    0 -0.17741051589E+02 -0.15285993727E+02  0.72171917908E+02  0.11617783935E+03  0.87977827349E+02 0.  0.
        -13    1    3    3    0    0 -0.46428244679E+01  0.30284095077E+02  0.37489827981E+02  0.48416623548E+02  0.00000000000E+00 0.  1.
         14    1    3    3    0    0  0.16318006351E+02 -0.43660648656E+02  0.13006387883E+03  0.13816346170E+03  0.00000000000E+00 0. -1.
        -11    1    4    4    0    0  0.30721696512E+02 -0.52510791313E+01  0.56040570617E+02  0.64124426108E+02  0.00000000000E+00 0.  1.
         11    1    4    4    0    0 -0.48462748100E+02 -0.10034914595E+02  0.16131347291E+02  0.52053413238E+02  0.00000000000E+00 0. -1.
         21    1    1    2  502  501  0.60658697054E+01  0.28662547306E+02  0.34657850589E+02  0.45381747441E+02  0.00000000000E+00 0.  1.
<scales pt_clust_5="13000.00000" pt_clust_6="13000.00000" pt_clust_7="13000.00000" pt_clust_8="13000.00000" pt_clust_9="29.29738"></scales>
<clustering>
<clus scale="   29.297">  2  9  1 -1</clus>
<clus scale="   80.141">  5  6 -1 -1</clus>
<clus scale="   81.409">  1  5  2 -1</clus>
<clus scale="   87.978">  7  8 -1 -1</clus>
<clus scale="   29.297">  2  5  1 -1</clus>
</clustering>
</event>
<event>
 9    2  0.5608219E-005  0.1609747E+03  0.7546771E-02  0.1191155E+00
          2   -1    0    0  502    0  0.00000000000E+00  0.00000000000E+00  0.53929424784E+03  0.53929424784E+03  0.00000000000E+00 0. -1.
         -1   -1    0    0    0  501 -0.00000000000E+00 -0.00000000000E+00 -0.82421450565E+02  0.82421450565E+02  0.00000000000E+00 0.  1.
         23    2    1    2    0    0 -0.30732018365E+02 -0.92295968471E+02  0.45982745823E+02  0.14729947725E+03  0.10059682071E+03 0.  0.
         24    2    1    2    0    0  0.41499733502E+02  0.12707649123E+03  0.40939300189E+03  0.43797627590E+03  0.79686421349E+02 0.  0.
        -11    1    4    4    0    0  0.98541459246E+01  0.12177815425E+03  0.29853025498E+03  0.32256369322E+03  0.00000000000E+00 0.  1.
         12    1    4    4    0    0  0.31645587577E+02  0.52983369793E+01  0.11086274691E+03  0.11541258267E+03  0.00000000000E+00 0. -1.
        -13    1    3    3    0    0 -0.48340377502E+01 -0.25183868029E+02  0.67506293562E+02  0.72212843735E+02  0.00000000000E+00 0. -1.
         13    1    3    3    0    0 -0.25897980614E+02 -0.67112100442E+02 -0.21523547740E+02  0.75086633517E+02  0.00000000000E+00 0.  1.
         21    1    1    2  502  501 -0.10767715137E+02 -0.34780522759E+02  0.14970495594E+01  0.36439945253E+02  0.00000000000E+00 0. -1.
<scales pt_clust_5="13000.00000" pt_clust_6="13000.00000" pt_clust_7="13000.00000" pt_clust_8="13000.00000" pt_clust_9="36.40918"></scales>
<clustering>
<clus scale="   36.409">  2  9  1 -1</clus>
<clus scale="   79.686">  5  6 -1 -1</clus>
<clus scale="  100.597">  7  8 -1 -1</clus>
<clus scale="  148.805">  1  5  2 -1</clus>
<clus scale="  148.805">  1  5  2 -1</clus>
</clustering>
</event>
<event>
 9    2  0.5608219E-005  0.1179946E+03  0.7546771E-02  0.1252857E+00
         -1   -1    0    0    0  501 -0.00000000000E+00  0.00000000000E+00  0.31915869697E+03  0.31915869697E+03  0.00000000000E+00 0.  1.
          2   -1    0    0  502    0  0.00000000000E+00 -0.00000000000E+00 -0.12543035791E+03  0.12543035791E+03  0.00000000000E+00 0. -1.
         23    2    1    2    0    0  0.83436265509E+02 -0.49666704238E+02  0.35395539411E+02  0.14258143352E+03  0.98225399276E+02 0.  0.
         24    2    1    2    0    0 -0.57213733555E+02 -0.22956605215E+02 -0.23753273207E+02  0.10422717697E+03  0.80614325032E+02 0.  0.
        -13    1    4    4    0    0 -0.72335744465E+02 -0.25497141650E+02 -0.35881994665E+02  0.84676334952E+02  0.00000000000E+00 0.  1.
         14    1    4    4    0    0  0.15122010910E+02  0.25405364354E+01  0.12128721459E+02  0.19550842017E+02  0.00000000000E+00 0. -1.
        -11    1    3    3    0    0  0.19905476678E+02 -0.57107273960E+02  0.48215091762E+02  0.77344449151E+02  0.00000000000E+00 0.  1.
         11    1    3    3    0    0  0.63530788831E+02  0.74405697215E+01 -0.12819552350E+02  0.65236984371E+02  0.00000000000E+00 0. -1.
         21    1    1    2  502  501 -0.26222531953E+02  0.72623309453E+02  0.18208607285E+03  0.19778044439E+03  0.00000000000E+00 0. -1.
<scales pt_clust_5="13000.00000" pt_clust_6="13000.00000" pt_clust_7="13000.00000" pt_clust_8="13000.00000" pt_clust_9="77.21247"></scales>
<clustering>
<clus scale="   77.212">  1  9  2 -1</clus>
<clus scale="   80.614">  5  6 -1 -1</clus>
<clus scale="   98.225">  7  8 -1 -1</clus>
<clus scale="  103.794">  2  5  1 -1</clus>
<clus scale="  103.794">  2  5  1 -1</clus>
</clustering>
</event>
<event>
 9    2  0.5608219E-005  0.1100921E+03  0.7546771E-02  0.1263994E+00
         -1   -1    0    0    0  501 -0.00000000000E+00  0.00000000000E+00  0.34714062832E+03  0.34714062832E+03  0.00000000000E+00 0.  1.
          2   -1    0    0  502    0  0.00000000000E+00 -0.00000000000E+00 -0.17064399040E+03  0.17064399040E+03  0.00000000000E+00 0. -1.
         23    2    1    2    0    0 -0.75472732162E+02 -0.22435358075E+02  0.53382455854E+02  0.13170214228E+03  0.91083967279E+02 0.  0.
         24    2    1    2    0    0  0.58857688326E+02 -0.83179927161E+01 -0.11052358660E+03  0.14984438636E+03  0.81880769726E+02 0.  0.
        -13    1    4    4    0    0  0.28399412099E+02  0.33079910944E+02 -0.25539965310E+02  0.50528179699E+02  0.00000000000E+00 0.  1.
         14    1    4    4    0    0  0.30458276227E+02 -0.41397903660E+02 -0.84983621286E+02  0.99316206658E+02  0.00000000000E+00 0. -1.
        -13    1    3    3    0    0 -0.33987984957E+02 -0.22692936026E+02 -0.21438742817E+02  0.46149454606E+02  0.00000000000E+00 0. -1.
         13    1    3    3    0    0 -0.41484747206E+02  0.25757795067E+00  0.74821198671E+02  0.85552687671E+02  0.00000000000E+00 0.  1.
         21    1    1    2  502  501  0.16615043836E+02  0.30753350791E+02  0.23363776866E+03  0.23623809009E+03  0.00000000000E+00 0.  1.
<scales pt_clust_5="13000.00000" pt_clust_6="13000.00000" pt_clust_7="13000.00000" pt_clust_8="13000.00000" pt_clust_9="34.95466"></scales>
<clustering>
<clus scale="   34.955">  1  9  2 -1</clus>
<clus scale="   81.881">  5  6 -1 -1</clus>
<clus scale="   91.084">  7  8 -1 -1</clus>
<clus scale="  102.608">  2  5  1 -1</clus>
<clus scale="  102.608">  2  5  1 -1</clus>
</clustering>
</event>
<event>
 9    2  0.5608219E-005  0.9473828E+02  0.7546771E-02  0.1297090E+00
         -1   -1    0    0    0  501 -0.00000000000E+00  0.00000000000E+00  0.58193538086E+02  0.58193538086E+02  0.00000000000E+00 0.  1.
          2   -1    0    0  502    0  0.00000000000E+00 -0.00000000000E+00 -0.23133058519E+03  0.23133058519E+03  0.00000000000E+00 0. -1.
         24    2    1    2    0    0  0.15990430434E+02  0.87841231382E+01 -0.40161037882E+01  0.82137645969E+02  0.79985055547E+02 0.  0.
         23    2    1    2    0    0 -0.22729069436E+02 -0.27904351987E+02 -0.15540589204E+03  0.18291005930E+03  0.89497681847E+02 0.  0.
        -13    1    3    3    0    0 -0.36900324191E+00 -0.28733562132E+02 -0.23203098897E+02  0.36934232828E+02  0.00000000000E+00 0.  1.
         14    1    3    3    0    0  0.16359433675E+02  0.37517685270E+02  0.19186995109E+02  0.45203413140E+02  0.00000000000E+00 0. -1.
        -13    1    4    4    0    0 -0.54358675590E+02 -0.31227299835E+02 -0.84656281538E+02  0.10534085566E+03  0.00000000000E+00 0.  1.
         13    1    4    4    0    0  0.31629606154E+02  0.33229478485E+01 -0.70749610500E+02  0.77569203643E+02  0.00000000000E+00 0. -1.
         21    1    1    2  502  501  0.67386390026E+01  0.19120228848E+02 -0.13715051273E+02  0.24476418002E+02  0.00000000000E+00 0. -1.
<scales pt_clust_5="13000.00000" pt_clust_6="13000.00000" pt_clust_7="13000.00000" pt_clust_8="13000.00000" pt_clust_9="20.27295"></scales>
<clustering>
<clus scale="   20.273">  1  9  2 -1</clus>
<clus scale="   79.985">  5  6 -1 -1</clus>
<clus scale="   85.809">  1  5  2 -1</clus>
<clus scale="   89.498">  7  8 -1 -1</clus>
<clus scale="   94.738">  2  5  1 -1</clus>
</clustering>
</event>
<event>
 9    2  0.5608219E-005  0.1039854E+03  0.7546771E-02  0.1275033E+00
         -1   -1    0    0    0  501 -0.00000000000E+00  0.00000000000E+00  0.50220782577E+02  0.50220782577E+02  0.00000000000E+00 0.  1.
          2   -1    0    0  502    0  0.00000000000E+00 -0.00000000000E+00 -0.61477765514E+03  0.61477765514E+03  0.00000000000E+00 0. -1.
         23    2    1    2    0    0 -0.42197109220E+01 -0.27732247386E+02 -0.31244392793E+02  0.99352232085E+02  0.90043158728E+02 0.  0.
         24    2    1    2    0    0  0.21502412966E+02  0.51109175832E+02 -0.52628194235E+03  0.53573632382E+03  0.83463909575E+02 0.  0.
        -11    1    4    4    0    0 -0.26090559152E+02 -0.48569035620E+01 -0.12526496570E+03  0.12804537641E+03  0.00000000000E+00 0.  1.
         12    1    4    4    0    0  0.47592972118E+02  0.55966079394E+02 -0.40101697665E+03  0.40769094741E+03  0.00000000000E+00 0. -1.
        -11    1    3    3    0    0 -0.45521175927E+02 -0.27141039008E+02 -0.16935692072E+02  0.55638396114E+02  0.00000000000E+00 0.  1.
         11    1    3    3    0    0  0.41301465005E+02 -0.59120837867E+00 -0.14308700721E+02  0.43713835970E+02  0.00000000000E+00 0. -1.
         21    1    1    2  502  501 -0.17282702044E+02 -0.23376928446E+02 -0.70305374200E+01  0.29909881811E+02  0.00000000000E+00 0.  1.
<scales pt_clust_5="13000.00000" pt_clust_6="13000.00000" pt_clust_7="13000.00000" pt_clust_8="13000.00000" pt_clust_9="29.07185"></scales>
<clustering>
<clus scale="   29.072">  1  9  2 -1</clus>
<clus scale="   83.464">  5  6 -1 -1</clus>
<clus scale="   90.043">  7  8 -1 -1</clus>
<clus scale="   98.343">  2  5  1 -1</clus>
<clus scale="   98.343">  2  5  1 -1</clus>
</clustering>
</event>
<event>
 9    2  0.5608219E-005  0.9566070E+02  0.7546771E-02  0.1296116E+00
         -1   -1    0    0    0  501 -0.00000000000E+00  0.00000000000E+00  0.14133099580E+03  0.14133099580E+03  0.00000000000E+00 0.  1.
          2   -1    0    0  502    0  0.00000000000E+00 -0.00000000000E+00 -0.10146206780E+03  0.10146206780E+03  0.00000000000E+00 0. -1.
         24    2    1    2    0    0  0.17828343322E+02 -0.10072855357E+02  0.71312558554E+02  0.10974777494E+03  0.80868911549E+02 0.  0.
         23    2    1    2    0    0 -0.39650681794E+02  0.21764278837E+02 -0.34085451556E+02  0.10814783784E+03  0.92131842606E+02 0.  0.
        -13    1    3    3    0    0  0.30714154895E+02 -0.35033121333E+02  0.66578959521E+02  0.81261533041E+02  0.00000000000E+00 0.  1.
         14    1    3    3    0    0 -0.12885811573E+02  0.24960265976E+02  0.47335990331E+01  0.28486241895E+02  0.00000000000E+00 0. -1.
        -13    1    4    4    0    0  0.20405998063E+02 -0.20465928747E+01 -0.38258441375E+02  0.43408543350E+02  0.00000000000E+00 0. -1.
         13    1    4    4    0    0 -0.60056679857E+02  0.23810871711E+02  0.41729898186E+01  0.64739294491E+02  0.00000000000E+00 0.  1.
         21    1    1    2  502  501  0.21822338472E+02 -0.11691423480E+02  0.26418209999E+01  0.24897450825E+02  0.00000000000E+00 0.  1.
<scales pt_clust_5="13000.00000" pt_clust_6="13000.00000" pt_clust_7="13000.00000" pt_clust_8="13000.00000" pt_clust_9="24.75689"></scales>
<clustering>
<clus scale="   24.757">  2  9  1 -1</clus>
<clus scale="   80.869">  5  6 -1 -1</clus>
<clus scale="   84.867">  1  5  2 -1</clus>
<clus scale="   92.132">  7  8 -1 -1</clus>
<clus scale="   24.757">  2  5  1 -1</clus>
</clustering>
</event>
<event>
 9    2  0.5608219E-005  0.1046858E+03  0.7546771E-02  0.1275724E+00
          4   -1    0    0  502    0  0.00000000000E+00  0.00000000000E+00  0.13154020586E+03  0.13154020586E+03  0.00000000000E+00 0. -1.
         -3   -1    0    0    0  501 -0.00000000000E+00 -0.00000000000E+00 -0.10761070264E+03  0.10761070264E+03  0.00000000000E+00 0.  1.
         23    2    1    2    0    0 -0.23724443773E+02  0.66990100768E+02  0.16425517813E+02  0.11647909252E+03  0.90813316901E+02 0.  0.
         24    2    1    2    0    0  0.16125887920E+02 -0.33342672616E+02  0.82117779000E+01  0.88169809628E+02  0.79590853464E+02 0.  0.
        -13    1    4    4    0    0  0.24247346356E+02  0.34749532542E+01 -0.27088340925E+02  0.36521053100E+02  0.00000000000E+00 0.  1.
         14    1    4    4    0    0 -0.81214584362E+01 -0.36817625870E+02  0.35300118825E+02  0.51648756528E+02  0.00000000000E+00 0. -1.
        -13    1    3    3    0    0  0.20574462534E+02  0.60887725974E+02 -0.92230465363E+01  0.64928331799E+02  0.00000000000E+00 0.  1.
         13    1    3    3    0    0 -0.44298906308E+02  0.61023747943E+01  0.25648564349E+02  0.51550760725E+02  0.00000000000E+00 0. -1.
         21    1    1    2  502  501  0.75985558536E+01 -0.33647428153E+02 -0.70779249318E+00  0.34502006355E+02  0.00000000000E+00 0.  1.
<scales pt_clust_5="13000.00000" pt_clust_6="13000.00000" pt_clust_7="13000.00000" pt_clust_8="13000.00000" pt_clust_9="34.49475"></scales>
<clustering>
<clus scale="   34.495">  2  9  1 -1</clus>
<clus scale="   79.591">  5  6 -1 -1</clus>
<clus scale="   90.813">  7  8 -1 -1</clus>
<clus scale="   95.114">  1  5  2 -1</clus>
<clus scale="   95.114">  1  5  2 -1</clus>
</clustering>
</event>
<event>
 9    2  0.5608219E-005  0.1072320E+03  0.7546771E-02  0.1269859E+00
          2   -1    0    0  502    0  0.00000000000E+00  0.00000000000E+00  0.24361289533E+03  0.24361289533E+03  0.00000000000E+00 0. -1.
         -1   -1    0    0    0  501 -0.00000000000E+00 -0.00000000000E+00 -0.22913907850E+03  0.22913907850E+03  0.00000000000E+00 0.  1.
         23    2    1    2    0    0 -0.58365110901E+02 -0.75054482799E-01 -0.15973190446E+03  0.19252745176E+03  0.90255451766E+02 0.  0.
         24    2    1    2    0    0  0.49438277981E+02  0.31100848930E+02  0.20981567347E+03  0.23215834934E+03  0.80395747394E+02 0.  0.
        -13    1    4    4    0    0  0.31394589590E+02  0.44362688035E+02  0.61129590395E+02  0.81795447105E+02  0.00000000000E+00 0.  1.
         14    1    4    4    0    0  0.18043688391E+02 -0.13261839105E+02  0.14868608308E+03  0.15036290223E+03  0.00000000000E+00 0. -1.
        -13    1    3    3    0    0 -0.40288028036E+02 -0.32640532726E+02 -0.14220545417E+03  0.15136353846E+03  0.00000000000E+00 0.  1.
         13    1    3    3    0    0 -0.18077082865E+02  0.32565478243E+02 -0.17526450293E+02  0.41163913298E+02  0.00000000000E+00 0. -1.
         21    1    1    2  502  501  0.89268329198E+01 -0.31025794447E+02 -0.35609952185E+02  0.48066172738E+02  0.00000000000E+00 0.  1.
<scales pt_clust_5="13000.00000" pt_clust_6="13000.00000" pt_clust_7="13000.00000" pt_clust_8="13000.00000" pt_clust_9="32.28449"></scales>
<clustering>
<clus scale="   32.284">  2  9  1 -1</clus>
<clus scale="   80.396">  5  6 -1 -1</clus>
<clus scale="   90.255">  7  8 -1 -1</clus>
<clus scale="   99.076">  1  5  2 -1</clus>
<clus scale="   99.076">  1  5  2 -1</clus>
</clustering>
</event>
<event>
 9    2  0.5608219E-005  0.1161531E+03  0.7546771E-02  0.1254572E+00
         -3   -1    0    0    0  501 -0.00000000000E+00  0.00000000000E+00  0.47715485087E+03  0.47715485087E+03  0.00000000000E+00 0.  1.
          4   -1    0    0  502    0  0.00000000000E+00 -0.00000000000E+00 -0.55926153992E+02  0.55926153992E+02  0.00000000000E+00 0. -1.
         23    2    1    2    0    0 -0.81651420702E+02  0.34830675650E+02  0.35309439494E+03  0.37515916747E+03  0.90490987017E+02 0.  0.
         24    2    1    2    0    0  0.25823798678E+02 -0.16101056447E+02  0.27009619904E+02  0.86097318675E+02  0.75875662230E+02 0.  0.
        -13    1    4    4    0    0  0.19770863787E+02 -0.26418175810E+02  0.50159435675E+02  0.60039787269E+02  0.00000000000E+00 0.  1.
         14    1    4    4    0    0  0.60529348907E+01  0.10317119363E+02 -0.23149815772E+02  0.26057531407E+02  0.00000000000E+00 0. -1.
        -13    1    3    3    0    0 -0.33556464619E+02 -0.24432327065E+02  0.19797700848E+03  0.20228166207E+03  0.00000000000E+00 0.  1.
         13    1    3    3    0    0 -0.48094956082E+02  0.59263002714E+02  0.15511738646E+03  0.17287750540E+03  0.00000000000E+00 0. -1.
         21    1    1    2  502  501  0.55827622024E+02 -0.18729619203E+02  0.41124682035E+02  0.71824518716E+02  0.00000000000E+00 0.  1.
<scales pt_clust_5="13000.00000" pt_clust_6="13000.00000" pt_clust_7="13000.00000" pt_clust_8="13000.00000" pt_clust_9="58.88567"></scales>
<clustering>
<clus scale="   58.886">  2  9  1 -1</clus>
<clus scale="   75.876">  5  6 -1 -1</clus>
<clus scale="   90.491">  7  8 -1 -1</clus>
<clus scale="  105.167">  2  5  1 -1</clus>
<clus scale="   58.886">  2  5  1 -1</clus>
</clustering>
</event>
<event>
 9    2  0.5608219E-005  0.1162688E+03  0.7546771E-02  0.1254327E+00
         -3   -1    0    0    0  501 -0.00000000000E+00  0.00000000000E+00  0.72433148418E+02  0.72433148418E+02  0.00000000000E+00 0.  1.
          4   -1    0    0  502    0  0.00000000000E+00 -0.00000000000E+00 -0.40737736128E+03  0.40737736128E+03  0.00000000000E+00 0. -1.
         23    2    1    2    0    0  0.30974584278E+01  0.62254131292E+02 -0.13109255768E+03  0.17398765043E+03  0.95923264702E+02 0.  0.
         24    2    1    2    0    0  0.26881375423E+02 -0.64413024228E+02 -0.23739004340E+03  0.26078715364E+03  0.82366624059E+02 0.  0.
        -11    1    4    4    0    0 -0.23125474249E+02 -0.50025650016E+02 -0.10606752103E+03  0.11953105135E+03  0.00000000000E+00 0.  1.
         12    1    4    4    0    0  0.50006849672E+02 -0.14387374212E+02 -0.13132252237E+03  0.14125610228E+03  0.00000000000E+00 0. -1.
        -11    1    3    3    0    0 -0.33182168895E+02 -0.87962379994E+01 -0.45259615446E+02  0.56805483237E+02  0.00000000000E+00 0.  1.
         11    1    3    3    0    0  0.36279627323E+02  0.71050369291E+02 -0.85832942230E+02  0.11718216719E+03  0.00000000000E+00 0. -1.
         21    1    1    2  502  501 -0.29978833851E+02  0.21588929362E+01  0.33538388220E+02  0.45035705636E+02  0.00000000000E+00 0.  1.
<scales pt_clust_5="13000.00000" pt_clust_6="13000.00000" pt_clust_7="13000.00000" pt_clust_8="13000.00000" pt_clust_9="30.05647"></scales>
<clustering>
<clus scale="   30.056">  1  9  2 -1</clus>
<clus scale="   82.367">  5  6 -1 -1</clus>
<clus scale="   95.923">  7  8 -1 -1</clus>
<clus scale="  105.363">  2  5  1 -1</clus>
<clus scale="  105.363">  2  5  1 -1</clus>
</clustering>
</event>
<event>
 9    2  0.5608219E-005  0.1061053E+03  0.7546771E-02  0.1271012E+00
         -1   -1    0    0    0  501 -0.00000000000E+00  0.00000000000E+00  0.22061891511E+03  0.22061891511E+03  0.00000000000E+00 0.  1.
          2   -1    0    0  502    0  0.00000000000E+00 -0.00000000000E+00 -0.30099838724E+03  0.30099838724E+03  0.00000000000E+00 0. -1.
         23    2    1    2    0    0 -0.27853990309E+02  0.34948982340E+02  0.86244928786E+01  0.10089893010E+03  0.90049631181E+02 0.  0.
         24    2    1    2    0    0  0.11925923342E+02 -0.57822907209E+02 -0.24342163293E+03  0.26380522453E+03  0.82785197137E+02 0.  0.
        -11    1    4    4    0    0 -0.33216061618E+02 -0.11049909157E+02 -0.63634950276E+02  0.72627915696E+02  0.00000000000E+00 0.  1.
         12    1    4    4    0    0  0.45141984960E+02 -0.46772998052E+02 -0.17978668266E+03  0.19117730884E+03  0.00000000000E+00 0. -1.
        -13    1    3    3    0    0  0.22803578491E+02  0.15394179275E+01 -0.23038631191E+02  0.32452296170E+02  0.00000000000E+00 0. -1.
         13    1    3    3    0    0 -0.50657568800E+02  0.33409564412E+02  0.31663124070E+02  0.68446633933E+02  0.00000000000E+00 0.  1.
         21    1    1    2  502  501  0.15928066967E+02  0.22873924869E+02  0.15441766793E+03  0.15691314771E+03  0.00000000000E+00 0.  1.
<scales pt_clust_5="13000.00000" pt_clust_6="13000.00000" pt_clust_7="13000.00000" pt_clust_8="13000.00000" pt_clust_9="27.87328"></scales>
<clustering>
<clus scale="   27.873">  1  9  2 -1</clus>
<clus scale="   82.785">  5  6 -1 -1</clus>
<clus scale="   90.050">  7  8 -1 -1</clus>
<clus scale="  100.014">  2  5  1 -1</clus>
<clus scale="  100.014">  2  5  1 -1</clus>
</clustering>
</event>
<event>
 9    2  0.5608219E-005  0.1098228E+03  0.7546771E-02  0.1268703E+00
         -1   -1    0    0    0  501 -0.00000000000E+00  0.00000000000E+00  0.24020526879E+03  0.24020526879E+03  0.00000000000E+00 0.  1.
          2   -1    0    0  502    0  0.00000000000E+00 -0.00000000000E+00 -0.18614719211E+03  0.18614719211E+03  0.00000000000E+00 0. -1.
         23    2    1    2    0    0  0.38144001244E+02 -0.63890314901E+02 -0.78864144320E+02  0.14577148399E+03  0.97431181437E+02 0.  0.
         24    2    1    2    0    0 -0.15152844649E+02  0.28613554524E+02 -0.45546515512E+02  0.97212132721E+02  0.79544763935E+02 0.  0.
        -13    1    4    4    0    0  0.11710670193E+02 -0.19053755939E+02  0.47813941358E+01  0.22870223909E+02  0.00000000000E+00 0.  1.
         14    1    4    4    0    0 -0.26863514842E+02  0.47667310463E+02 -0.50327909647E+02  0.74341908813E+02  0.00000000000E+00 0. -1.
        -11    1    3    3    0    0  0.82116938395E+01 -0.28257610261E+02  0.20626103378E+02  0.35935506034E+02  0.00000000000E+00 0.  1.
         11    1    3    3    0    0  0.29932307404E+02 -0.35632704641E+02 -0.99490247698E+02  0.10983597796E+03  0.00000000000E+00 0. -1.
         21    1    1    2  502  501 -0.22991156595E+02  0.35276760377E+02  0.17846873652E+03  0.18336884419E+03  0.00000000000E+00 0.  1.
<scales pt_clust_5="13000.00000" pt_clust_6="13000.00000" pt_clust_7="13000.00000" pt_clust_8="13000.00000" pt_clust_9="42.10752"></scales>
<clustering>
<clus scale="   42.108">  1  9  2 -1</clus>
<clus scale="   79.545">  5  6 -1 -1</clus>
<clus scale="   94.316">  2  5  1 -1</clus>
<clus scale="   97.431">  7  8 -1 -1</clus>
<clus scale="   94.316">  2  5  1 -1</clus>
</clustering>
</event>
<event>
 9    2  0.5608219E-005  0.1114286E+03  0.7546771E-02  0.1259980E+00
          2   -1    0    0  502    0  0.00000000000E+00  0.00000000000E+00  0.11638361946E+03  0.11638361946E+03  0.00000000000E+00 0. -1.
         -1   -1    0    0    0  501 -0.00000000000E+00 -0.00000000000E+00 -0.25920788276E+03  0.25920788276E+03  0.00000000000E+00 0.  1.
         24    2    1    2    0    0  0.12200533017E+02  0.88641529209E+02 -0.48357303242E+02  0.13002613217E+03  0.81007361178E+02 0.  0.
         23    2    1    2    0    0 -0.96790561294E+01 -0.60890393385E+02  0.35877913789E+02  0.11227519965E+03  0.86701624118E+02 0.  0.
        -11    1    3    3    0    0  0.41515696344E+02  0.75847384323E+02 -0.46033378067E+02  0.97956371145E+02  0.00000000000E+00 0.  1.
         12    1    3    3    0    0 -0.29315163327E+02  0.12794144886E+02 -0.23239251749E+01  0.32069761030E+02  0.00000000000E+00 0. -1.
        -11    1    4    4    0    0  0.35562157430E+02 -0.25826248769E+02  0.33006736215E+02  0.54964595897E+02  0.00000000000E+00 0. -1.
         11    1    4    4    0    0 -0.45241213559E+02 -0.35064144616E+02  0.28711775738E+01  0.57310603754E+02  0.00000000000E+00 0.  1.
         21    1    1    2  502  501 -0.25214768872E+01 -0.27751135824E+02 -0.13034487385E+03  0.13329017040E+03  0.00000000000E+00 0.  1.
<scales pt_clust_5="13000.00000" pt_clust_6="13000.00000" pt_clust_7="13000.00000" pt_clust_8="13000.00000" pt_clust_9="27.86545"></scales>
<clustering>
<clus scale="   27.865">  2  9  1 -1</clus>
<clus scale="   81.007">  5  6 -1 -1</clus>
<clus scale="   86.702">  7  8 -1 -1</clus>
<clus scale="  107.058">  2  5  1 -1</clus>
<clus scale="  111.429">  1  5  2 -1</clus>
</clustering>
</event>
<event>
 9    2  0.5608219E-005  0.9963476E+02  0.7546771E-02  0.1288710E+00
         -1   -1    0    0    0  501 -0.00000000000E+00  0.00000000000E+00  0.18696347318E+03  0.18696347318E+03  0.00000000000E+00 0.  1.
          2   -1    0    0  502    0  0.00000000000E+00 -0.00000000000E+00 -0.22439499347E+03  0.22439499347E+03  0.00000000000E+00 0. -1.
         23    2    1    2    0    0  0.30389053238E+02  0.40828704448E+02  0.91254752698E+02  0.14097616125E+03  0.94638102720E+02 0.  0.
         24    2    1    2    0    0 -0.76805389567E+01 -0.28819030746E+02 -0.18750895619E+03  0.20619494728E+03  0.80419030200E+02 0.  0.
        -11    1    4    4    0    0 -0.14999995885E+02  0.22131834022E+02 -0.10962528179E+03  0.11283847022E+03  0.00000000000E+00 0.  1.
         12    1    4    4    0    0  0.73194569283E+01 -0.50950864769E+02 -0.77883674407E+02  0.93356477063E+02  0.00000000000E+00 0. -1.
        -13    1    3    3    0    0  0.15232209647E+02 -0.23470938336E+02 -0.41403305387E+00  0.27983505508E+02  0.00000000000E+00 0. -1.
         13    1    3    3    0    0  0.15156843591E+02  0.64299642785E+02  0.91668785752E+02  0.11299265574E+03  0.00000000000E+00 0.  1.
         21    1    1    2  502  501 -0.22708514282E+02 -0.12009673702E+02  0.58822683208E+02  0.64187358126E+02  0.00000000000E+00 0.  1.
<scales pt_clust_5="13000.00000" pt_clust_6="13000.00000" pt_clust_7="13000.00000" pt_clust_8="13000.00000" pt_clust_9="25.68869"></scales>
<clustering>
<clus scale="   25.689">  1  9  2 -1</clus>
<clus scale="   80.419">  5  6 -1 -1</clus>
<clus scale="   86.243">  2  5  1 -1</clus>
<clus scale="   94.638">  7  8 -1 -1</clus>
<clus scale="   86.243">  2  5  1 -1</clus>
</clustering>
</event>
<event>
 9    2  0.5608219E-005  0.1226476E+03  0.7546771E-02  0.1243271E+00
         -1   -1    0    0    0  501 -0.00000000000E+00  0.00000000000E+00  0.48894828734E+02  0.48894828734E+02  0.00000000000E+00 0.  1.
          2   -1    0    0  502    0  0.00000000000E+00 -0.00000000000E+00 -0.51885696188E+03  0.51885696188E+03  0.00000000000E+00 0. -1.
         24    2    1    2    0    0  0.39963871700E+02 -0.45750807739E+02 -0.44118689944E+02  0.10821028136E+03  0.77927907323E+02 0.  0.
         23    2    1    2    0    0 -0.59320900513E+02  0.62703453527E+02 -0.41052514158E+03  0.42959593983E+03  0.92580167004E+02 0.  0.
        -13    1    3    3    0    0  0.31279699058E+02 -0.14243890366E+01  0.14252718164E+02  0.34403320077E+02  0.00000000000E+00 0.  1.
         14    1    3    3    0    0  0.86841726422E+01 -0.44326418702E+02 -0.58371408108E+02  0.73806961284E+02  0.00000000000E+00 0. -1.
        -11    1    4    4    0    0 -0.56679483224E+02 -0.46028149019E+01 -0.22964696678E+03  0.23658292220E+03  0.00000000000E+00 0.  1.
         11    1    4    4    0    0 -0.26414172890E+01  0.67306268429E+02 -0.18087817480E+03  0.19301301763E+03  0.00000000000E+00 0. -1.
         21    1    1    2  502  501  0.19357028813E+02 -0.16952645788E+02 -0.15318301618E+02  0.29945569424E+02  0.00000000000E+00 0. -1.
<scales pt_clust_5="13000.00000" pt_clust_6="13000.00000" pt_clust_7="13000.00000" pt_clust_8="13000.00000" pt_clust_9="25.73105"></scales>
<clustering>
<clus scale="   25.731">  1  9  2 -1</clus>
<clus scale="   77.928">  5  6 -1 -1</clus>
<clus scale="   92.580">  7  8 -1 -1</clus>
<clus scale="  112.000">  1  5  2 -1</clus>
<clus scale="  122.648">  2  5  1 -1</clus>
</clustering>
</event>
<event>
 9    2  0.5608219E-005  0.1548482E+03  0.7546771E-02  0.1196549E+00
          2   -1    0    0  502    0  0.00000000000E+00  0.00000000000E+00  0.40998049242E+03  0.40998049242E+03  0.00000000000E+00 0. -1.
         -1   -1    0    0    0  501 -0.00000000000E+00 -0.00000000000E+00 -0.12697877102E+03  0.12697877102E+03  0.00000000000E+00 0.  1.
         23    2    1    2    0    0 -0.38117916285E+02 -0.13071991586E+03  0.17695115494E+02  0.16494212747E+03  0.91389913882E+02 0.  0.
         24    2    1    2    0    0  0.91393192328E+02  0.86619078227E+02  0.26348307575E+03  0.30283285901E+03  0.80179978630E+02 0.  0.
        -11    1    4    4    0    0  0.76580040675E+00  0.21674816083E+02  0.63988029390E+01  0.22612580161E+02  0.00000000000E+00 0.  1.
         12    1    4    4    0    0  0.90627391921E+02  0.64944262144E+02  0.25708427281E+03  0.28022027885E+03  0.00000000000E+00 0. -1.
        -11    1    3    3    0    0 -0.57923195418E+02 -0.57709072597E+02  0.32268831256E+02  0.87901712714E+02  0.00000000000E+00 0.  1.
         11    1    3    3    0    0  0.19805279133E+02 -0.73010843260E+02 -0.14573715763E+02  0.77040414759E+02  0.00000000000E+00 0. -1.
         21    1    1    2  502  501 -0.53275276043E+02  0.44100837630E+02  0.18235301596E+01  0.69184276967E+02  0.00000000000E+00 0.  1.
<scales pt_clust_5="13000.00000" pt_clust_6="13000.00000" pt_clust_7="13000.00000" pt_clust_8="13000.00000" pt_clust_9="69.16024"></scales>
<clustering>
<clus scale="   69.160">  2  9  1 -1</clus>
<clus scale="   80.180">  5  6 -1 -1</clus>
<clus scale="   91.390">  7  8 -1 -1</clus>
<clus scale="  148.508">  1  5  2 -1</clus>
<clus scale="  148.508">  1  5  2 -1</clus>
</clustering>
</event>
<event>
 9    2  0.5608219E-005  0.1794937E+03  0.7546771E-02  0.1169575E+00
          2   -1    0    0  502    0  0.00000000000E+00  0.00000000000E+00  0.19419068806E+04  0.19419068806E+04  0.00000000000E+00 0. -1.
         -1   -1    0    0    0  501 -0.00000000000E+00 -0.00000000000E+00 -0.24425728818E+02  0.24425728818E+02  0.00000000000E+00 0.  1.
         23    2    1    2    0    0 -0.12781327929E+02 -0.16513393001E+03  0.53315495755E+03  0.56535398436E+03  0.89097371919E+02 0.  0.
         24    2    1    2    0    0  0.32696220069E+02  0.14931546835E+03  0.13295592883E+04  0.13405945159E+04  0.78112758025E+02 0.  0.
        -13    1    4    4    0    0  0.33146747476E+02  0.56492058773E+02  0.31146756757E+03  0.31827991646E+03  0.00000000000E+00 0.  1.
         14    1    4    4    0    0 -0.45052740779E+00  0.92823409575E+02  0.10180917208E+04  0.10223145994E+04  0.00000000000E+00 0. -1.
        -11    1    3    3    0    0 -0.74550576240E+01 -0.87423800154E+02  0.41258795803E+03  0.42181432151E+03  0.00000000000E+00 0. -1.
         11    1    3    3    0    0 -0.53262703055E+01 -0.77710129854E+02  0.12056699952E+03  0.14353966285E+03  0.00000000000E+00 0.  1.
         21    1    1    2  502  501 -0.19914892139E+02  0.15818461659E+02  0.54766905921E+02  0.60384109187E+02  0.00000000000E+00 0. -1.
<scales pt_clust_5="13000.00000" pt_clust_6="13000.00000" pt_clust_7="13000.00000" pt_clust_8="13000.00000" pt_clust_9="25.43279"></scales>
<clustering>
<clus scale="   25.433">  2  9  1 -1</clus>
<clus scale="   78.113">  5  6 -1 -1</clus>
<clus scale="   89.097">  7  8 -1 -1</clus>
<clus scale="  174.302">  1  5  2 -1</clus>
<clus scale="  174.302">  1  5  2 -1</clus>
</clustering>
</event>
<event>
 9    2  0.5608219E-005  0.1282559E+03  0.7546771E-02  0.1232268E+00
         -1   -1    0    0    0  501 -0.00000000000E+00  0.00000000000E+00  0.29752750505E+03  0.29752750505E+03  0.00000000000E+00 0.  1.
          2   -1    0    0  502    0  0.00000000000E+00 -0.00000000000E+00 -0.19605713122E+03  0.19605713122E+03  0.00000000000E+00 0. -1.
         23    2    1    2    0    0 -0.13643757101E+03  0.44629357033E+02  0.11150448155E+03  0.20251214171E+03  0.89280052887E+02 0.  0.
         24    2    1    2    0    0  0.55426066370E+02 -0.66341549284E+02 -0.10929043486E+03  0.16112596073E+03  0.80894536742E+02 0.  0.
        -11    1    4    4    0    0  0.54067286019E+02 -0.84404490264E+02 -0.94108480599E+02  0.13749107431E+03  0.00000000000E+00 0.  1.
         12    1    4    4    0    0  0.13587803515E+01  0.18062940981E+02 -0.15181954265E+02  0.23634886423E+02  0.00000000000E+00 0. -1.
        -13    1    3    3    0    0 -0.11681254383E+03  0.20503598108E+02  0.41054594634E+02  0.12550317793E+03  0.00000000000E+00 0. -1.
         13    1    3    3    0    0 -0.19625027178E+02  0.24125758924E+02  0.70449886919E+02  0.77008963779E+02  0.00000000000E+00 0.  1.
         21    1    1    2  502  501  0.81011504635E+02  0.21712192251E+02  0.99256327140E+02  0.12994653382E+03  0.00000000000E+00 0.  1.
<scales pt_clust_5="13000.00000" pt_clust_6="13000.00000" pt_clust_7="13000.00000" pt_clust_8="13000.00000" pt_clust_9="83.87063"></scales>
<clustering>
<clus scale="   80.895">  5  6 -1 -1</clus>
<clus scale="   83.871">  1  9  2 -1</clus>
<clus scale="   89.280">  7  8 -1 -1</clus>
<clus scale="  122.567">  2  5  1 -1</clus>
<clus scale="  122.567">  2  5  1 -1</clus>
</clustering>
</event>
<event>
 9    2  0.5608219E-005  0.1601115E+03  0.7546771E-02  0.1189196E+00
         -1   -1    0    0    0  501 -0.00000000000E+00  0.00000000000E+00  0.31671130910E+03  0.31671130910E+03  0.00000000000E+00 0.  1.
          2   -1    0    0  502    0  0.00000000000E+00 -0.00000000000E+00 -0.95644086919E+03  0.95644086919E+03  0.00000000000E+00 0. -1.
         23    2    1    2    0    0  0.16883796163E+03 -0.29708787778E+02 -0.17409675174E+03  0.25603069767E+03  0.76506011682E+02 0.  0.
         24    2    1    2    0    0 -0.13204740993E+03 -0.42627507803E+01 -0.73091342176E+03  0.74715590138E+03  0.80949498672E+02 0.  0.
        -13    1    4    4    0    0 -0.11582099113E+03  0.27648652822E+02 -0.57113732120E+03  0.58341819448E+03  0.00000000000E+00 0.  1.
         14    1    4    4    0    0 -0.16226418802E+02 -0.31911403603E+02 -0.15977610057E+03  0.16373770690E+03  0.00000000000E+00 0. -1.
        -13    1    3    3    0    0  0.20114888613E+02 -0.28617567055E+02 -0.14466993183E+02  0.37853240017E+02  0.00000000000E+00 0.  1.
         13    1    3    3    0    0  0.14872307302E+03 -0.10912207233E+01 -0.15962975855E+03  0.21817745765E+03  0.00000000000E+00 0. -1.
         21    1    1    2  502  501 -0.36790551706E+02  0.33971538558E+02  0.26528061341E+03  0.26996557925E+03  0.00000000000E+00 0.  1.
<scales pt_clust_5="13000.00000" pt_clust_6="13000.00000" pt_clust_7="13000.00000" pt_clust_8="13000.00000" pt_clust_9="50.07604"></scales>
<clustering>
<clus scale="   50.076">  1  9  2 -1</clus>
<clus scale="   76.506">  7  8 -1 -1</clus>
<clus scale="   80.949">  5  6 -1 -1</clus>
<clus scale="  157.912">  1  7  2 -1</clus>
<clus scale="  160.112">  2  5  1 -1</clus>
</clustering>
</event>
<event>
 9    2  0.5608219E-005  0.9609070E+02  0.7546771E-02  0.1293263E+00
         -1   -1    0    0    0  501 -0.00000000000E+00  0.00000000000E+00  0.75689365178E+02  0.75689365178E+02  0.00000000000E+00 0.  1.
          2   -1    0    0  502    0  0.00000000000E+00 -0.00000000000E+00 -0.35813270810E+03  0.35813270810E+03  0.00000000000E+00 0. -1.
         23    2    1    2    0    0  0.50489540823E+02 -0.38347113621E+02 -0.39791737154E+02  0.11763239183E+03  0.90743057074E+02 0.  0.
         24    2    1    2    0    0 -0.26767208446E+02 -0.16550340223E+02 -0.24068649510E+03  0.25635372945E+03  0.82443001325E+02 0.  0.
        -11    1    4    4    0    0  0.10135893127E+00  0.32163218695E+02 -0.10096222273E+03  0.10596156533E+03  0.00000000000E+00 0.  1.
         12    1    4    4    0    0 -0.26868567377E+02 -0.48713558918E+02 -0.13972427238E+03  0.15039216411E+03  0.00000000000E+00 0. -1.
        -13    1    3    3    0    0  0.38337664487E+02  0.24563532247E+02 -0.24722486183E+02  0.51810664518E+02  0.00000000000E+00 0.  1.
         13    1    3    3    0    0  0.12151876336E+02 -0.62910645868E+02 -0.15069250971E+02  0.65821727315E+02  0.00000000000E+00 0. -1.
         21    1    1    2  502  501 -0.23722332377E+02  0.54897453844E+02 -0.19651106713E+01  0.59835952001E+02  0.00000000000E+00 0.  1.
<scales pt_clust_5="13000.00000" pt_clust_6="13000.00000" pt_clust_7="13000.00000" pt_clust_8="13000.00000" pt_clust_9="59.80367"></scales>
<clustering>
<clus scale="   59.804">  1  9  2 -1</clus>
<clus scale="   82.443">  5  6 -1 -1</clus>
<clus scale="   88.295">  2  5  1 -1</clus>
<clus scale="   90.743">  7  8 -1 -1</clus>
<clus scale="   88.295">  2  5  1 -1</clus>
</clustering>
</event>
<event>
 9    2  0.5608219E-005  0.1414148E+03  0.7546771E-02  0.1214004E+00
         -1   -1    0    0    0  501 -0.00000000000E+00  0.00000000000E+00  0.10519795680E+03  0.10519795680E+03  0.00000000000E+00 0.  1.
          2   -1    0    0  502    0  0.00000000000E+00 -0.00000000000E+00 -0.34807624831E+03  0.34807624831E+03  0.00000000000E+00 0. -1.
         24    2    1    2    0    0 -0.89764559338E+02 -0.61763106769E+02  0.21725441770E+02  0.13570998422E+03  0.77928476998E+02 0.  0.
         23    2    1    2    0    0  0.10020354905E+03  0.43552390691E+02 -0.25995691580E+03  0.29606548607E+03  0.90219798212E+02 0.  0.
        -13    1    3    3    0    0 -0.75511004181E+02 -0.10378964373E+02 -0.43632376552E+01  0.76345743148E+02  0.00000000000E+00 0.  1.
         14    1    3    3    0    0 -0.14253555156E+02 -0.51384142397E+02  0.26088679425E+02  0.59364241077E+02  0.00000000000E+00 0. -1.
        -13    1    4    4    0    0  0.58220639970E+02  0.81982087211E+01 -0.44525133512E+02  0.73751888511E+02  0.00000000000E+00 0.  1.
         13    1    4    4    0    0  0.41982909084E+02  0.35354181970E+02 -0.21543178229E+03  0.22231359755E+03  0.00000000000E+00 0. -1.
         21    1    1    2  502  501 -0.10438989716E+02  0.18210716079E+02 -0.46468174824E+01  0.21498734826E+02  0.00000000000E+00 0. -1.
<scales pt_clust_5="13000.00000" pt_clust_6="13000.00000" pt_clust_7="13000.00000" pt_clust_8="13000.00000" pt_clust_9="20.99054"></scales>
<clustering>
<clus scale="   20.991">  1  9  2 -1</clus>
<clus scale="   77.928">  5  6 -1 -1</clus>
<clus scale="   90.220">  7  8 -1 -1</clus>
<clus scale="  133.908">  1  5  2 -1</clus>
<clus scale="  141.415">  2  5  1 -1</clus>
</clustering>
</event>
<event>
 9    2  0.5608219E-005  0.1027144E+03  0.7546771E-02  0.1279144E+00
          2   -1    0    0  502    0  0.00000000000E+00  0.00000000000E+00  0.18505529122E+03  0.18505529122E+03  0.00000000000E+00 0. -1.
         -1   -1    0    0    0  501 -0.00000000000E+00 -0.00000000000E+00 -0.14196369319E+03  0.14196369319E+03  0.00000000000E+00 0.  1.
         23    2    1    2    0    0 -0.40646372412E+02 -0.47374029322E+02 -0.17686952927E+01  0.11024185688E+03  0.90849944861E+02 0.  0.
         24    2    1    2    0    0  0.49065350469E+02 -0.30485205085E+01  0.10250476122E+03  0.13973040532E+03  0.81244433671E+02 0.  0.
        -13    1    4    4    0    0  0.29760076267E+02  0.38323886587E+02  0.61735880327E+02  0.78521979995E+02  0.00000000000E+00 0.  1.
         14    1    4    4    0    0  0.19305274202E+02 -0.41372407095E+02  0.40768880895E+02  0.61208425321E+02  0.00000000000E+00 0. -1.
        -13    1    3    3    0    0 -0.30385739429E+02 -0.72282892968E+02 -0.15619270053E+02  0.79950430727E+02  0.00000000000E+00 0. -1.
         13    1    3    3    0    0 -0.10260632983E+02  0.24908863646E+02  0.13850574760E+02  0.30291426155E+02  0.00000000000E+00 0.  1.
         21    1    1    2  502  501 -0.84189780566E+01  0.50422549831E+02 -0.57644467903E+02  0.77046722206E+02  0.00000000000E+00 0.  1.
<scales pt_clust_5="13000.00000" pt_clust_6="13000.00000" pt_clust_7="13000.00000" pt_clust_8="13000.00000" pt_clust_9="51.12057"></scales>
<clustering>
<clus scale="   51.121">  2  9  1 -1</clus>
<clus scale="   81.244">  5  6 -1 -1</clus>
<clus scale="   90.850">  7  8 -1 -1</clus>
<clus scale="   94.325">  1  5  2 -1</clus>
<clus scale="   94.325">  1  5  2 -1</clus>
</clustering>
</event>
<event>
 9    2  0.5608219E-005  0.1072772E+03  0.7546771E-02  0.1274287E+00
          2   -1    0    0  502    0  0.00000000000E+00  0.00000000000E+00  0.10645296720E+04  0.10645296720E+04  0.00000000000E+00 0. -1.
         -1   -1    0    0    0  501 -0.00000000000E+00 -0.00000000000E+00 -0.35748489342E+02  0.35748489342E+02  0.00000000000E+00 0.  1.
         23    2    1    2    0    0 -0.49027430020E+01 -0.31373848481E+01  0.34270622469E+03  0.35737782526E+03  0.10118040062E+03 0.  0.
         24    2    1    2    0    0 -0.58332066905E+01  0.50964724015E+02  0.68691194052E+03  0.69387569409E+03  0.83570541551E+02 0.  0.
        -11    1    4    4    0    0 -0.15131059394E+02  0.15361264452E+02  0.36278035864E+02  0.42202053150E+02  0.00000000000E+00 0.  1.
         12    1    4    4    0    0  0.92978527033E+01  0.35603459563E+02  0.65063390466E+03  0.65167364094E+03  0.00000000000E+00 0. -1.
        -11    1    3    3    0    0 -0.48286852091E+02 -0.16271342939E+02  0.23608376542E+03  0.24152002191E+03  0.00000000000E+00 0. -1.
         11    1    3    3    0    0  0.43384109089E+02  0.13133958091E+02  0.10662245927E+03  0.11585780335E+03  0.00000000000E+00 0.  1.
         21    1    1    2  502  501  0.10735949692E+02 -0.47827339167E+02 -0.83698251432E+00  0.49024642042E+02  0.00000000000E+00 0.  1.
<scales pt_clust_5="13000.00000" pt_clust_6="13000.00000" pt_clust_7="13000.00000" pt_clust_8="13000.00000" pt_clust_9="49.01750"></scales>
<clustering>
<clus scale="   49.017">  2  9  1 -1</clus>
<clus scale="   83.571">  5  6 -1 -1</clus>
<clus scale="   90.857">  1  5  2 -1</clus>
<clus scale="  101.180">  7  8 -1 -1</clus>
<clus scale="   90.857">  1  5  2 -1</clus>
</clustering>
</event>
<event>
 9    2  0.5608219E-005  0.9854043E+02  0.7546771E-02  0.1289486E+00
         -1   -1    0    0    0  501 -0.00000000000E+00  0.00000000000E+00  0.12438916604E+02  0.12438916604E+02  0.00000000000E+00 0.  1.
          2   -1    0    0  502    0  0.00000000000E+00 -0.00000000000E+00 -0.95700207044E+03  0.95700207044E+03  0.00000000000E+00 0. -1.
         23    2    1    2    0    0 -0.24478874987E+02  0.19939397401E+02 -0.33314013313E+03  0.34641493070E+03  0.89577681502E+02 0.  0.
         24    2    1    2    0    0  0.39929040855E+02 -0.38342022929E+02 -0.50435986268E+03  0.51329965086E+03  0.77673814584E+02 0.  0.
        -13    1    4    4    0    0  0.22230212123E+02 -0.15884028662E+02 -0.42303715618E+02  0.50359597423E+02  0.00000000000E+00 0.  1.
         14    1    4    4    0    0  0.17698828733E+02 -0.22457994267E+02 -0.46205614706E+03  0.46294005344E+03  0.00000000000E+00 0. -1.
        -13    1    3    3    0    0 -0.45716373734E+02 -0.85266337890E+01 -0.26996470528E+03  0.27394092868E+03  0.00000000000E+00 0.  1.
         13    1    3    3    0    0  0.21237498747E+02  0.28466031190E+02 -0.63175427851E+02  0.72474002021E+02  0.00000000000E+00 0. -1.
         21    1    1    2  502  501 -0.15450165869E+02  0.18402625527E+02 -0.10706315803E+03  0.10972640547E+03  0.00000000000E+00 0.  1.
<scales pt_clust_5="13000.00000" pt_clust_6="13000.00000" pt_clust_7="13000.00000" pt_clust_8="13000.00000" pt_clust_9="24.02841"></scales>
<clustering>
<clus scale="   24.028">  2  9  1 -1</clus>
<clus scale="   77.674">  5  6 -1 -1</clus>
<clus scale="   87.859">  2  5  1 -1</clus>
<clus scale="   89.578">  7  8 -1 -1</clus>
<clus scale="   24.028">  2  5  1 -1</clus>
</clustering>
</event>
<event>
 9    2  0.5608219E-005  0.1056413E+03  0.7546771E-02  0.1272961E+00
          2   -1    0    0  502    0  0.00000000000E+00  0.00000000000E+00  0.46348466171E+03  0.46348466171E+03  0.00000000000E+00 0. -1.
         -1   -1    0    0    0  501 -0.00000000000E+00 -0.00000000000E+00 -0.42298481102E+02  0.42298481102E+02  0.00000000000E+00 0.  1.
         24    2    1    2    0    0 -0.44263271222E+02 -0.42011331879E+02  0.77100470581E+02  0.12758461245E+03  0.81296750151E+02 0.  0.
         23    2    1    2    0    0  0.87594686748E+01  0.54050597625E+02  0.30962945224E+03  0.32727999134E+03  0.90794270996E+02 0.  0.
        -11    1    3    3    0    0 -0.59292631563E+02 -0.51962541371E+02  0.45023578643E+02  0.90790112332E+02  0.00000000000E+00 0.  1.
         12    1    3    3    0    0  0.15029360341E+02  0.99512094922E+01  0.32076891939E+02  0.36794500120E+02  0.00000000000E+00 0. -1.
        -11    1    4    4    0    0 -0.31827283519E+02  0.53737339801E+02  0.22356604214E+03  0.23212594181E+03  0.00000000000E+00 0.  1.
         11    1    4    4    0    0  0.40586752194E+02  0.31325782378E+00  0.86063410097E+02  0.95154049528E+02  0.00000000000E+00 0. -1.
         21    1    1    2  502  501  0.35503802547E+02 -0.12039265746E+02  0.34456257794E+02  0.50918539023E+02  0.00000000000E+00 0. -1.
<scales pt_clust_5="13000.00000" pt_clust_6="13000.00000" pt_clust_7="13000.00000" pt_clust_8="13000.00000" pt_clust_9="37.48952"></scales>
<clustering>
<clus scale="   37.490">  2  9  1 -1</clus>
<clus scale="   81.297">  5  6 -1 -1</clus>
<clus scale="   90.794">  7  8 -1 -1</clus>
<clus scale="   97.599">  2  5  1 -1</clus>
<clus scale="  105.641">  1  5  2 -1</clus>
</clustering>
</event>
<event>
 9    2  0.5608219E-005  0.1912881E+03  0.7546771E-02  0.1190827E+00
          2   -1    0    0  502    0  0.00000000000E+00  0.00000000000E+00  0.10678140379E+04  0.10678140379E+04  0.00000000000E+00 0. -1.
         -1   -1    0    0    0  501 -0.00000000000E+00 -0.00000000000E+00 -0.14580063501E+03  0.14580063501E+03  0.00000000000E+00 0.  1.
         24    2    1    2    0    0 -0.77030308121E+01  0.34143582416E+02 -0.44558974713E+02  0.99820439957E+02  0.82179663553E+02 0.  0.
         23    2    1    2    0    0 -0.62649037616E+02 -0.16016424835E+03  0.94857218418E+03  0.96834792415E+03  0.91274450086E+02 0.  0.
        -11    1    3    3    0    0 -0.27034364637E+02  0.50073435473E+02 -0.48114912976E+02  0.74520135951E+02  0.00000000000E+00 0.  1.
         12    1    3    3    0    0  0.19331333825E+02 -0.15929853057E+02  0.35559382628E+01  0.25300304006E+02  0.00000000000E+00 0. -1.
        -11    1    4    4    0    0 -0.17176784227E+02 -0.14008091052E+03  0.77727873176E+03  0.78998729753E+03  0.00000000000E+00 0. -1.
         11    1    4    4    0    0 -0.45472253389E+02 -0.20083337835E+02  0.17129345242E+03  0.17836062662E+03  0.00000000000E+00 0.  1.
         21    1    1    2  502  501  0.70352068428E+02  0.12602066594E+03  0.18000193392E+02  0.14544630878E+03  0.00000000000E+00 0.  1.
<scales pt_clust_5="13000.00000" pt_clust_6="13000.00000" pt_clust_7="13000.00000" pt_clust_8="13000.00000" pt_clust_9="168.10739"></scales>
<clustering>
<clus scale="   82.180">  5  6 -1 -1</clus>
<clus scale="   89.323">  2  5  1 -1</clus>
<clus scale="   91.274">  7  8 -1 -1</clus>
<clus scale="  168.107">  2  9  1 -1</clus>
<clus scale="  191.288">  1  5  2 -1</clus>
</clustering>
</event>
<event>
 9    2  0.5608219E-005  0.3280077E+03  0.7546771E-02  0.1072423E+00
         -1   -1    0    0    0  501 -0.00000000000E+00  0.00000000000E+00  0.17285939810E+03  0.17285939810E+03  0.00000000000E+00 0.  1.
          2   -1    0    0  502    0  0.00000000000E+00 -0.00000000000E+00 -0.13026742652E+04  0.13026742652E+04  0.00000000000E+00 0. -1.
         23    2    1    2    0    0  0.29234540954E+03  0.65360947194E+02 -0.42091549928E+03  0.52246640907E+03  0.77867831456E+02 0.  0.
         24    2    1    2    0    0 -0.30942631248E+03 -0.10299738604E+03 -0.79136815857E+03  0.86082106067E+03  0.91630953946E+02 0.  0.
        -13    1    4    4    0    0 -0.15308066878E+03 -0.26789966498E+02 -0.27405706344E+03  0.31505343592E+03  0.00000000000E+00 0.  1.
         14    1    4    4    0    0 -0.15634564370E+03 -0.76207419546E+02 -0.51731109512E+03  0.54576762476E+03  0.00000000000E+00 0. -1.
        -13    1    3    3    0    0  0.14548571025E+03  0.79319106313E+01 -0.25414981996E+03  0.29295245020E+03  0.00000000000E+00 0.  1.
         13    1    3    3    0    0  0.14685969930E+03  0.57429036562E+02 -0.16676567931E+03  0.22951395887E+03  0.00000000000E+00 0. -1.
         21    1    1    2  502  501  0.17080902935E+02  0.37636438850E+02  0.82468790759E+02  0.92246193545E+02  0.00000000000E+00 0.  1.
<scales pt_clust_5="13000.00000" pt_clust_6="13000.00000" pt_clust_7="13000.00000" pt_clust_8="13000.00000" pt_clust_9="41.33109"></scales>
<clustering>
<clus scale="   41.331">  1  9  2 -1</clus>
<clus scale="   77.868">  7  8 -1 -1</clus>
<clus scale="   91.631">  5  6 -1 -1</clus>
<clus scale="  324.432">  1  7  2 -1</clus>
<clus scale="  328.008">  2  5  1 -1</clus>
</clustering>
</event>
<event>
 9    2  0.5608219E-005  0.1547363E+03  0.7546771E-02  0.1196083E+00
          2   -1    0    0  502    0  0.00000000000E+00  0.00000000000E+00  0.62074743137E+03  0.62074743137E+03  0.00000000000E+00 0. -1.
         -1   -1    0    0    0  501 -0.00000000000E+00 -0.00000000000E+00 -0.56131668924E+02  0.56131668924E+02  0.00000000000E+00 0.  1.
         24    2    1    2    0    0  0.13682835117E+03 -0.65620248835E+02  0.22065214131E+03  0.28020516064E+03  0.82459382990E+02 0.  0.
         23    2    1    2    0    0 -0.10816511551E+03  0.29989962703E+02  0.30215949131E+03  0.33471682836E+03  0.90199262339E+02 0.  0.
        -13    1    3    3    0    0  0.65447360608E+02 -0.75860993862E+02  0.13766748549E+03  0.17026621498E+03  0.00000000000E+00 0.  1.
         14    1    3    3    0    0  0.71380990565E+02  0.10240745028E+02  0.82984655819E+02  0.10993894567E+03  0.00000000000E+00 0. -1.
        -11    1    4    4    0    0 -0.99713330997E+02 -0.34509656429E+01  0.16103627749E+03  0.18943954236E+03  0.00000000000E+00 0. -1.
         11    1    4    4    0    0 -0.84517845142E+01  0.33440928346E+02  0.14112321382E+03  0.14527728600E+03  0.00000000000E+00 0.  1.
         21    1    1    2  502  501 -0.28663235663E+02  0.35630286132E+02  0.41804129824E+02  0.61957111285E+02  0.00000000000E+00 0.  1.
<scales pt_clust_5="13000.00000" pt_clust_6="13000.00000" pt_clust_7="13000.00000" pt_clust_8="13000.00000" pt_clust_9="45.72853"></scales>
<clustering>
<clus scale="   45.729">  2  9  1 -1</clus>
<clus scale="   82.459">  5  6 -1 -1</clus>
<clus scale="   90.199">  7  8 -1 -1</clus>
<clus scale="  150.356">  2  5  1 -1</clus>
<clus scale="  154.736">  1  5  2 -1</clus>
</clustering>
</event>
<event>
 9    2  0.5608219E-005  0.1113686E+03  0.7546771E-02  0.1262078E+00
          2   -1    0    0  502    0  0.00000000000E+00  0.00000000000E+00  0.22653917690E+03  0.22653917690E+03  0.00000000000E+00 0. -1.
         -1   -1    0    0    0  501 -0.00000000000E+00 -0.00000000000E+00 -0.22161192754E+03  0.22161192754E+03  0.00000000000E+00 0.  1.
         23    2    1    2    0    0 -0.11053252270E+02  0.66616089440E+02 -0.57240046354E+02  0.12751673360E+03  0.91783531650E+02 0.  0.
         24    2    1    2    0    0 -0.32039256379E+02 -0.55922567350E+02  0.17272692205E+03  0.20149266240E+03  0.81307170110E+02 0.  0.
        -11    1    4    4    0    0 -0.10445480489E+02  0.20860812779E+02  0.49218409883E+02  0.54467728462E+02  0.00000000000E+00 0.  1.
         12    1    4    4    0    0 -0.21593775889E+02 -0.76783380129E+02  0.12350851217E+03  0.14702493394E+03  0.00000000000E+00 0. -1.
        -11    1    3    3    0    0 -0.11308165589E+02  0.89849480401E+02 -0.48186050626E+02  0.10258020868E+03  0.00000000000E+00 0.  1.
         11    1    3    3    0    0  0.25491331916E+00 -0.23233390961E+02 -0.90539957277E+01  0.24936524918E+02  0.00000000000E+00 0. -1.
         21    1    1    2  502  501  0.43092508649E+02 -0.10693522090E+02 -0.11055962633E+03  0.11914170844E+03  0.00000000000E+00 0.  1.
<scales pt_clust_5="13000.00000" pt_clust_6="13000.00000" pt_clust_7="13000.00000" pt_clust_8="13000.00000" pt_clust_9="44.39950"></scales>
<clustering>
<clus scale="   44.400">  2  9  1 -1</clus>
<clus scale="   81.307">  5  6 -1 -1</clus>
<clus scale="   91.784">  7  8 -1 -1</clus>
<clus scale="  102.906">  1  5  2 -1</clus>
<clus scale="  102.906">  1  5  2 -1</clus>
</clustering>
</event>
<event>
 9    2  0.5608219E-005  0.1569537E+03  0.7546771E-02  0.1193284E+00
         -1   -1    0    0    0  501 -0.00000000000E+00  0.00000000000E+00  0.94689207513E+02  0.94689207513E+02  0.00000000000E+00 0.  1.
          2   -1    0    0  502    0  0.00000000000E+00 -0.00000000000E+00 -0.36559189215E+03  0.36559189215E+03  0.00000000000E+00 0. -1.
         24    2    1    2    0    0 -0.27166288425E+02 -0.12161182335E+03 -0.25255004636E+02  0.15261896651E+03  0.84423283959E+02 0.  0.
         23    2    1    2    0    0  0.43462827473E+01  0.12961575277E+03 -0.22824822643E+03  0.27787024617E+03  0.91079565778E+02 0.  0.
        -13    1    3    3    0    0  0.23146641908E+02 -0.35895167725E+02  0.15163909428E+02  0.45322999093E+02  0.00000000000E+00 0.  1.
         14    1    3    3    0    0 -0.50312930332E+02 -0.85716655625E+02 -0.40418914064E+02  0.10729596742E+03  0.00000000000E+00 0. -1.
        -11    1    4    4    0    0  0.30372576745E+01  0.10357622811E+03 -0.90195746556E+02  0.13737733678E+03  0.00000000000E+00 0.  1.
         11    1    4    4    0    0  0.13090250727E+01  0.26039524652E+02 -0.13805247987E+03  0.14049290939E+03  0.00000000000E+00 0. -1.
         21    1    1    2  502  501  0.22820005677E+02 -0.80039294149E+01 -0.17399453577E+02  0.29791886982E+02  0.00000000000E+00 0. -1.
<scales pt_clust_5="13000.00000" pt_clust_6="13000.00000" pt_clust_7="13000.00000" pt_clust_8="13000.00000" pt_clust_9="24.18296"></scales>
<clustering>
<clus scale="   24.183">  1  9  2 -1</clus>
<clus scale="   84.423">  5  6 -1 -1</clus>
<clus scale="   91.080">  7  8 -1 -1</clus>
<clus scale="  153.187">  1  5  2 -1</clus>
<clus scale="  156.954">  2  5  1 -1</clus>
</clustering>
</event>
<event>
 9    2  0.5608219E-005  0.9050546E+02  0.7546771E-02  0.1306465E+00
         -1   -1    0    0    0  501 -0.00000000000E+00  0.00000000000E+00  0.93453033185E+02  0.93453033185E+02  0.00000000000E+00 0.  1.
          2   -1    0    0  502    0  0.00000000000E+00 -0.00000000000E+00 -0.19531876079E+03  0.19531876079E+03  0.00000000000E+00 0. -1.
         24    2    1    2    0    0  0.46370501408E+02  0.13768941780E+02 -0.10808797101E+02  0.94311700569E+02  0.80237519969E+02 0.  0.
         23    2    1    2    0    0 -0.93993652579E+01 -0.55772162764E+01 -0.11821770991E+03  0.14785883577E+03  0.88132598792E+02 0.  0.
        -13    1    3    3    0    0  0.24881624992E+02  0.32303799828E+02  0.25603307861E+02  0.48147275302E+02  0.00000000000E+00 0.  1.
         14    1    3    3    0    0  0.21488876417E+02 -0.18534858048E+02 -0.36412104962E+02  0.46164425267E+02  0.00000000000E+00 0. -1.
        -11    1    4    4    0    0 -0.17207641628E+02  0.16536022090E+02 -0.12181719839E+03  0.12413288356E+03  0.00000000000E+00 0. -1.
         11    1    4    4    0    0  0.78082763706E+01 -0.22113238366E+02  0.35994884804E+01  0.23725952209E+02  0.00000000000E+00 0.  1.
         21    1    1    2  502  501 -0.36971136151E+02 -0.81917255037E+01  0.27160779409E+02  0.46601257634E+02  0.00000000000E+00 0. -1.
<scales pt_clust_5="13000.00000" pt_clust_6="13000.00000" pt_clust_7="13000.00000" pt_clust_8="13000.00000" pt_clust_9="37.86779"></scales>
<clustering>
<clus scale="   37.868">  1  9  2 -1</clus>
<clus scale="   80.238">  5  6 -1 -1</clus>
<clus scale="   82.837">  1  5  2 -1</clus>
<clus scale="   88.133">  7  8 -1 -1</clus>
<clus scale="   90.505">  2  5  1 -1</clus>
</clustering>
</event>
<event>
 9    2  0.5608219E-005  0.9754871E+02  0.7546771E-02  0.1291353E+00
         -1   -1    0    0    0  501 -0.00000000000E+00  0.00000000000E+00  0.32066809479E+02  0.32066809479E+02  0.00000000000E+00 0.  1.
          2   -1    0    0  502    0  0.00000000000E+00 -0.00000000000E+00 -0.47516426586E+03  0.47516426586E+03  0.00000000000E+00 0. -1.
         23    2    1    2    0    0 -0.14867316507E+02 -0.51355168621E+02 -0.11743813505E+03  0.15865804175E+03  0.92316131874E+02 0.  0.
         24    2    1    2    0    0 -0.78181410526E+01  0.24950985010E+02 -0.26651386151E+03  0.27994362070E+03  0.81578902953E+02 0.  0.
        -11    1    4    4    0    0 -0.78207760717E+01  0.33301863563E+02 -0.37427084295E+02  0.50704687101E+02  0.00000000000E+00 0.  1.
         12    1    4    4    0    0  0.26350191218E-02 -0.83508785531E+01 -0.22908677722E+03  0.22923893359E+03  0.00000000000E+00 0. -1.
        -13    1    3    3    0    0  0.87679301180E+01 -0.22713670759E+02 -0.11902513161E+03  0.12148979131E+03  0.00000000000E+00 0. -1.
         13    1    3    3    0    0 -0.23635246625E+02 -0.28641497862E+02  0.15869965594E+01  0.37168250441E+02  0.00000000000E+00 0.  1.
         21    1    1    2  502  501  0.22685457560E+02  0.26404183611E+02 -0.59145459817E+02  0.68629412891E+02  0.00000000000E+00 0. -1.
<scales pt_clust_5="13000.00000" pt_clust_6="13000.00000" pt_clust_7="13000.00000" pt_clust_8="13000.00000" pt_clust_9="34.81107"></scales>
<clustering>
<clus scale="   34.811">  1  9  2 -1</clus>
<clus scale="   81.579">  5  6 -1 -1</clus>
<clus scale="   87.456">  2  5  1 -1</clus>
<clus scale="   92.316">  7  8 -1 -1</clus>
<clus scale="   87.456">  2  5  1 -1</clus>
</clustering>
</event>
<event>
 9    2  0.5608219E-005  0.1060110E+03  0.7546771E-02  0.1272386E+00
         -1   -1    0    0    0  501 -0.00000000000E+00  0.00000000000E+00  0.24407123264E+03  0.24407123264E+03  0.00000000000E+00 0.  1.
          2   -1    0    0  502    0  0.00000000000E+00 -0.00000000000E+00 -0.28501431341E+03  0.28501431341E+03  0.00000000000E+00 0. -1.
         23    2    1    2    0    0  0.25110714447E+02 -0.74177339968E+02  0.18929460313E+03  0.22355142145E+03  0.89498410678E+02 0.  0.
         24    2    1    2    0    0 -0.97464804169E+01  0.55064172650E+02 -0.25365957160E+03  0.27162309873E+03  0.79428411233E+02 0.  0.
        -13    1    4    4    0    0  0.29342797503E+02  0.12896906271E+02 -0.45415207637E+02  0.55586608472E+02  0.00000000000E+00 0.  1.
         14    1    4    4    0    0 -0.39089277920E+02  0.42167266379E+02 -0.20824436396E+03  0.21603649026E+03  0.00000000000E+00 0. -1.
        -11    1    3    3    0    0 -0.28402465336E+02 -0.23482510774E+02  0.28237745755E+02  0.46427347918E+02  0.00000000000E+00 0. -1.
         11    1    3    3    0    0  0.53513179782E+02 -0.50694829194E+02  0.16105685737E+03  0.17712407353E+03  0.00000000000E+00 0.  1.
         21    1    1    2  502  501 -0.15364234030E+02  0.19113167319E+02  0.23421887695E+02  0.33911025869E+02  0.00000000000E+00 0. -1.
<scales pt_clust_5="13000.00000" pt_clust_6="13000.00000" pt_clust_7="13000.00000" pt_clust_8="13000.00000" pt_clust_9="24.52290"></scales>
<clustering>
<clus scale="   24.523">  1  9  2 -1</clus>
<clus scale="   79.428">  5  6 -1 -1</clus>
<clus scale="   89.498">  7  8 -1 -1</clus>
<clus scale="   97.659">  2  5  1 -1</clus>
<clus scale="   97.659">  2  5  1 -1</clus>
</clustering>
</event>
<event>
 9    2  0.5608219E-005  0.3410834E+03  0.7546771E-02  0.1066528E+00
         -1   -1    0    0    0  501 -0.00000000000E+00  0.00000000000E+00  0.37791526068E+03  0.37791526068E+03  0.00000000000E+00 0.  1.
          2   -1    0    0  502    0  0.00000000000E+00 -0.00000000000E+00 -0.94773328860E+03  0.94773328860E+03  0.00000000000E+00 0. -1.
         24    2    1    2    0    0 -0.66108500612E+01 -0.31074654930E+03  0.25053692451E+03  0.40796087102E+03  0.84001193457E+02 0.  0.
         23    2    1    2    0    0 -0.21986019507E+02  0.32997594998E+03 -0.81307417069E+03  0.88246608570E+03  0.91045443279E+02 0.  0.
        -13    1    3    3    0    0 -0.42927032111E+02 -0.13648780289E+03  0.12675084781E+03  0.19114765980E+03  0.00000000000E+00 0.  1.
         14    1    3    3    0    0  0.36316182050E+02 -0.17425874641E+03  0.12378607670E+03  0.21681321122E+03  0.00000000000E+00 0. -1.
        -11    1    4    4    0    0  0.73201822885E+01  0.28206908788E+03 -0.72542218377E+03  0.77836617354E+03  0.00000000000E+00 0.  1.
         11    1    4    4    0    0 -0.29306201796E+02  0.47906862097E+02 -0.87651986924E+02  0.10409991216E+03  0.00000000000E+00 0. -1.
         21    1    1    2  502  501  0.28596869569E+02 -0.19229400679E+02 -0.72807817367E+01  0.35221592558E+02  0.00000000000E+00 0.  1.
<scales pt_clust_5="13000.00000" pt_clust_6="13000.00000" pt_clust_7="13000.00000" pt_clust_8="13000.00000" pt_clust_9="34.46086"></scales>
<clustering>
<clus scale="   34.461">  1  9  2 -1</clus>
<clus scale="   84.001">  5  6 -1 -1</clus>
<clus scale="   91.045">  7  8 -1 -1</clus>
<clus scale="  339.271">  1  5  2 -1</clus>
<clus scale="  341.083">  2  5  1 -1</clus>
</clustering>
</event>
<event>
 9    2  0.5608219E-005  0.1306734E+03  0.7546771E-02  0.1230230E+00
         -1   -1    0    0    0  501 -0.00000000000E+00  0.00000000000E+00  0.89139784454E+03  0.89139784454E+03  0.00000000000E+00 0.  1.
          2   -1    0    0  502    0  0.00000000000E+00 -0.00000000000E+00 -0.25076045210E+02  0.25076045210E+02  0.00000000000E+00 0. -1.
         23    2    1    2    0    0  0.98153629592E+02 -0.56212490460E+02  0.38702417272E+03  0.41361826636E+03  0.92186663427E+02 0.  0.
         24    2    1    2    0    0 -0.71635286971E+02  0.29233594201E+02  0.29482594332E+03  0.31454501489E+03  0.77653152958E+02 0.  0.
        -13    1    4    4    0    0 -0.66065267931E+02  0.20439411679E+02  0.29609011965E+03  0.30405879059E+03  0.00000000000E+00 0.  1.
         14    1    4    4    0    0 -0.55700190393E+01  0.87941825218E+01 -0.12641763280E+01  0.10486224302E+02  0.00000000000E+00 0. -1.
        -11    1    3    3    0    0  0.87310208805E+02 -0.77407982210E+01  0.30844086251E+03  0.32065364209E+03  0.00000000000E+00 0.  1.
         11    1    3    3    0    0  0.10843420787E+02 -0.48471692239E+02  0.78583310207E+02  0.92964624272E+02  0.00000000000E+00 0. -1.
         21    1    1    2  502  501 -0.26518342622E+02  0.26978896260E+02  0.18447168329E+03  0.18831060850E+03  0.00000000000E+00 0. -1.
<scales pt_clust_5="13000.00000" pt_clust_6="13000.00000" pt_clust_7="13000.00000" pt_clust_8="13000.00000" pt_clust_9="37.82966"></scales>
<clustering>
<clus scale="   37.830">  1  9  2 -1</clus>
<clus scale="   77.653">  5  6 -1 -1</clus>
<clus scale="   92.187">  7  8 -1 -1</clus>
<clus scale="  120.860">  2  5  1 -1</clus>
<clus scale="  120.860">  2  5  1 -1</clus>
</clustering>
</event>
<event>
 9    2  0.5608219E-005  0.1177501E+03  0.7546771E-02  0.1250557E+00
         -1   -1    0    0    0  501 -0.00000000000E+00  0.00000000000E+00  0.11921172475E+03  0.11921172475E+03  0.00000000000E+00 0.  1.
          2   -1    0    0  502    0  0.00000000000E+00 -0.00000000000E+00 -0.62141915830E+03  0.62141915830E+03  0.00000000000E+00 0. -1.
         24    2    1    2    0    0 -0.58420404013E+01  0.23192443725E+02 -0.33367039540E+02  0.90467989788E+02  0.80616865274E+02 0.  0.
         23    2    1    2    0    0  0.44309014422E+02 -0.74702177407E+02 -0.53981890991E+03  0.55439802250E+03  0.91700642241E+02 0.  0.
        -11    1    3    3    0    0  0.20574016196E+02  0.26753077637E+02  0.13662594612E+02  0.36409940910E+02  0.00000000000E+00 0.  1.
         12    1    3    3    0    0 -0.26416056597E+02 -0.35606339124E+01 -0.47029634152E+02  0.54058048878E+02  0.00000000000E+00 0. -1.
        -13    1    4    4    0    0  0.38728272421E+02  0.98088557249E+01 -0.13368568789E+03  0.13952761692E+03  0.00000000000E+00 0.  1.
         13    1    4    4    0    0  0.55807420012E+01 -0.84511033132E+02 -0.40613322201E+03  0.41487040558E+03  0.00000000000E+00 0. -1.
         21    1    1    2  502  501 -0.38466974021E+02  0.51509733682E+02  0.70978515896E+02  0.95764870767E+02  0.00000000000E+00 0.  1.
<scales pt_clust_5="13000.00000" pt_clust_6="13000.00000" pt_clust_7="13000.00000" pt_clust_8="13000.00000" pt_clust_9="64.28811"></scales>
<clustering>
<clus scale="   64.288">  1  9  2 -1</clus>
<clus scale="   80.617">  5  6 -1 -1</clus>
<clus scale="   91.701">  7  8 -1 -1</clus>
<clus scale="  109.340">  1  5  2 -1</clus>
<clus scale="  117.750">  2  5  1 -1</clus>
</clustering>
</event>
<event>
 9    2  0.5608219E-005  0.1284314E+03  0.7546771E-02  0.1247384E+00
         -1   -1    0    0    0  501 -0.00000000000E+00  0.00000000000E+00  0.20022056269E+02  0.20022056269E+02  0.00000000000E+00 0.  1.
          2   -1    0    0  502    0  0.00000000000E+00 -0.00000000000E+00 -0.13250903467E+04  0.13250903467E+04  0.00000000000E+00 0. -1.
         23    2    1    2    0    0  0.48956197259E+02 -0.37750307057E+02 -0.52035854734E+03  0.53827562860E+03  0.12306843468E+03 0.  0.
         24    2    1    2    0    0 -0.18228080081E+02  0.23964822488E+02 -0.76017105977E+03  0.76516659620E+03  0.81934755749E+02 0.  0.
        -13    1    4    4    0    0 -0.43546690960E+02  0.15103137417E+02 -0.24501349545E+03  0.24931111489E+03  0.00000000000E+00 0.  1.
         14    1    4    4    0    0  0.25318610879E+02  0.88616850714E+01 -0.51515756433E+03  0.51585548131E+03  0.00000000000E+00 0. -1.
        -11    1    3    3    0    0 -0.34902362505E+02 -0.40861029581E+02 -0.21148162947E+03  0.21820237911E+03  0.00000000000E+00 0.  1.
         11    1    3    3    0    0  0.83858559764E+02  0.31107225241E+01 -0.30887691787E+03  0.32007324948E+03  0.00000000000E+00 0. -1.
         21    1    1    2  502  501 -0.30728117178E+02  0.13785484569E+02 -0.24538683306E+02  0.41670178167E+02  0.00000000000E+00 0.  1.
<scales pt_clust_5="13000.00000" pt_clust_6="13000.00000" pt_clust_7="13000.00000" pt_clust_8="13000.00000" pt_clust_9="33.67873"></scales>
<clustering>
<clus scale="   33.679">  1  9  2 -1</clus>
<clus scale="   81.935">  5  6 -1 -1</clus>
<clus scale="   89.789">  2  5  1 -1</clus>
<clus scale="  123.068">  7  8 -1 -1</clus>
<clus scale="   89.789">  2  5  1 -1</clus>
</clustering>
</event>
<event>
 9    2  0.5608219E-005  0.3444464E+03  0.7546771E-02  0.1065081E+00
         -1   -1    0    0    0  501 -0.00000000000E+00  0.00000000000E+00  0.28900218709E+03  0.28900218709E+03  0.00000000000E+00 0.  1.
          2   -1    0    0  502    0  0.00000000000E+00 -0.00000000000E+00 -0.10768558137E+04  0.10768558137E+04  0.00000000000E+00 0. -1.
         23    2    1    2    0    0 -0.32902198103E+03  0.24196480059E+01  0.56458966140E+02  0.34543278045E+03  0.88740476963E+02 0.  0.
         24    2    1    2    0    0  0.33029250201E+03  0.49478322691E+02 -0.88816971824E+03  0.95246596010E+03  0.82490699186E+02 0.  0.
        -11    1    4    4    0    0  0.80241399868E+02 -0.59555419588E+01 -0.13758117891E+03  0.15938234382E+03  0.00000000000E+00 0.  1.
         12    1    4    4    0    0  0.25005110215E+03  0.55433864650E+02 -0.75058853933E+03  0.79308361628E+03  0.00000000000E+00 0. -1.
        -11    1    3    3    0    0 -0.13672399096E+03 -0.83274679487E+01 -0.19576102895E+02  0.13836914480E+03  0.00000000000E+00 0. -1.
         11    1    3    3    0    0 -0.19229799007E+03  0.10747115955E+02  0.76035069034E+02  0.20706363565E+03  0.00000000000E+00 0.  1.
         21    1    1    2  502  501 -0.12705209846E+01 -0.51897970697E+02  0.43857125540E+02  0.67959260198E+02  0.00000000000E+00 0.  1.
<scales pt_clust_5="13000.00000" pt_clust_6="13000.00000" pt_clust_7="13000.00000" pt_clust_8="13000.00000" pt_clust_9="51.91352"></scales>
<clustering>
<clus scale="   51.914">  1  9  2 -1</clus>
<clus scale="   82.491">  5  6 -1 -1</clus>
<clus scale="   88.740">  7  8 -1 -1</clus>
<clus scale="  342.889">  2  5  1 -1</clus>
<clus scale="  342.889">  2  5  1 -1</clus>
</clustering>
</event>
<event>
 9    2  0.5608219E-005  0.1122865E+03  0.7546771E-02  0.1271140E+00
          2   -1    0    0  502    0  0.00000000000E+00  0.00000000000E+00  0.47455659614E+03  0.47455659614E+03  0.00000000000E+00 0. -1.
         -1   -1    0    0    0  501 -0.00000000000E+00 -0.00000000000E+00 -0.40989000239E+02  0.40989000239E+02  0.00000000000E+00 0.  1.
         23    2    1    2    0    0  0.91180912662E+01  0.37553807035E+02  0.78894170151E+02  0.14073196035E+03  0.10994437944E+03 0.  0.
         24    2    1    2    0    0 -0.10438443430E+02 -0.17567819178E+02  0.33964021159E+03  0.34977006263E+03  0.81031068181E+02 0.  0.
        -11    1    4    4    0    0  0.27161215635E+02 -0.32822526152E+02  0.15708528498E+03  0.16276005841E+03  0.00000000000E+00 0.  1.
         12    1    4    4    0    0 -0.37599659065E+02  0.15254706974E+02  0.18255492661E+03  0.18701000422E+03  0.00000000000E+00 0. -1.
        -13    1    3    3    0    0 -0.48640775227E+02  0.77458959844E+01  0.20475663489E+02  0.53340197925E+02  0.00000000000E+00 0. -1.
         13    1    3    3    0    0  0.57758866493E+02  0.29807911051E+02  0.58418506662E+02  0.87391762429E+02  0.00000000000E+00 0.  1.
         21    1    1    2  502  501  0.13203521636E+01 -0.19985987857E+02  0.15033214159E+02  0.25043573395E+02  0.00000000000E+00 0. -1.
<scales pt_clust_5="13000.00000" pt_clust_6="13000.00000" pt_clust_7="13000.00000" pt_clust_8="13000.00000" pt_clust_9="20.02955"></scales>
<clustering>
<clus scale="   20.030">  2  9  1 -1</clus>
<clus scale="   81.031">  5  6 -1 -1</clus>
<clus scale="   84.182">  1  5  2 -1</clus>
<clus scale="  109.944">  7  8 -1 -1</clus>
<clus scale="   84.182">  1  5  2 -1</clus>
</clustering>
</event>
<event>
 9    2  0.5608219E-005  0.1122737E+03  0.7546771E-02  0.1260876E+00
         -1   -1    0    0    0  501 -0.00000000000E+00  0.00000000000E+00  0.63787055302E+02  0.63787055302E+02  0.00000000000E+00 0.  1.
          2   -1    0    0  502    0  0.00000000000E+00 -0.00000000000E+00 -0.31269775529E+03  0.31269775529E+03  0.00000000000E+00 0. -1.
         24    2    1    2    0    0 -0.17590252065E+02 -0.51841610675E+02 -0.47126200047E+02  0.10864073272E+03  0.81147769591E+02 0.  0.
         23    2    1    2    0    0 -0.86944673750E+01  0.68741622582E+02 -0.20597935506E+03  0.23631482657E+03  0.92823478205E+02 0.  0.
        -13    1    3    3    0    0 -0.35857812693E+01 -0.66470775321E+02 -0.11346979176E+02  0.67527592401E+02  0.00000000000E+00 0.  1.
         14    1    3    3    0    0 -0.14004470796E+02  0.14629164646E+02 -0.35779220872E+02  0.41113140317E+02  0.00000000000E+00 0. -1.
        -13    1    4    4    0    0  0.20106265845E+02 -0.81880222088E+01 -0.10170797785E+02  0.23973960072E+02  0.00000000000E+00 0.  1.
         13    1    4    4    0    0 -0.28800733221E+02  0.76929644791E+02 -0.19580855728E+03  0.21234086650E+03  0.00000000000E+00 0. -1.
         21    1    1    2  502  501  0.26284719440E+02 -0.16900011908E+02  0.41948551191E+01  0.31529251308E+02  0.00000000000E+00 0.  1.
<scales pt_clust_5="13000.00000" pt_clust_6="13000.00000" pt_clust_7="13000.00000" pt_clust_8="13000.00000" pt_clust_9="31.24895"></scales>
<clustering>
<clus scale="   31.249">  1  9  2 -1</clus>
<clus scale="   81.148">  5  6 -1 -1</clus>
<clus scale="   92.823">  7  8 -1 -1</clus>
<clus scale="  102.831">  1  5  2 -1</clus>
<clus scale="  112.274">  2  5  1 -1</clus>
</clustering>
</event>
<event>
 9    2  0.5608219E-005  0.1030741E+03  0.7546771E-02  0.1279068E+00
         -1   -1    0    0    0  501 -0.00000000000E+00  0.00000000000E+00  0.48407450898E+02  0.48407450898E+02  0.00000000000E+00 0.  1.
          2   -1    0    0  502    0  0.00000000000E+00 -0.00000000000E+00 -0.61858193690E+03  0.61858193690E+03  0.00000000000E+00 0. -1.
         23    2    1    2    0    0  0.10943923563E+02 -0.55871909266E+02 -0.78854262301E+02  0.13347980681E+03  0.91418950089E+02 0.  0.
         24    2    1    2    0    0 -0.24477655794E+02  0.39691446443E+02 -0.50152839635E+03  0.51007507493E+03  0.80444286080E+02 0.  0.
        -11    1    4    4    0    0 -0.47496286734E+02  0.25543539434E+02 -0.19382525695E+03  0.20118797154E+03  0.00000000000E+00 0.  1.
         12    1    4    4    0    0  0.23018630940E+02  0.14147907009E+02 -0.30770313939E+03  0.30888710338E+03  0.00000000000E+00 0. -1.
        -11    1    3    3    0    0 -0.34003937440E+02 -0.11720418689E+02 -0.55803580308E+02  0.66390327239E+02  0.00000000000E+00 0.  1.
         11    1    3    3    0    0  0.44947861004E+02 -0.44151490577E+02 -0.23050681993E+02  0.67089479573E+02  0.00000000000E+00 0. -1.
         21    1    1    2  502  501  0.13533732231E+02  0.16180462823E+02  0.10208172651E+02  0.23434506057E+02  0.00000000000E+00 0.  1.
<scales pt_clust_5="13000.00000" pt_clust_6="13000.00000" pt_clust_7="13000.00000" pt_clust_8="13000.00000" pt_clust_9="21.09430"></scales>
<clustering>
<clus scale="   21.094">  1  9  2 -1</clus>
<clus scale="   80.444">  5  6 -1 -1</clus>
<clus scale="   91.419">  7  8 -1 -1</clus>
<clus scale="   93.478">  2  5  1 -1</clus>
<clus scale="   93.478">  2  5  1 -1</clus>
</clustering>
</event>
<event>
 9    2  0.5608219E-005  0.9296902E+02  0.7546771E-02  0.1303459E+00
         -1   -1    0    0    0  501 -0.00000000000E+00  0.00000000000E+00  0.39319206965E+02  0.39319206965E+02  0.00000000000E+00 0.  1.
          2   -1    0    0  502    0  0.00000000000E+00 -0.00000000000E+00 -0.50268471363E+03  0.50268471363E+03  0.00000000000E+00 0. -1.
         24    2    1    2    0    0  0.37796474041E+00 -0.88715869449E+01 -0.20373762102E+02  0.82930703795E+02  0.79897206067E+02 0.  0.
         23    2    1    2    0    0 -0.14257395983E+01  0.29087903576E+02 -0.31577801196E+03  0.33025888897E+03  0.92233627498E+02 0.  0.
        -11    1    3    3    0    0 -0.13014211944E+01  0.24525876330E+02  0.19160838310E+02  0.31150441917E+02  0.00000000000E+00 0.  1.
         12    1    3    3    0    0  0.16793859349E+01 -0.33397463275E+02 -0.39534600412E+02  0.51780261877E+02  0.00000000000E+00 0. -1.
        -11    1    4    4    0    0 -0.44597206391E+02  0.14296634373E+01 -0.16866910449E+03  0.17447126287E+03  0.00000000000E+00 0.  1.
         11    1    4    4    0    0  0.43171466793E+02  0.27658240138E+02 -0.14710890747E+03  0.15578762611E+03  0.00000000000E+00 0. -1.
         21    1    1    2  502  501  0.10477748579E+01 -0.20216316631E+02 -0.12721373260E+03  0.12881432783E+03  0.00000000000E+00 0.  1.
<scales pt_clust_5="13000.00000" pt_clust_6="13000.00000" pt_clust_7="13000.00000" pt_clust_8="13000.00000" pt_clust_9="20.24345"></scales>
<clustering>
<clus scale="   20.243">  2  9  1 -1</clus>
<clus scale="   79.897">  5  6 -1 -1</clus>
<clus scale="   80.745">  1  5  2 -1</clus>
<clus scale="   92.234">  7  8 -1 -1</clus>
<clus scale="   20.243">  2  5  1 -1</clus>
</clustering>
</event>
<event>
 9    2  0.5608219E-005  0.1215095E+03  0.7546771E-02  0.1243443E+00
          2   -1    0    0  502    0  0.00000000000E+00  0.00000000000E+00  0.28930761319E+03  0.28930761319E+03  0.00000000000E+00 0. -1.
         -1   -1    0    0    0  501 -0.00000000000E+00 -0.00000000000E+00 -0.23954435070E+03  0.23954435070E+03  0.00000000000E+00 0.  1.
         23    2    1    2    0    0  0.50870402377E+02 -0.64206453310E+02 -0.20279524897E+03  0.23677591264E+03  0.90700900307E+02 0.  0.
         24    2    1    2    0    0 -0.26186159243E+02  0.61985211185E+02  0.24393479988E+03  0.26583459212E+03  0.81461416849E+02 0.  0.
        -13    1    4    4    0    0 -0.41902163764E+02  0.77512351394E+01  0.15275036634E+03  0.15858293537E+03  0.00000000000E+00 0.  1.
         14    1    4    4    0    0  0.15716004521E+02  0.54233976045E+02  0.91184433543E+02  0.10725165675E+03  0.00000000000E+00 0. -1.
        -13    1    3    3    0    0  0.49781325268E+02 -0.12160596941E+02 -0.16409180513E+03  0.17190747795E+03  0.00000000000E+00 0.  1.
         13    1    3    3    0    0  0.10890771084E+01 -0.52045856369E+02 -0.38703443837E+02  0.64868434689E+02  0.00000000000E+00 0. -1.
         21    1    1    2  502  501 -0.24684243134E+02  0.22212421260E+01  0.86237115724E+01  0.26241459124E+02  0.00000000000E+00 0. -1.
<scales pt_clust_5="13000.00000" pt_clust_6="13000.00000" pt_clust_7="13000.00000" pt_clust_8="13000.00000" pt_clust_9="24.78398"></scales>
<clustering>
<clus scale="   24.784">  1  9  2 -1</clus>
<clus scale="   81.461">  5  6 -1 -1</clus>
<clus scale="   90.701">  7  8 -1 -1</clus>
<clus scale="  114.777">  1  5  2 -1</clus>
<clus scale="   24.784">  1  5  2 -1</clus>
</clustering>
</event>
<event>
 9    2  0.5608219E-005  0.9985234E+02  0.7546771E-02  0.1286939E+00
         -1   -1    0    0    0  501 -0.00000000000E+00  0.00000000000E+00  0.19120733800E+03  0.19120733800E+03  0.00000000000E+00 0.  1.
          2   -1    0    0  502    0  0.00000000000E+00 -0.00000000000E+00 -0.10467561206E+03  0.10467561206E+03  0.00000000000E+00 0. -1.
         23    2    1    2    0    0 -0.20334575138E+02  0.22508585869E+02  0.62275002349E+02  0.11572814757E+03  0.92707587812E+02 0.  0.
         24    2    1    2    0    0  0.59469601100E+01 -0.39919705955E+02 -0.49711701425E+02  0.10281478395E+03  0.80440520146E+02 0.  0.
        -13    1    4    4    0    0 -0.28406920984E+02 -0.24860034998E+02  0.32798794348E+01  0.37891055791E+02  0.00000000000E+00 0.  1.
         14    1    4    4    0    0  0.34353881094E+02 -0.15059670957E+02 -0.52991580860E+02  0.64923728155E+02  0.00000000000E+00 0. -1.
        -11    1    3    3    0    0 -0.50002579555E+02  0.11788035362E+02  0.66784693516E+01  0.51805575884E+02  0.00000000000E+00 0.  1.
         11    1    3    3    0    0  0.29668004417E+02  0.10720550508E+02  0.55596532997E+02  0.63922571683E+02  0.00000000000E+00 0. -1.
         21    1    1    2  502  501  0.14387615028E+02  0.17411120085E+02  0.73968425014E+02  0.77340018541E+02  0.00000000000E+00 0.  1.
<scales pt_clust_5="13000.00000" pt_clust_6="13000.00000" pt_clust_7="13000.00000" pt_clust_8="13000.00000" pt_clust_9="22.58651"></scales>
<clustering>
<clus scale="   22.587">  1  9  2 -1</clus>
<clus scale="   80.441">  5  6 -1 -1</clus>
<clus scale="   88.580">  2  5  1 -1</clus>
<clus scale="   92.708">  7  8 -1 -1</clus>
<clus scale="   88.580">  2  5  1 -1</clus>
</clustering>
</event>
<event>
 9    2  0.5608219E-005  0.1650501E+03  0.7546771E-02  0.1184449E+00
         -1   -1    0    0    0  501 -0.00000000000E+00  0.00000000000E+00  0.12539693151E+03  0.12539693151E+03  0.00000000000E+00 0.  1.
          2   -1    0    0  502    0  0.00000000000E+00 -0.00000000000E+00 -0.49520303395E+03  0.49520303395E+03  0.00000000000E+00 0. -1.
         24    2    1    2    0    0 -0.77735034414E+02  0.13694338349E+03 -0.95471605579E+02  0.20091212845E+03  0.80340712153E+02 0.  0.
         23    2    1    2    0    0  0.70946938417E+02 -0.11131866167E+03 -0.32525153812E+03  0.36228357143E+03  0.89641009442E+02 0.  0.
        -11    1    3    3    0    0 -0.59559859673E+02  0.98828346696E+02 -0.23938035568E+02  0.11784501916E+03  0.00000000000E+00 0.  1.
         12    1    3    3    0    0 -0.18175174741E+02  0.38115036798E+02 -0.71533570011E+02  0.83067109288E+02  0.00000000000E+00 0. -1.
        -11    1    4    4    0    0  0.48453587461E+02 -0.37253523359E+01 -0.81397532462E+02  0.94800773619E+02  0.00000000000E+00 0.  1.
         11    1    4    4    0    0  0.22493350956E+02 -0.10759330934E+03 -0.24385400566E+03  0.26748279781E+03  0.00000000000E+00 0. -1.
         21    1    1    2  502  501  0.67880959976E+01 -0.25624721822E+02  0.50917041255E+02  0.57404265572E+02  0.00000000000E+00 0.  1.
<scales pt_clust_5="13000.00000" pt_clust_6="13000.00000" pt_clust_7="13000.00000" pt_clust_8="13000.00000" pt_clust_9="26.50858"></scales>
<clustering>
<clus scale="   26.509">  1  9  2 -1</clus>
<clus scale="   80.341">  5  6 -1 -1</clus>
<clus scale="   89.641">  7  8 -1 -1</clus>
<clus scale="  160.189">  1  5  2 -1</clus>
<clus scale="  165.050">  2  5  1 -1</clus>
</clustering>
</event>
<event>
 9    2  0.5608219E-005  0.1182468E+03  0.7546771E-02  0.1249387E+00
         -1   -1    0    0    0  501 -0.00000000000E+00  0.00000000000E+00  0.94829306328E+02  0.94829306328E+02  0.00000000000E+00 0.  1.
          2   -1    0    0  502    0  0.00000000000E+00 -0.00000000000E+00 -0.39518515847E+03  0.39518515847E+03  0.00000000000E+00 0. -1.
         23    2    1    2    0    0  0.49607449580E+02 -0.37391425665E+01  0.31770925714E+02  0.10777432037E+03  0.90172236130E+02 0.  0.
         24    2    1    2    0    0 -0.68831775195E+02 -0.44435393988E+02 -0.30042292584E+03  0.32144956210E+03  0.79771981863E+02 0.  0.
        -13    1    4    4    0    0  0.76868163056E+01 -0.22083241696E+02 -0.22992606777E+02  0.32793546242E+02  0.00000000000E+00 0.  1.
         14    1    4    4    0    0 -0.76518591500E+02 -0.22352152292E+02 -0.27743031906E+03  0.28865601586E+03  0.00000000000E+00 0. -1.
        -11    1    3    3    0    0  0.38801324997E+02  0.40745095215E+02  0.24724042973E+02  0.61457171319E+02  0.00000000000E+00 0.  1.
         11    1    3    3    0    0  0.10806124583E+02 -0.44484237781E+02  0.70468827412E+01  0.46317149047E+02  0.00000000000E+00 0. -1.
         21    1    1    2  502  501  0.19224325615E+02  0.48174536554E+02 -0.31703852021E+02  0.60790582334E+02  0.00000000000E+00 0. -1.
<scales pt_clust_5="13000.00000" pt_clust_6="13000.00000" pt_clust_7="13000.00000" pt_clust_8="13000.00000" pt_clust_9="51.86869"></scales>
<clustering>
<clus scale="   51.869">  1  9  2 -1</clus>
<clus scale="   79.772">  5  6 -1 -1</clus>
<clus scale="   90.172">  7  8 -1 -1</clus>
<clus scale="  110.521">  2  5  1 -1</clus>
<clus scale="  110.521">  2  5  1 -1</clus>
</clustering>
</event>
<event>
 9    2  0.5608219E-005  0.9688902E+02  0.7546771E-02  0.1292285E+00
          2   -1    0    0  502    0  0.00000000000E+00  0.00000000000E+00  0.12299026347E+03  0.12299026347E+03  0.00000000000E+00 0. -1.
         -1   -1    0    0    0  501 -0.00000000000E+00 -0.00000000000E+00 -0.24866796607E+03  0.24866796607E+03  0.00000000000E+00 0.  1.
         24    2    1    2    0    0 -0.99005199886E+01  0.21098874478E+02 -0.91640576146E+02  0.12482853676E+03  0.81492242535E+02 0.  0.
         23    2    1    2    0    0 -0.37130538018E+02 -0.14321703658E+02  0.77109052370E+02  0.12595238502E+03  0.91292985965E+02 0.  0.
        -11    1    3    3    0    0  0.28070516720E+02  0.31278034610E+02 -0.64772245261E+02  0.77212130615E+02  0.00000000000E+00 0.  1.
         12    1    3    3    0    0 -0.37971036709E+02 -0.10179160132E+02 -0.26868330885E+02  0.47616406146E+02  0.00000000000E+00 0. -1.
        -13    1    4    4    0    0 -0.11629323634E+02 -0.26879858062E+02  0.90069449877E+02  0.94711529070E+02  0.00000000000E+00 0. -1.
         13    1    4    4    0    0 -0.25501214385E+02  0.12558154404E+02 -0.12960397508E+02  0.31240855953E+02  0.00000000000E+00 0.  1.
         21    1    1    2  502  501  0.47031058007E+02 -0.67771708205E+01 -0.11114617883E+03  0.12087730776E+03  0.00000000000E+00 0.  1.
<scales pt_clust_5="13000.00000" pt_clust_6="13000.00000" pt_clust_7="13000.00000" pt_clust_8="13000.00000" pt_clust_9="47.51684"></scales>
<clustering>
<clus scale="   47.517">  2  9  1 -1</clus>
<clus scale="   81.492">  5  6 -1 -1</clus>
<clus scale="   87.716">  2  5  1 -1</clus>
<clus scale="   91.293">  7  8 -1 -1</clus>
<clus scale="   96.889">  1  5  2 -1</clus>
</clustering>
</event>
<event>
 9    2  0.5608219E-005  0.1023606E+03  0.7546771E-02  0.1277313E+00
          4   -1    0    0  502    0  0.00000000000E+00  0.00000000000E+00  0.28453029358E+03  0.28453029358E+03  0.00000000000E+00 0. -1.
         -3   -1    0    0    0  501 -0.00000000000E+00 -0.00000000000E+00 -0.15015674456E+03  0.15015674456E+03  0.00000000000E+00 0.  1.
         23    2    1    2    0    0  0.30688765203E+02  0.19543055751E+02 -0.71635956677E+02  0.11846854779E+03  0.87059492232E+02 0.  0.
         24    2    1    2    0    0 -0.55618980229E+02 -0.63001292351E+01  0.24701040028E+03  0.26643933729E+03  0.82720130673E+02 0.  0.
        -13    1    4    4    0    0 -0.40296114975E+02  0.49848898501E+00  0.33874167942E+02  0.52644891748E+02  0.00000000000E+00 0.  1.
         14    1    4    4    0    0 -0.15322865254E+02 -0.67986182201E+01  0.21313623234E+03  0.21379444554E+03  0.00000000000E+00 0. -1.
        -11    1    3    3    0    0  0.40072207370E+02 -0.17229712991E+02 -0.79582387911E+01  0.44339354731E+02  0.00000000000E+00 0.  1.
         11    1    3    3    0    0 -0.93834421674E+01  0.36772768742E+02 -0.63677717886E+02  0.74129193055E+02  0.00000000000E+00 0. -1.
         21    1    1    2  502  501  0.24930215026E+02 -0.13242926516E+02 -0.41000894584E+02  0.49779153072E+02  0.00000000000E+00 0. -1.
<scales pt_clust_5="13000.00000" pt_clust_6="13000.00000" pt_clust_7="13000.00000" pt_clust_8="13000.00000" pt_clust_9="28.22925"></scales>
<clustering>
<clus scale="   28.229">  2  9  1 -1</clus>
<clus scale="   82.720">  5  6 -1 -1</clus>
<clus scale="   87.059">  7  8 -1 -1</clus>
<clus scale="   98.696">  1  5  2 -1</clus>
<clus scale="   98.696">  1  5  2 -1</clus>
</clustering>
</event>
<event>
 9    2  0.5608219E-005  0.9399700E+02  0.7546771E-02  0.1298805E+00
         -1   -1    0    0    0  501 -0.00000000000E+00  0.00000000000E+00  0.13703036763E+03  0.13703036763E+03  0.00000000000E+00 0.  1.
          2   -1    0    0  502    0  0.00000000000E+00 -0.00000000000E+00 -0.10259125382E+03  0.10259125382E+03  0.00000000000E+00 0. -1.
         23    2    1    2    0    0  0.20599629883E+02 -0.48609240134E+01  0.65192459181E+02  0.11293327253E+03  0.89754632060E+02 0.  0.
         24    2    1    2    0    0 -0.47444665318E+02 -0.20332177538E+00 -0.33605963069E+02  0.99221278803E+02  0.80401889323E+02 0.  0.
        -13    1    4    4    0    0 -0.36624015889E+02  0.36029951770E+02 -0.46347819535E+01  0.51584466345E+02  0.00000000000E+00 0.  1.
         14    1    4    4    0    0 -0.10820649429E+02 -0.36233273545E+02 -0.28971181116E+02  0.47636812458E+02  0.00000000000E+00 0. -1.
        -11    1    3    3    0    0 -0.10994566640E+01  0.40660872424E+02  0.37882593616E+02  0.55584226633E+02  0.00000000000E+00 0.  1.
         11    1    3    3    0    0  0.21699086547E+02 -0.45521796438E+02  0.27309865565E+02  0.57349045895E+02  0.00000000000E+00 0. -1.
         21    1    1    2  502  501  0.26845035435E+02  0.50642457888E+01  0.28526176972E+01  0.27467070114E+02  0.00000000000E+00 0. -1.
<scales pt_clust_5="13000.00000" pt_clust_6="13000.00000" pt_clust_7="13000.00000" pt_clust_8="13000.00000" pt_clust_9="27.31854"></scales>
<clustering>
<clus scale="   27.319">  2  9  1 -1</clus>
<clus scale="   80.402">  5  6 -1 -1</clus>
<clus scale="   85.112">  2  5  1 -1</clus>
<clus scale="   89.755">  7  8 -1 -1</clus>
<clus scale="   27.319">  2  5  1 -1</clus>
</clustering>
</event>
<event>
 9    2  0.5608219E-005  0.3087460E+03  0.7546771E-02  0.1082042E+00
         -1   -1    0    0    0  501 -0.00000000000E+00  0.00000000000E+00  0.90660053894E+02  0.90660053894E+02  0.00000000000E+00 0.  1.
          2   -1    0    0  502    0  0.00000000000E+00 -0.00000000000E+00 -0.20396461356E+04  0.20396461356E+04  0.00000000000E+00 0. -1.
         23    2    1    2    0    0  0.18550149079E+03  0.18195716524E+02 -0.18059680143E+03  0.28151540153E+03  0.10905883469E+03 0.  0.
         24    2    1    2    0    0 -0.31376053031E+03 -0.89994609159E+02 -0.15466386614E+04  0.15827479358E+04  0.80344130902E+02 0.  0.
        -13    1    4    4    0    0 -0.99255571217E+02 -0.25408413684E+02 -0.32592771730E+03  0.34165206396E+03  0.00000000000E+00 0.  1.
         14    1    4    4    0    0 -0.21450495909E+03 -0.64586195475E+02 -0.12207109441E+04  0.12410958718E+04  0.00000000000E+00 0. -1.
        -13    1    3    3    0    0  0.55615858346E+02  0.38596723063E+02 -0.13730188197E+02  0.69074950588E+02  0.00000000000E+00 0.  1.
         13    1    3    3    0    0  0.12988563244E+03 -0.20401006539E+02 -0.16686661323E+03  0.21244045094E+03  0.00000000000E+00 0. -1.
         21    1    1    2  502  501  0.12825903952E+03  0.71798892635E+02 -0.22175061886E+03  0.26604285213E+03  0.00000000000E+00 0.  1.
<scales pt_clust_5="13000.00000" pt_clust_6="13000.00000" pt_clust_7="13000.00000" pt_clust_8="13000.00000" pt_clust_9="146.98797"></scales>
<clustering>
<clus scale="   80.344">  5  6 -1 -1</clus>
<clus scale="  109.059">  7  8 -1 -1</clus>
<clus scale="  146.988">  1  9  2 -1</clus>
<clus scale="  299.809">  2  5  1 -1</clus>
<clus scale="  299.809">  2  5  1 -1</clus>
</clustering>
</event>
<event>
 9    2  0.5608219E-005  0.9856271E+02  0.7546771E-02  0.1289289E+00
         -1   -1    0    0    0  501 -0.00000000000E+00  0.00000000000E+00  0.44772791600E+02  0.44772791600E+02  0.00000000000E+00 0.  1.
          2   -1    0    0  502    0  0.00000000000E+00 -0.00000000000E+00 -0.44883238748E+03  0.44883238748E+03  0.00000000000E+00 0. -1.
         23    2    1    2    0    0 -0.78539448782E+01 -0.22982523551E+01 -0.35255063394E+02  0.97668702942E+02  0.90715432124E+02 0.  0.
         24    2    1    2    0    0  0.35839204114E+02 -0.28091946529E+02 -0.31563981161E+03  0.32860723681E+03  0.79250358976E+02 0.  0.
        -13    1    4    4    0    0 -0.12524643373E+02 -0.35412034166E+02 -0.86479086044E+02  0.94284204289E+02  0.00000000000E+00 0.  1.
         14    1    4    4    0    0  0.48363847486E+02  0.73200876375E+01 -0.22916072557E+03  0.23432303252E+03  0.00000000000E+00 0. -1.
        -13    1    3    3    0    0 -0.56349022593E+01  0.36633397565E+02  0.95461782125E+01  0.38273848240E+02  0.00000000000E+00 0.  1.
         13    1    3    3    0    0 -0.22190426190E+01 -0.38931649920E+02 -0.44801241606E+02  0.59394854702E+02  0.00000000000E+00 0. -1.
         21    1    1    2  502  501 -0.27985259235E+02  0.30390198884E+02 -0.53164720868E+02  0.67329239322E+02  0.00000000000E+00 0. -1.
<scales pt_clust_5="13000.00000" pt_clust_6="13000.00000" pt_clust_7="13000.00000" pt_clust_8="13000.00000" pt_clust_9="41.31270"></scales>
<clustering>
<clus scale="   41.313">  1  9  2 -1</clus>
<clus scale="   79.250">  5  6 -1 -1</clus>
<clus scale="   88.125">  2  5  1 -1</clus>
<clus scale="   90.715">  7  8 -1 -1</clus>
<clus scale="   88.125">  2  5  1 -1</clus>
</clustering>
</event>
<event>
 9    2  0.5608219E-005  0.9544971E+02  0.7546771E-02  0.1295645E+00
         -3   -1    0    0    0  501 -0.00000000000E+00  0.00000000000E+00  0.24639756837E+03  0.24639756837E+03  0.00000000000E+00 0.  1.
          4   -1    0    0  502    0  0.00000000000E+00 -0.00000000000E+00 -0.17516836703E+03  0.17516836703E+03  0.00000000000E+00 0. -1.
         23    2    1    2    0    0 -0.10251508676E+02 -0.31089726225E+02  0.16813922224E+03  0.19347652754E+03  0.89948341555E+02 0.  0.
         24    2    1    2    0    0  0.32664556340E+02  0.48360453250E+01 -0.14500336011E+03  0.16889000125E+03  0.80046845683E+02 0.  0.
        -11    1    4    4    0    0  0.10709480247E+02 -0.36944500563E+02 -0.53008610537E+02  0.65494288912E+02  0.00000000000E+00 0.  1.
         12    1    4    4    0    0  0.21955076093E+02  0.41780545888E+02 -0.91994749572E+02  0.10339571234E+03  0.00000000000E+00 0. -1.
        -11    1    3    3    0    0  0.31527199456E+02  0.11670829319E+02  0.82009636050E+02  0.88632685662E+02  0.00000000000E+00 0. -1.
         11    1    3    3    0    0 -0.41778708132E+02 -0.42760555544E+02  0.86129586186E+02  0.10484384188E+03  0.00000000000E+00 0.  1.
         21    1    1    2  502  501 -0.22413047664E+02  0.26253680900E+02  0.48093339211E+02  0.59199406609E+02  0.00000000000E+00 0.  1.
<scales pt_clust_5="13000.00000" pt_clust_6="13000.00000" pt_clust_7="13000.00000" pt_clust_8="13000.00000" pt_clust_9="34.51957"></scales>
<clustering>
<clus scale="   34.520">  1  9  2 -1</clus>
<clus scale="   80.047">  5  6 -1 -1</clus>
<clus scale="   86.183">  2  5  1 -1</clus>
<clus scale="   89.948">  7  8 -1 -1</clus>
<clus scale="   86.183">  2  5  1 -1</clus>
</clustering>
</event>
<event>
 9    2  0.5608219E-005  0.2173726E+03  0.7546771E-02  0.1136821E+00
         -1   -1    0    0    0  501 -0.00000000000E+00  0.00000000000E+00  0.14669804148E+03  0.14669804148E+03  0.00000000000E+00 0.  1.
          2   -1    0    0  502    0  0.00000000000E+00 -0.00000000000E+00 -0.57362574899E+03  0.57362574899E+03  0.00000000000E+00 0. -1.
         23    2    1    2    0    0  0.25019147085E+02 -0.21187021519E+03 -0.39768680050E+02  0.23492030147E+03  0.89950288079E+02 0.  0.
         24    2    1    2    0    0 -0.99679888141E+02  0.14936354130E+03 -0.25508316674E+03  0.32131405143E+03  0.77004870759E+02 0.  0.
        -13    1    4    4    0    0 -0.21897638265E+01  0.20530231844E+02 -0.15835388918E+01  0.20707319493E+02  0.00000000000E+00 0.  1.
         14    1    4    4    0    0 -0.97490124314E+02  0.12883330945E+03 -0.25349962785E+03  0.30060673193E+03  0.00000000000E+00 0. -1.
        -13    1    3    3    0    0  0.53995914193E+02 -0.81061119561E+02 -0.12555106516E+02  0.98204350991E+02  0.00000000000E+00 0. -1.
         13    1    3    3    0    0 -0.28976767109E+02 -0.13080909563E+03 -0.27213573534E+02  0.13671595048E+03  0.00000000000E+00 0.  1.
         21    1    1    2  502  501  0.74660741056E+02  0.62506673894E+02 -0.13207586071E+03  0.16408943756E+03  0.00000000000E+00 0.  1.
<scales pt_clust_5="13000.00000" pt_clust_6="13000.00000" pt_clust_7="13000.00000" pt_clust_8="13000.00000" pt_clust_9="97.37202"></scales>
<clustering>
<clus scale="   77.005">  5  6 -1 -1</clus>
<clus scale="   89.950">  7  8 -1 -1</clus>
<clus scale="   97.372">  2  9  1 -1</clus>
<clus scale="  212.343">  2  5  1 -1</clus>
<clus scale="   97.372">  2  5  1 -1</clus>
</clustering>
</event>
<event>
 9    2  0.5608219E-005  0.1090828E+03  0.7546771E-02  0.1267566E+00
         -1   -1    0    0    0  501 -0.00000000000E+00  0.00000000000E+00  0.17128361685E+03  0.17128361685E+03  0.00000000000E+00 0.  1.
          2   -1    0    0  502    0  0.00000000000E+00 -0.00000000000E+00 -0.61368142034E+03  0.61368142034E+03  0.00000000000E+00 0. -1.
         24    2    1    2    0    0 -0.32174759767E+02 -0.73261614058E+02 -0.67567723499E+02  0.13441121691E+03  0.84252588753E+02 0.  0.
         23    2    1    2    0    0 -0.33894229325E+01  0.46987839549E+02 -0.50332896979E+03  0.51466015966E+03  0.96517785148E+02 0.  0.
        -13    1    3    3    0    0  0.25241847374E+02 -0.33845660128E+02 -0.84496556261E+01  0.43058985689E+02  0.00000000000E+00 0.  1.
         14    1    3    3    0    0 -0.57416607141E+02 -0.39415953930E+02 -0.59118067873E+02  0.91352231220E+02  0.00000000000E+00 0. -1.
        -13    1    4    4    0    0  0.26122490101E+02 -0.18314629027E+02 -0.98507383832E+02  0.10354474779E+03  0.00000000000E+00 0.  1.
         13    1    4    4    0    0 -0.29511913033E+02  0.65302468576E+02 -0.40482158596E+03  0.41111541187E+03  0.00000000000E+00 0. -1.
         21    1    1    2  502  501  0.35564182700E+02  0.26273774509E+02  0.12849888980E+03  0.13589366062E+03  0.00000000000E+00 0.  1.
<scales pt_clust_5="13000.00000" pt_clust_6="13000.00000" pt_clust_7="13000.00000" pt_clust_8="13000.00000" pt_clust_9="44.21677"></scales>
<clustering>
<clus scale="   44.217">  1  9  2 -1</clus>
<clus scale="   84.253">  5  6 -1 -1</clus>
<clus scale="   96.518">  7  8 -1 -1</clus>
<clus scale="   98.396">  1  5  2 -1</clus>
<clus scale="  109.083">  2  5  1 -1</clus>
</clustering>
</event>
<event>
 9    2  0.5608219E-005  0.9569495E+02  0.7546771E-02  0.1297485E+00
         -1   -1    0    0    0  501 -0.00000000000E+00  0.00000000000E+00  0.23205301452E+03  0.23205301452E+03  0.00000000000E+00 0.  1.
          2   -1    0    0  502    0  0.00000000000E+00 -0.00000000000E+00 -0.74057128592E+02  0.74057128592E+02  0.00000000000E+00 0. -1.
         24    2    1    2    0    0  0.36288545341E+02 -0.94223350894E+01  0.15213902325E+03  0.17615291626E+03  0.80485580012E+02 0.  0.
         23    2    1    2    0    0 -0.11381291074E+02  0.94725268587E+01 -0.16589950534E+02  0.96427639057E+02  0.93828570082E+02 0.  0.
        -13    1    3    3    0    0 -0.62180948772E+01 -0.36129511006E+02  0.82764003533E+02  0.90520089209E+02  0.00000000000E+00 0.  1.
         14    1    3    3    0    0  0.42506640218E+02  0.26707175917E+02  0.69375019717E+02  0.85632827051E+02  0.00000000000E+00 0. -1.
        -11    1    4    4    0    0 -0.36297280940E+02 -0.30488190335E+02 -0.13237337209E+02  0.49216353481E+02  0.00000000000E+00 0.  1.
         11    1    4    4    0    0  0.24915989867E+02  0.39960717193E+02 -0.33526133249E+01  0.47211285576E+02  0.00000000000E+00 0. -1.
         21    1    1    2  502  501 -0.24907254267E+02 -0.50191769267E-01  0.22446813210E+02  0.33529587794E+02  0.00000000000E+00 0. -1.
<scales pt_clust_5="13000.00000" pt_clust_6="13000.00000" pt_clust_7="13000.00000" pt_clust_8="13000.00000" pt_clust_9="24.90730"></scales>
<clustering>
<clus scale="   24.907">  1  9  2 -1</clus>
<clus scale="   80.486">  5  6 -1 -1</clus>
<clus scale="   82.654">  1  5  2 -1</clus>
<clus scale="   93.829">  7  8 -1 -1</clus>
<clus scale="   95.695">  2  5  1 -1</clus>
</clustering>
</event>
<event>
 9    2  0.5608219E-005  0.1161438E+03  0.7546771E-02  0.1252937E+00
          2   -1    0    0  502    0  0.00000000000E+00  0.00000000000E+00  0.55943533025E+03  0.55943533025E+03  0.00000000000E+00 0. -1.
         -1   -1    0    0    0  501 -0.00000000000E+00 -0.00000000000E+00 -0.44783424424E+02  0.44783424424E+02  0.00000000000E+00 0.  1.
         23    2    1    2    0    0 -0.42875082163E+02 -0.29262568797E+02  0.55522675022E+02  0.11880414965E+03  0.91307655368E+02 0.  0.
         24    2    1    2    0    0  0.65130383455E+02  0.39472747233E+02  0.44112037489E+03  0.45501945622E+03  0.81580976810E+02 0.  0.
        -11    1    4    4    0    0  0.38811196705E+02  0.50938705083E+02  0.15855213616E+03  0.17099660975E+03  0.00000000000E+00 0.  1.
         12    1    4    4    0    0  0.26319186749E+02 -0.11465957850E+02  0.28256823873E+03  0.28402284647E+03  0.00000000000E+00 0. -1.
        -11    1    3    3    0    0 -0.42785877518E+02  0.17054221859E+02 -0.56674756822E+00  0.46062989493E+02  0.00000000000E+00 0.  1.
         11    1    3    3    0    0 -0.89204644969E-01 -0.46316790657E+02  0.56089422590E+02  0.72741160155E+02  0.00000000000E+00 0. -1.
         21    1    1    2  502  501 -0.22255301292E+02 -0.10210178436E+02  0.18008855916E+02  0.30395148802E+02  0.00000000000E+00 0. -1.
<scales pt_clust_5="13000.00000" pt_clust_6="13000.00000" pt_clust_7="13000.00000" pt_clust_8="13000.00000" pt_clust_9="24.48563"></scales>
<clustering>
<clus scale="   24.486">  2  9  1 -1</clus>
<clus scale="   81.581">  5  6 -1 -1</clus>
<clus scale="   91.308">  7  8 -1 -1</clus>
<clus scale="  108.663">  1  5  2 -1</clus>
<clus scale="  108.663">  1  5  2 -1</clus>
</clustering>
</event>
<event>
 9    2  0.5608219E-005  0.1456450E+03  0.7546771E-02  0.1208360E+00
         -1   -1    0    0    0  501 -0.00000000000E+00  0.00000000000E+00  0.29300390005E+03  0.29300390005E+03  0.00000000000E+00 0.  1.
          2   -1    0    0  502    0  0.00000000000E+00 -0.00000000000E+00 -0.72777699672E+03  0.72777699672E+03  0.00000000000E+00 0. -1.
         24    2    1    2    0    0  0.17274550517E+02  0.70884946278E+02  0.12413284394E+03  0.16486851831E+03  0.80309275187E+02 0.  0.
         23    2    1    2    0    0 -0.71015290071E+02 -0.90436053019E+02 -0.69384184568E+03  0.70935859537E+03  0.92473017169E+02 0.  0.
        -11    1    3    3    0    0  0.40228233068E+02  0.74622799158E+02  0.90788351405E+02  0.12421512646E+03  0.00000000000E+00 0.  1.
         12    1    3    3    0    0 -0.22953682551E+02 -0.37378528796E+01  0.33344492533E+02  0.40653391852E+02  0.00000000000E+00 0. -1.
        -11    1    4    4    0    0 -0.79308254992E+02 -0.28903806083E+02 -0.44092610841E+03  0.44893324937E+03  0.00000000000E+00 0. -1.
         11    1    4    4    0    0  0.82929649205E+01 -0.61532246937E+02 -0.25291573727E+03  0.26042534600E+03  0.00000000000E+00 0.  1.
         21    1    1    2  502  501  0.53740739555E+02  0.19551106741E+02  0.13493590507E+03  0.14655378310E+03  0.00000000000E+00 0.  1.
<scales pt_clust_5="13000.00000" pt_clust_6="13000.00000" pt_clust_7="13000.00000" pt_clust_8="13000.00000" pt_clust_9="57.18665"></scales>
<clustering>
<clus scale="   57.187">  1  9  2 -1</clus>
<clus scale="   80.309">  5  6 -1 -1</clus>
<clus scale="   92.473">  7  8 -1 -1</clus>
<clus scale="  138.242">  1  5  2 -1</clus>
<clus scale="  145.645">  2  5  1 -1</clus>
</clustering>
</event>
<event>
 9    2  0.5608219E-005  0.1401663E+03  0.7546771E-02  0.1215610E+00
         -1   -1    0    0    0  501 -0.00000000000E+00  0.00000000000E+00  0.10729671469E+03  0.10729671469E+03  0.00000000000E+00 0.  1.
          2   -1    0    0  502    0  0.00000000000E+00 -0.00000000000E+00 -0.31114737109E+03  0.31114737109E+03  0.00000000000E+00 0. -1.
         23    2    1    2    0    0  0.10449175261E+03 -0.46738555242E+02 -0.14829679579E+02  0.14661913069E+03  0.90411454900E+02 0.  0.
         24    2    1    2    0    0 -0.10353678758E+03  0.20644276205E+02 -0.20317939809E+03  0.24212168508E+03  0.78708259126E+02 0.  0.
        -13    1    4    4    0    0 -0.46111544219E+02  0.35803213091E+02 -0.46731489545E+02  0.74779520545E+02  0.00000000000E+00 0.  1.
         14    1    4    4    0    0 -0.57425243363E+02 -0.15158936886E+02 -0.15644790854E+03  0.16734216453E+03  0.00000000000E+00 0. -1.
        -11    1    3    3    0    0  0.80197111343E+02  0.59150713390E+01  0.14378507509E+02  0.81690306738E+02  0.00000000000E+00 0.  1.
         11    1    3    3    0    0  0.24294641268E+02 -0.52653626581E+02 -0.29208187088E+02  0.64928823949E+02  0.00000000000E+00 0. -1.
         21    1    1    2  502  501 -0.95496502920E+00  0.26094279037E+02  0.14158421265E+02  0.29703270011E+02  0.00000000000E+00 0.  1.
<scales pt_clust_5="13000.00000" pt_clust_6="13000.00000" pt_clust_7="13000.00000" pt_clust_8="13000.00000" pt_clust_9="26.11175"></scales>
<clustering>
<clus scale="   26.112">  1  9  2 -1</clus>
<clus scale="   78.708">  5  6 -1 -1</clus>
<clus scale="   90.411">  7  8 -1 -1</clus>
<clus scale="  132.919">  2  5  1 -1</clus>
<clus scale="  132.919">  2  5  1 -1</clus>
</clustering>
</event>
<event>
 9    2  0.5608219E-005  0.2898309E+03  0.7546771E-02  0.1090800E+00
          2   -1    0    0  502    0  0.00000000000E+00  0.00000000000E+00  0.51193734456E+03  0.51193734456E+03  0.00000000000E+00 0. -1.
         -1   -1    0    0    0  501 -0.00000000000E+00 -0.00000000000E+00 -0.42929421716E+03  0.42929421716E+03  0.00000000000E+00 0.  1.
         23    2    1    2    0    0  0.12595544842E+03  0.26792082103E+03 -0.99541271862E+02  0.32530333459E+03  0.90925537491E+02 0.  0.
         24    2    1    2    0    0 -0.11962110572E+03 -0.24238200320E+03  0.34793829441E+03  0.44809882306E+03  0.81689987812E+02 0.  0.
        -11    1    4    4    0    0 -0.69869009845E+02 -0.16837766288E+03  0.17094079341E+03  0.24990692416E+03  0.00000000000E+00 0.  1.
         12    1    4    4    0    0 -0.49752095871E+02 -0.74004340316E+02  0.17699750100E+03  0.19819189890E+03  0.00000000000E+00 0. -1.
        -13    1    3    3    0    0  0.11175166143E+03  0.13384036047E+03 -0.46876263719E+02  0.18055209781E+03  0.00000000000E+00 0.  1.
         13    1    3    3    0    0  0.14203786989E+02  0.13408046055E+03 -0.52665008143E+02  0.14475123678E+03  0.00000000000E+00 0. -1.
         21    1    1    2  502  501 -0.63343427048E+01 -0.25538817830E+02 -0.16575389514E+03  0.16782940407E+03  0.00000000000E+00 0. -1.
<scales pt_clust_5="13000.00000" pt_clust_6="13000.00000" pt_clust_7="13000.00000" pt_clust_8="13000.00000" pt_clust_9="26.31264"></scales>
<clustering>
<clus scale="   26.313">  2  9  1 -1</clus>
<clus scale="   81.690">  5  6 -1 -1</clus>
<clus scale="   90.926">  7  8 -1 -1</clus>
<clus scale="  287.067">  1  5  2 -1</clus>
<clus scale="  287.067">  1  5  2 -1</clus>
</clustering>
</event>
<event>
 9    2  0.5608219E-005  0.9728288E+02  0.7546771E-02  0.1292811E+00
          2   -1    0    0  502    0  0.00000000000E+00  0.00000000000E+00  0.23178078132E+03  0.23178078132E+03  0.00000000000E+00 0. -1.
         -1   -1    0    0    0  501 -0.00000000000E+00 -0.00000000000E+00 -0.81775214212E+02  0.81775214212E+02  0.00000000000E+00 0.  1.
         23    2    1    2    0    0 -0.12653339805E+02 -0.45687619569E+02  0.37040790460E+02  0.11048736210E+03  0.92671308591E+02 0.  0.
         24    2    1    2    0    0  0.21351056078E+02  0.14983851243E+02  0.13841327176E+03  0.16225200004E+03  0.80542500123E+02 0.  0.
        -13    1    4    4    0    0  0.29228637399E+02  0.26639401736E+02  0.22523137089E+02  0.45511126918E+02  0.00000000000E+00 0.  1.
         14    1    4    4    0    0 -0.78775813210E+01 -0.11655550493E+02  0.11589013467E+03  0.11674087312E+03  0.00000000000E+00 0. -1.
        -13    1    3    3    0    0 -0.27038213064E+02  0.21010629184E+02  0.21742183014E+02  0.40561484522E+02  0.00000000000E+00 0. -1.
         13    1    3    3    0    0  0.14384873259E+02 -0.66698248753E+02  0.15298607446E+02  0.69925877578E+02  0.00000000000E+00 0.  1.
         21    1    1    2  502  501 -0.86977162735E+01  0.30703768326E+02 -0.25448495109E+02  0.40816633388E+02  0.00000000000E+00 0.  1.
<scales pt_clust_5="13000.00000" pt_clust_6="13000.00000" pt_clust_7="13000.00000" pt_clust_8="13000.00000" pt_clust_9="31.91194"></scales>
<clustering>
<clus scale="   31.912">  2  9  1 -1</clus>
<clus scale="   80.543">  5  6 -1 -1</clus>
<clus scale="   85.808">  1  5  2 -1</clus>
<clus scale="   92.671">  7  8 -1 -1</clus>
<clus scale="   85.808">  1  5  2 -1</clus>
</clustering>
</event>
<event>
 9    2  0.5608219E-005  0.9687524E+02  0.7546771E-02  0.1292988E+00
          2   -1    0    0  502    0  0.00000000000E+00  0.00000000000E+00  0.38460647017E+03  0.38460647017E+03  0.00000000000E+00 0. -1.
         -1   -1    0    0    0  501 -0.00000000000E+00 -0.00000000000E+00 -0.46419219528E+02  0.46419219528E+02  0.00000000000E+00 0.  1.
         24    2    1    2    0    0  0.88544640140E+01  0.31594723463E+01  0.43451991015E+02  0.91802471675E+02  0.80319577215E+02 0.  0.
         23    2    1    2    0    0 -0.11972133921E+02  0.43613206691E+02  0.26449441908E+03  0.28343870577E+03  0.91294898087E+02 0.  0.
        -11    1    3    3    0    0 -0.15474905663E+02  0.36257925628E+02  0.25652734356E+02  0.47033739549E+02  0.00000000000E+00 0.  1.
         12    1    3    3    0    0  0.24329369677E+02 -0.33098453281E+02  0.17799256659E+02  0.44768732125E+02  0.00000000000E+00 0. -1.
        -11    1    4    4    0    0 -0.17092527813E+02 -0.25806458467E+02  0.61673536444E+02  0.69005455604E+02  0.00000000000E+00 0.  1.
         11    1    4    4    0    0  0.51203938925E+01  0.69419665157E+02  0.20282088264E+03  0.21443325017E+03  0.00000000000E+00 0. -1.
         21    1    1    2  502  501  0.31176699067E+01 -0.46772679037E+02  0.30240840542E+02  0.55784512247E+02  0.00000000000E+00 0.  1.
<scales pt_clust_5="13000.00000" pt_clust_6="13000.00000" pt_clust_7="13000.00000" pt_clust_8="13000.00000" pt_clust_9="46.87647"></scales>
<clustering>
<clus scale="   46.876">  2  9  1 -1</clus>
<clus scale="   80.320">  5  6 -1 -1</clus>
<clus scale="   86.610">  2  5  1 -1</clus>
<clus scale="   91.295">  7  8 -1 -1</clus>
<clus scale="   96.875">  1  5  2 -1</clus>
</clustering>
</event>
<event>
 9    2  0.5608219E-005  0.9227931E+02  0.7546771E-02  0.1302816E+00
          2   -1    0    0  502    0  0.00000000000E+00  0.00000000000E+00  0.11016913482E+03  0.11016913482E+03  0.00000000000E+00 0. -1.
         -1   -1    0    0    0  501 -0.00000000000E+00 -0.00000000000E+00 -0.51103742987E+03  0.51103742987E+03  0.00000000000E+00 0.  1.
         24    2    1    2    0    0  0.31858781808E+01 -0.67249026869E+01 -0.45470957474E+03  0.46208020683E+03  0.81865414249E+02 0.  0.
         23    2    1    2    0    0  0.89755251742E+01 -0.15369969443E+02  0.80366099007E+02  0.12252514004E+03  0.90757391215E+02 0.  0.
        -13    1    3    3    0    0  0.23146171551E+02 -0.31861177744E+02 -0.13121827772E+03  0.13700042450E+03  0.00000000000E+00 0.  1.
         14    1    3    3    0    0 -0.19960293370E+02  0.25136275057E+02 -0.32349129702E+03  0.32507978234E+03  0.00000000000E+00 0. -1.
        -11    1    4    4    0    0 -0.22293919215E+02  0.15666848456E+02  0.72917620141E+02  0.77842458218E+02  0.00000000000E+00 0. -1.
         11    1    4    4    0    0  0.31269444389E+02 -0.31036817899E+02  0.74484788669E+01  0.44682681825E+02  0.00000000000E+00 0.  1.
         21    1    1    2  502  501 -0.12161403355E+02  0.22094872130E+02 -0.26524819311E+02  0.36601217814E+02  0.00000000000E+00 0.  1.
<scales pt_clust_5="13000.00000" pt_clust_6="13000.00000" pt_clust_7="13000.00000" pt_clust_8="13000.00000" pt_clust_9="25.22069"></scales>
<clustering>
<clus scale="   25.221">  2  9  1 -1</clus>
<clus scale="   81.865">  5  6 -1 -1</clus>
<clus scale="   83.549">  2  5  1 -1</clus>
<clus scale="   90.757">  7  8 -1 -1</clus>
<clus scale="   92.279">  1  5  2 -1</clus>
</clustering>
</event>
<event>
 9    2  0.5608219E-005  0.1168169E+03  0.7546771E-02  0.1251852E+00
         -1   -1    0    0    0  501 -0.00000000000E+00  0.00000000000E+00  0.19352589170E+02  0.19352589170E+02  0.00000000000E+00 0.  1.
          2   -1    0    0  502    0  0.00000000000E+00 -0.00000000000E+00 -0.13104671424E+04  0.13104671424E+04  0.00000000000E+00 0. -1.
         23    2    1    2    0    0 -0.53323910874E+02 -0.71651485695E+02 -0.39280083720E+03  0.41302385267E+03  0.91207621949E+02 0.  0.
         24    2    1    2    0    0  0.16165266081E+02  0.67346969774E+02 -0.84478068488E+03  0.85148830534E+03  0.81123353089E+02 0.  0.
        -11    1    4    4    0    0  0.14629349377E+02  0.29797389030E+02 -0.92611240875E+02  0.98380608825E+02  0.00000000000E+00 0.  1.
         12    1    4    4    0    0  0.15359167045E+01  0.37549580744E+02 -0.75216944401E+03  0.75310769652E+03  0.00000000000E+00 0. -1.
        -13    1    3    3    0    0 -0.31446427358E+02  0.12606477894E+02 -0.17903877366E+03  0.18221603538E+03  0.00000000000E+00 0.  1.
         13    1    3    3    0    0 -0.21877483515E+02 -0.84257963589E+02 -0.21376206354E+03  0.23080781729E+03  0.00000000000E+00 0. -1.
         21    1    1    2  502  501  0.37158644793E+02  0.43045159214E+01 -0.53533031178E+02  0.65307573582E+02  0.00000000000E+00 0. -1.
<scales pt_clust_5="13000.00000" pt_clust_6="13000.00000" pt_clust_7="13000.00000" pt_clust_8="13000.00000" pt_clust_9="37.40713"></scales>
<clustering>
<clus scale="   37.407">  1  9  2 -1</clus>
<clus scale="   81.123">  5  6 -1 -1</clus>
<clus scale="   91.208">  7  8 -1 -1</clus>
<clus scale="  109.125">  2  5  1 -1</clus>
<clus scale="  109.125">  2  5  1 -1</clus>
</clustering>
</event>
<event>
 9    2  0.5608219E-005  0.1204753E+03  0.7546771E-02  0.1243085E+00
          2   -1    0    0  502    0  0.00000000000E+00  0.00000000000E+00  0.29370199644E+03  0.29370199644E+03  0.00000000000E+00 0. -1.
         -1   -1    0    0    0  501 -0.00000000000E+00 -0.00000000000E+00 -0.25705445853E+03  0.25705445853E+03  0.00000000000E+00 0.  1.
         23    2    1    2    0    0 -0.27043288553E+02  0.37522413493E+01 -0.19172304702E+03  0.21341458214E+03  0.89680757918E+02 0.  0.
         24    2    1    2    0    0  0.84118575732E+02 -0.10167202680E+01  0.24874767928E+03  0.27667641761E+03  0.87163430462E+02 0.  0.
        -11    1    4    4    0    0  0.22514395925E+01  0.30252139734E+02  0.39394602975E+02  0.49721179414E+02  0.00000000000E+00 0.  1.
         12    1    4    4    0    0  0.81867136140E+02 -0.31268860002E+02  0.20935307630E+03  0.22695523819E+03  0.00000000000E+00 0. -1.
        -11    1    3    3    0    0 -0.20259262517E+02 -0.29544827563E+02 -0.16847579340E+03  0.17224235111E+03  0.00000000000E+00 0.  1.
         11    1    3    3    0    0 -0.67840260363E+01  0.33297068913E+02 -0.23247253623E+02  0.41172231036E+02  0.00000000000E+00 0. -1.
         21    1    1    2  502  501 -0.57075287179E+02 -0.27355210813E+01 -0.20377094343E+02  0.60665455212E+02  0.00000000000E+00 0.  1.
<scales pt_clust_5="13000.00000" pt_clust_6="13000.00000" pt_clust_7="13000.00000" pt_clust_8="13000.00000" pt_clust_9="57.14080"></scales>
<clustering>
<clus scale="   57.141">  2  9  1 -1</clus>
<clus scale="   87.163">  5  6 -1 -1</clus>
<clus scale="   89.681">  7  8 -1 -1</clus>
<clus scale="  118.613">  1  5  2 -1</clus>
<clus scale="  118.613">  1  5  2 -1</clus>
</clustering>
</event>
<event>
 9    2  0.5608219E-005  0.1575470E+03  0.7546771E-02  0.1193329E+00
         -1   -1    0    0    0  501 -0.00000000000E+00  0.00000000000E+00  0.29779184471E+03  0.29779184471E+03  0.00000000000E+00 0.  1.
          2   -1    0    0  502    0  0.00000000000E+00 -0.00000000000E+00 -0.17568841964E+03  0.17568841964E+03  0.00000000000E+00 0. -1.
         23    2    1    2    0    0 -0.25834230940E+02 -0.15767845680E+03 -0.36379203567E+01  0.18387680089E+03  0.90926015068E+02 0.  0.
         24    2    1    2    0    0  0.46657078070E+02  0.99282606336E+02 -0.14439370256E+02  0.13632496084E+03  0.79637181515E+02 0.  0.
        -11    1    4    4    0    0  0.16424398705E+02  0.18671876099E+02  0.30383061210E+02  0.39262325942E+02  0.00000000000E+00 0.  1.
         12    1    4    4    0    0  0.30232679365E+02  0.80610730236E+02 -0.44822431465E+02  0.97062634898E+02  0.00000000000E+00 0. -1.
        -13    1    3    3    0    0 -0.52161593418E+02 -0.81086873123E+02  0.22061299982E+02  0.98907096700E+02  0.00000000000E+00 0.  1.
         13    1    3    3    0    0  0.26327362477E+02 -0.76591583673E+02 -0.25699220339E+02  0.84969704193E+02  0.00000000000E+00 0. -1.
         21    1    1    2  502  501 -0.20822847130E+02  0.58395850461E+02  0.14018071569E+03  0.15327850261E+03  0.00000000000E+00 0.  1.
<scales pt_clust_5="13000.00000" pt_clust_6="13000.00000" pt_clust_7="13000.00000" pt_clust_8="13000.00000" pt_clust_9="61.99731"></scales>
<clustering>
<clus scale="   61.997">  1  9  2 -1</clus>
<clus scale="   79.637">  5  6 -1 -1</clus>
<clus scale="   90.926">  7  8 -1 -1</clus>
<clus scale="  151.313">  2  5  1 -1</clus>
<clus scale="  151.313">  2  5  1 -1</clus>
</clustering>
</event>
<event>
 9    2  0.5608219E-005  0.9238210E+02  0.7546771E-02  0.1304081E+00
         -1   -1    0    0    0  501 -0.00000000000E+00  0.00000000000E+00  0.19185827411E+03  0.19185827411E+03  0.00000000000E+00 0.  1.
          2   -1    0    0  502    0  0.00000000000E+00 -0.00000000000E+00 -0.12085054052E+03  0.12085054052E+03  0.00000000000E+00 0. -1.
         23    2    1    2    0    0 -0.34538133365E+01  0.25255718739E+02  0.15061129622E+03  0.17715937491E+03  0.89732387775E+02 0.  0.
         24    2    1    2    0    0 -0.95180607839E+00  0.19030948962E+01 -0.73337960023E+02  0.10733121128E+03  0.78339037709E+02 0.  0.
        -13    1    4    4    0    0  0.33496153159E+02 -0.11201901527E+02 -0.15103383717E+02  0.38413371031E+02  0.00000000000E+00 0.  1.
         14    1    4    4    0    0 -0.34447959237E+02  0.13104996423E+02 -0.58234576306E+02  0.68917840248E+02  0.00000000000E+00 0. -1.
        -13    1    3    3    0    0  0.32790470825E+02  0.41837888843E+02  0.79360405282E+02  0.95518049846E+02  0.00000000000E+00 0.  1.
         13    1    3    3    0    0 -0.36244284162E+02 -0.16582170104E+02  0.71250890936E+02  0.81641325068E+02  0.00000000000E+00 0. -1.
         21    1    1    2  502  501  0.44056194148E+01 -0.27158813636E+02 -0.62656026016E+01  0.28218228443E+02  0.00000000000E+00 0.  1.
<scales pt_clust_5="13000.00000" pt_clust_6="13000.00000" pt_clust_7="13000.00000" pt_clust_8="13000.00000" pt_clust_9="27.51383"></scales>
<clustering>
<clus scale="   27.514">  2  9  1 -1</clus>
<clus scale="   78.339">  5  6 -1 -1</clus>
<clus scale="   81.361">  2  5  1 -1</clus>
<clus scale="   89.732">  7  8 -1 -1</clus>
<clus scale="   27.514">  2  5  1 -1</clus>
</clustering>
</event>
<event>
 9    2  0.5608219E-005  0.3021115E+03  0.7546771E-02  0.1084531E+00
         -1   -1    0    0    0  501 -0.00000000000E+00  0.00000000000E+00  0.13595754578E+03  0.13595754578E+03  0.00000000000E+00 0.  1.
          2   -1    0    0  502    0  0.00000000000E+00 -0.00000000000E+00 -0.18574315894E+04  0.18574315894E+04  0.00000000000E+00 0. -1.
         23    2    1    2    0    0 -0.69131843740E+02 -0.23377079245E+03 -0.15702198492E+03  0.30307995823E+03  0.88167806550E+02 0.  0.
         24    2    1    2    0    0  0.63196432248E+02  0.29143419941E+03 -0.15951796933E+04  0.16247006018E+04  0.78269470182E+02 0.  0.
        -13    1    4    4    0    0  0.26026327263E+01  0.11478315533E+03 -0.45126800166E+03  0.46564445209E+03  0.00000000000E+00 0.  1.
         14    1    4    4    0    0  0.60593799521E+02  0.17665104407E+03 -0.11439116916E+04  0.11590561497E+04  0.00000000000E+00 0. -1.
        -11    1    3    3    0    0  0.32967070769E+01 -0.10090283012E+03 -0.97853175112E+02  0.14059691776E+03  0.00000000000E+00 0. -1.
         11    1    3    3    0    0 -0.72428550817E+02 -0.13286796233E+03 -0.59168809810E+02  0.16248304047E+03  0.00000000000E+00 0.  1.
         21    1    1    2  502  501  0.59354114925E+01 -0.57663406960E+02  0.30727634557E+02  0.65608575181E+02  0.00000000000E+00 0.  1.
<scales pt_clust_5="13000.00000" pt_clust_6="13000.00000" pt_clust_7="13000.00000" pt_clust_8="13000.00000" pt_clust_9="57.96807"></scales>
<clustering>
<clus scale="   57.968">  1  9  2 -1</clus>
<clus scale="   78.269">  5  6 -1 -1</clus>
<clus scale="   88.168">  7  8 -1 -1</clus>
<clus scale="  299.372">  2  5  1 -1</clus>
<clus scale="  299.372">  2  5  1 -1</clus>
</clustering>
</event>
<event>
 9    2  0.5608219E-005  0.1088223E+03  0.7546771E-02  0.1266051E+00
          2   -1    0    0  502    0  0.00000000000E+00  0.00000000000E+00  0.25271949348E+03  0.25271949348E+03  0.00000000000E+00 0. -1.
         -1   -1    0    0    0  501 -0.00000000000E+00 -0.00000000000E+00 -0.15106428735E+03  0.15106428735E+03  0.00000000000E+00 0.  1.
         23    2    1    2    0    0 -0.87302433574E+02 -0.28307643376E+02 -0.39179283646E+02  0.13309733233E+03  0.88072958529E+02 0.  0.
         24    2    1    2    0    0  0.60477036913E+02 -0.35189001962E+01  0.18481057477E+03  0.21013542181E+03  0.79574445034E+02 0.  0.
        -11    1    4    4    0    0  0.23261873382E+01  0.26548292947E+02  0.21663531586E+02  0.34344309670E+02  0.00000000000E+00 0.  1.
         12    1    4    4    0    0  0.58150849575E+02 -0.30067193143E+02  0.16314704318E+03  0.17579111214E+03  0.00000000000E+00 0. -1.
        -13    1    3    3    0    0 -0.27808418548E+02  0.41158769176E+01 -0.56548824049E+02  0.63150756815E+02  0.00000000000E+00 0.  1.
         13    1    3    3    0    0 -0.59494015025E+02 -0.32423520294E+02  0.17369540402E+02  0.69946575512E+02  0.00000000000E+00 0. -1.
         21    1    1    2  502  501  0.26825396660E+02  0.31826543573E+02 -0.43976084990E+02  0.60551026687E+02  0.00000000000E+00 0. -1.
<scales pt_clust_5="13000.00000" pt_clust_6="13000.00000" pt_clust_7="13000.00000" pt_clust_8="13000.00000" pt_clust_9="41.62368"></scales>
<clustering>
<clus scale="   41.624">  2  9  1 -1</clus>
<clus scale="   79.574">  5  6 -1 -1</clus>
<clus scale="   88.073">  7  8 -1 -1</clus>
<clus scale="  102.066">  1  5  2 -1</clus>
<clus scale="  102.066">  1  5  2 -1</clus>
</clustering>
</event>
<event>
 9    2  0.5608219E-005  0.1021001E+03  0.7546771E-02  0.1281901E+00
          4   -1    0    0  502    0  0.00000000000E+00  0.00000000000E+00  0.31937393358E+03  0.31937393358E+03  0.00000000000E+00 0. -1.
         -3   -1    0    0    0  501 -0.00000000000E+00 -0.00000000000E+00 -0.14833984814E+03  0.14833984814E+03  0.00000000000E+00 0.  1.
         23    2    1    2    0    0  0.38368559697E+02 -0.28440248694E+01 -0.68514580919E+02  0.12114147112E+03  0.92199638704E+02 0.  0.
         24    2    1    2    0    0 -0.28983984498E+02  0.34590211543E+02  0.27979830118E+03  0.29445778552E+03  0.79885818654E+02 0.  0.
        -11    1    4    4    0    0  0.22746155935E+02  0.32566955379E+02  0.11065411796E+03  0.11756839718E+03  0.00000000000E+00 0.  1.
         12    1    4    4    0    0 -0.51730140433E+02  0.20232561644E+01  0.16914418321E+03  0.17688938835E+03  0.00000000000E+00 0. -1.
        -11    1    3    3    0    0  0.46681850851E+02  0.36711284200E+02 -0.38125698333E+02  0.70572533325E+02  0.00000000000E+00 0.  1.
         11    1    3    3    0    0 -0.83132911537E+01 -0.39555309069E+02 -0.30388882586E+02  0.50568937800E+02  0.00000000000E+00 0. -1.
         21    1    1    2  502  501 -0.93845751991E+01 -0.31746186674E+02 -0.40249634819E+02  0.52114525067E+02  0.00000000000E+00 0. -1.
<scales pt_clust_5="13000.00000" pt_clust_6="13000.00000" pt_clust_7="13000.00000" pt_clust_8="13000.00000" pt_clust_9="33.10424"></scales>
<clustering>
<clus scale="   33.104">  2  9  1 -1</clus>
<clus scale="   79.886">  5  6 -1 -1</clus>
<clus scale="   91.134">  1  5  2 -1</clus>
<clus scale="   92.200">  7  8 -1 -1</clus>
<clus scale="   91.134">  1  5  2 -1</clus>
</clustering>
</event>
<event>
 9    2  0.5608219E-005  0.2073448E+03  0.7546771E-02  0.1144671E+00
         -1   -1    0    0    0  501 -0.00000000000E+00  0.00000000000E+00  0.63177237858E+02  0.63177237858E+02  0.00000000000E+00 0.  1.
          2   -1    0    0  502    0  0.00000000000E+00 -0.00000000000E+00 -0.10125040359E+04  0.10125040359E+04  0.00000000000E+00 0. -1.
         24    2    1    2    0    0  0.99915643780E+02  0.15724805948E+03 -0.26945645260E+03  0.33728383254E+03  0.80271512789E+02 0.  0.
         23    2    1    2    0    0 -0.13983755171E+03 -0.12568677756E+03 -0.64122739079E+03  0.67449790136E+03  0.91777695148E+02 0.  0.
        -11    1    3    3    0    0  0.94448112155E+02  0.11818067179E+03 -0.15663701573E+03  0.21776655338E+03  0.00000000000E+00 0.  1.
         12    1    3    3    0    0  0.54675316250E+01  0.39067387687E+02 -0.11281943687E+03  0.11951727916E+03  0.00000000000E+00 0. -1.
        -13    1    4    4    0    0 -0.69790841872E+02 -0.36739820801E+02 -0.40415179614E+03  0.41177572823E+03  0.00000000000E+00 0. -1.
         13    1    4    4    0    0 -0.70046709833E+02 -0.88946956756E+02 -0.23707559465E+03  0.26272217313E+03  0.00000000000E+00 0.  1.
         21    1    1    2  502  501  0.39921907925E+02 -0.31561281922E+02 -0.38642954657E+02  0.63899539854E+02  0.00000000000E+00 0.  1.
<scales pt_clust_5="13000.00000" pt_clust_6="13000.00000" pt_clust_7="13000.00000" pt_clust_8="13000.00000" pt_clust_9="50.89080"></scales>
<clustering>
<clus scale="   50.891">  1  9  2 -1</clus>
<clus scale="   80.272">  5  6 -1 -1</clus>
<clus scale="   91.778">  7  8 -1 -1</clus>
<clus scale="  202.515">  1  5  2 -1</clus>
<clus scale="  207.345">  2  5  1 -1</clus>
</clustering>
</event>
<event>
 9    2  0.5608219E-005  0.1460109E+03  0.7546771E-02  0.1207307E+00
          2   -1    0    0  502    0  0.00000000000E+00  0.00000000000E+00  0.12047432872E+03  0.12047432872E+03  0.00000000000E+00 0. -1.
         -1   -1    0    0    0  501 -0.00000000000E+00 -0.00000000000E+00 -0.22276873340E+03  0.22276873340E+03  0.00000000000E+00 0.  1.
         24    2    1    2    0    0 -0.12118197060E+03  0.41255664511E+02 -0.34569318549E+02  0.15506335943E+03  0.80389724468E+02 0.  0.
         23    2    1    2    0    0  0.97278386805E+02 -0.35961211494E+02 -0.25868706807E+02  0.13968878559E+03  0.89930381728E+02 0.  0.
        -13    1    3    3    0    0 -0.33431528740E+02  0.41767528649E+02 -0.40516376464E+02  0.67110135785E+02  0.00000000000E+00 0.  1.
         14    1    3    3    0    0 -0.87750441862E+02 -0.51186413817E+00  0.59470579156E+01  0.87953223646E+02  0.00000000000E+00 0. -1.
        -11    1    4    4    0    0  0.70145036148E+02 -0.65872813342E+02 -0.24426140041E+02  0.99278345832E+02  0.00000000000E+00 0. -1.
         11    1    4    4    0    0  0.27133350657E+02  0.29911601848E+02 -0.14425667658E+01  0.40410439763E+02  0.00000000000E+00 0.  1.
         21    1    1    2  502  501  0.23903583797E+02 -0.52944530165E+01 -0.41856379319E+02  0.48490917096E+02  0.00000000000E+00 0. -1.
<scales pt_clust_5="13000.00000" pt_clust_6="13000.00000" pt_clust_7="13000.00000" pt_clust_8="13000.00000" pt_clust_9="24.48290"></scales>
<clustering>
<clus scale="   24.483">  2  9  1 -1</clus>
<clus scale="   80.390">  5  6 -1 -1</clus>
<clus scale="   89.930">  7  8 -1 -1</clus>
<clus scale="  140.336">  2  5  1 -1</clus>
<clus scale="  146.011">  1  5  2 -1</clus>
</clustering>
</event>
<event>
 9    2  0.5608219E-005  0.9232191E+02  0.7546771E-02  0.1299140E+00
         -1   -1    0    0    0  501 -0.00000000000E+00  0.00000000000E+00  0.25130422777E+03  0.25130422777E+03  0.00000000000E+00 0.  1.
          2   -1    0    0  502    0  0.00000000000E+00 -0.00000000000E+00 -0.12029373136E+03  0.12029373136E+03  0.00000000000E+00 0. -1.
         23    2    1    2    0    0  0.60068489408E+02 -0.32920690208E+01  0.26974314969E+02  0.10949109693E+03  0.87416391483E+02 0.  0.
         24    2    1    2    0    0 -0.77431279837E+00  0.15514997624E+01 -0.45428473292E+02  0.10130104148E+03  0.90527057326E+02 0.  0.
        -11    1    4    4    0    0  0.19001937708E+02  0.13399666554E+02  0.20786101212E+02  0.31187925612E+02  0.00000000000E+00 0.  1.
         12    1    4    4    0    0 -0.19776250506E+02 -0.11848166792E+02 -0.66214574504E+02  0.70113115871E+02  0.00000000000E+00 0. -1.
        -13    1    3    3    0    0 -0.21397246771E+02  0.50621111764E+01  0.15260249176E+02  0.26764572551E+02  0.00000000000E+00 0. -1.
         13    1    3    3    0    0  0.81465736178E+02 -0.83541801972E+01  0.11714065793E+02  0.82726524376E+02  0.00000000000E+00 0.  1.
         21    1    1    2  502  501 -0.59294176609E+02  0.17405692584E+01  0.14946465474E+03  0.16080582072E+03  0.00000000000E+00 0. -1.
<scales pt_clust_5="13000.00000" pt_clust_6="13000.00000" pt_clust_7="13000.00000" pt_clust_8="13000.00000" pt_clust_9="59.31972"></scales>
<clustering>
<clus scale="   59.320">  1  9  2 -1</clus>
<clus scale="   87.416">  7  8 -1 -1</clus>
<clus scale="   89.274">  1  7  2 -1</clus>
<clus scale="   90.527">  5  6 -1 -1</clus>
<clus scale="   92.322">  2  5  1 -1</clus>
</clustering>
</event>
<event>
 9    2  0.5608219E-005  0.1391613E+03  0.7546771E-02  0.1214555E+00
          2   -1    0    0  502    0  0.00000000000E+00  0.00000000000E+00  0.36810535692E+03  0.36810535692E+03  0.00000000000E+00 0. -1.
         -1   -1    0    0    0  501 -0.00000000000E+00 -0.00000000000E+00 -0.24403089664E+03  0.24403089664E+03  0.00000000000E+00 0.  1.
         24    2    1    2    0    0 -0.11762439536E+03 -0.26386370826E+02 -0.55439757190E+02  0.15529529779E+03  0.80692774705E+02 0.  0.
         23    2    1    2    0    0  0.11261420956E+03  0.25752160997E+01  0.30189727736E+03  0.33206240633E+03  0.80217726767E+02 0.  0.
        -11    1    3    3    0    0 -0.25139450372E+02 -0.21676160840E+02 -0.53147855168E+02  0.62662129095E+02  0.00000000000E+00 0.  1.
         12    1    3    3    0    0 -0.92484944993E+02 -0.47102099859E+01 -0.22919020219E+01  0.92633168699E+02  0.00000000000E+00 0. -1.
        -13    1    4    4    0    0  0.74549691325E+02  0.39514726048E+02  0.16681054246E+03  0.18693535548E+03  0.00000000000E+00 0.  1.
         13    1    4    4    0    0  0.38064518237E+02 -0.36939509948E+02  0.13508673489E+03  0.14512705085E+03  0.00000000000E+00 0. -1.
         21    1    1    2  502  501  0.50101858027E+01  0.23811154726E+02 -0.12238305989E+03  0.12477854944E+03  0.00000000000E+00 0.  1.
<scales pt_clust_5="13000.00000" pt_clust_6="13000.00000" pt_clust_7="13000.00000" pt_clust_8="13000.00000" pt_clust_9="24.33255"></scales>
<clustering>
<clus scale="   24.333">  2  9  1 -1</clus>
<clus scale="   80.218">  7  8 -1 -1</clus>
<clus scale="   80.693">  5  6 -1 -1</clus>
<clus scale="  138.886">  1  7  2 -1</clus>
<clus scale="  138.886">  1  5  2 -1</clus>
</clustering>
</event>
<event>
 9    2  0.5608219E-005  0.9627340E+02  0.7546771E-02  0.1295800E+00
          2   -1    0    0  502    0  0.00000000000E+00  0.00000000000E+00  0.64397471159E+02  0.64397471159E+02  0.00000000000E+00 0. -1.
         -1   -1    0    0    0  501 -0.00000000000E+00 -0.00000000000E+00 -0.30471275712E+03  0.30471275712E+03  0.00000000000E+00 0.  1.
         23    2    1    2    0    0  0.25737168130E+02 -0.55532292770E+02 -0.15267720694E+03  0.18868524379E+03  0.92442167549E+02 0.  0.
         24    2    1    2    0    0 -0.92540042965E+01  0.16462141756E+02  0.16838308967E+01  0.81548420120E+02  0.79313749318E+02 0.  0.
        -13    1    4    4    0    0 -0.44431504653E+02  0.69856283839E+01 -0.12887291293E+01  0.44995760160E+02  0.00000000000E+00 0.  1.
         14    1    4    4    0    0  0.35177500356E+02  0.94765133716E+01  0.29725600260E+01  0.36552659959E+02  0.00000000000E+00 0. -1.
        -11    1    3    3    0    0  0.59431239264E+02 -0.25177169376E+02 -0.10172116496E+03  0.12047056678E+03  0.00000000000E+00 0. -1.
         11    1    3    3    0    0 -0.33694071135E+02 -0.30355123394E+02 -0.50956041980E+02  0.68214677015E+02  0.00000000000E+00 0.  1.
         21    1    1    2  502  501 -0.16483163833E+02  0.39070151014E+02 -0.89321909919E+02  0.98876564371E+02  0.00000000000E+00 0.  1.
<scales pt_clust_5="13000.00000" pt_clust_6="13000.00000" pt_clust_7="13000.00000" pt_clust_8="13000.00000" pt_clust_9="42.40485"></scales>
<clustering>
<clus scale="   42.405">  2  9  1 -1</clus>
<clus scale="   79.314">  5  6 -1 -1</clus>
<clus scale="   83.748">  1  5  2 -1</clus>
<clus scale="   92.442">  7  8 -1 -1</clus>
<clus scale="   83.748">  1  5  2 -1</clus>
</clustering>
</event>
<event>
 9    2  0.5608219E-005  0.9753143E+02  0.7546771E-02  0.1296845E+00
          2   -1    0    0  502    0  0.00000000000E+00  0.00000000000E+00  0.15387122075E+03  0.15387122075E+03  0.00000000000E+00 0. -1.
         -1   -1    0    0    0  501 -0.00000000000E+00 -0.00000000000E+00 -0.18721308438E+03  0.18721308438E+03  0.00000000000E+00 0.  1.
         23    2    1    2    0    0  0.46836102354E+01  0.30224495123E+02 -0.13005178871E+03  0.16224804943E+03  0.92062508585E+02 0.  0.
         24    2    1    2    0    0 -0.48962693898E+02 -0.33115344790E+02  0.96859665167E+02  0.13446265224E+03  0.72141795500E+02 0.  0.
        -11    1    4    4    0    0 -0.37281502213E+02 -0.38092337998E+02  0.20583406554E+02  0.57136794159E+02  0.00000000000E+00 0.  1.
         12    1    4    4    0    0 -0.11681191685E+02  0.49769932077E+01  0.76276258613E+02  0.77325858085E+02  0.00000000000E+00 0. -1.
        -11    1    3    3    0    0 -0.41125904050E+02  0.28697656421E+02 -0.79644957966E+02  0.94118089639E+02  0.00000000000E+00 0. -1.
         11    1    3    3    0    0  0.45809514285E+02  0.15268387014E+01 -0.50406830743E+02  0.68129959790E+02  0.00000000000E+00 0.  1.
         21    1    1    2  502  501  0.44279083662E+02  0.28908496671E+01 -0.14974008853E+00  0.44373603458E+02  0.00000000000E+00 0. -1.
<scales pt_clust_5="13000.00000" pt_clust_6="13000.00000" pt_clust_7="13000.00000" pt_clust_8="13000.00000" pt_clust_9="44.37335"></scales>
<clustering>
<clus scale="   44.373">  1  9  2 -1</clus>
<clus scale="   72.142">  5  6 -1 -1</clus>
<clus scale="   79.002">  1  5  2 -1</clus>
<clus scale="   92.063">  7  8 -1 -1</clus>
<clus scale="   44.373">  1  5  2 -1</clus>
</clustering>
</event>
<event>
 9    2  0.5608219E-005  0.1423801E+03  0.7546771E-02  0.1212692E+00
          2   -1    0    0  502    0  0.00000000000E+00  0.00000000000E+00  0.81228074989E+03  0.81228074989E+03  0.00000000000E+00 0. -1.
         -1   -1    0    0    0  501 -0.00000000000E+00 -0.00000000000E+00 -0.75938124750E+02  0.75938124750E+02  0.00000000000E+00 0.  1.
         24    2    1    2    0    0 -0.46140104849E+02  0.10177410866E+03  0.16726430334E+02  0.13838984048E+03  0.79906795749E+02 0.  0.
         23    2    1    2    0    0  0.14976247055E+02 -0.10778748490E+03  0.69556461968E+03  0.71000661595E+03  0.91960995315E+02 0.  0.
        -13    1    3    3    0    0 -0.20845941463E+02  0.10716059120E+03  0.23470034800E+02  0.11166372784E+03  0.00000000000E+00 0.  1.
         14    1    3    3    0    0 -0.25294163386E+02 -0.53864825387E+01 -0.67436044653E+01  0.26726112638E+02  0.00000000000E+00 0. -1.
        -13    1    4    4    0    0 -0.32350118019E+02 -0.22954705748E+02  0.12235957024E+03  0.12862858579E+03  0.00000000000E+00 0.  1.
         13    1    4    4    0    0  0.47326365074E+02 -0.84832779157E+02  0.57320504944E+03  0.58137803016E+03  0.00000000000E+00 0. -1.
         21    1    1    2  502  501  0.31163857794E+02  0.60133762397E+01  0.24051575130E+02  0.39822418217E+02  0.00000000000E+00 0.  1.
<scales pt_clust_5="13000.00000" pt_clust_6="13000.00000" pt_clust_7="13000.00000" pt_clust_8="13000.00000" pt_clust_9="31.73873"></scales>
<clustering>
<clus scale="   31.739">  2  9  1 -1</clus>
<clus scale="   79.907">  5  6 -1 -1</clus>
<clus scale="   91.961">  7  8 -1 -1</clus>
<clus scale="  134.909">  2  5  1 -1</clus>
<clus scale="  142.380">  1  5  2 -1</clus>
</clustering>
</event>
<event>
 9    2  0.5608219E-005  0.2142226E+03  0.7546771E-02  0.1148359E+00
         -1   -1    0    0    0  501 -0.00000000000E+00  0.00000000000E+00  0.10627223343E+03  0.10627223343E+03  0.00000000000E+00 0.  1.
          2   -1    0    0  502    0  0.00000000000E+00 -0.00000000000E+00 -0.10417299943E+04  0.10417299943E+04  0.00000000000E+00 0. -1.
         23    2    1    2    0    0 -0.21905786438E+03 -0.99544899786E+00 -0.12845570981E+03  0.27066371488E+03  0.93651686093E+02 0.  0.
         24    2    1    2    0    0  0.89898624237E+02 -0.11584019763E+03 -0.44209469491E+03  0.47299947663E+03  0.82341190176E+02 0.  0.
        -13    1    4    4    0    0  0.10409742386E+03 -0.10044342262E+03 -0.35327712961E+03  0.38174583837E+03  0.00000000000E+00 0.  1.
         14    1    4    4    0    0 -0.14198799625E+02 -0.15396775015E+02 -0.88817565298E+02  0.91253638268E+02  0.00000000000E+00 0. -1.
        -11    1    3    3    0    0 -0.84207466369E+02  0.21390633804E+02 -0.59154659200E+01  0.87083002612E+02  0.00000000000E+00 0.  1.
         11    1    3    3    0    0 -0.13485039801E+03 -0.22386082802E+02 -0.12254024389E+03  0.18358071227E+03  0.00000000000E+00 0. -1.
         21    1    1    2  502  501  0.12915924014E+03  0.11683564663E+03 -0.36490735619E+03  0.40433903625E+03  0.00000000000E+00 0.  1.
<scales pt_clust_5="13000.00000" pt_clust_6="13000.00000" pt_clust_7="13000.00000" pt_clust_8="13000.00000" pt_clust_9="192.66726"></scales>
<clustering>
<clus scale="   82.341">  5  6 -1 -1</clus>
<clus scale="   93.652">  7  8 -1 -1</clus>
<clus scale="  168.169">  2  5  1 -1</clus>
<clus scale="  192.667">  2  9  1 -1</clus>
<clus scale="  168.169">  2  5  1 -1</clus>
</clustering>
</event>
<event>
 9    2  0.5608219E-005  0.1002356E+03  0.7546771E-02  0.1284727E+00
         -1   -1    0    0    0  501 -0.00000000000E+00  0.00000000000E+00  0.12595888958E+03  0.12595888958E+03  0.00000000000E+00 0.  1.
          2   -1    0    0  502    0  0.00000000000E+00 -0.00000000000E+00 -0.21407013684E+03  0.21407013684E+03  0.00000000000E+00 0. -1.
         23    2    1    2    0    0 -0.35168027796E+02 -0.20491294079E+02  0.81383669064E+02  0.12812774693E+03  0.90203850428E+02 0.  0.
         24    2    1    2    0    0  0.52221190605E+02  0.37608611157E+02 -0.14196079585E+03  0.17526877076E+03  0.80154937856E+02 0.  0.
        -13    1    4    4    0    0  0.62465672001E+02  0.52099356506E+02 -0.94991418642E+02  0.12505867720E+03  0.00000000000E+00 0.  1.
         14    1    4    4    0    0 -0.10244481396E+02 -0.14490745349E+02 -0.46969377208E+02  0.50210093559E+02  0.00000000000E+00 0. -1.
        -11    1    3    3    0    0 -0.32775692687E+02  0.30100551692E+02  0.20683760876E+02  0.49072468934E+02  0.00000000000E+00 0. -1.
         11    1    3    3    0    0 -0.23923351092E+01 -0.50591845771E+02  0.60699908187E+02  0.79055278000E+02  0.00000000000E+00 0.  1.
         21    1    1    2  502  501 -0.17053162809E+02 -0.17117317078E+02 -0.27534120476E+02  0.36632508734E+02  0.00000000000E+00 0. -1.
<scales pt_clust_5="13000.00000" pt_clust_6="13000.00000" pt_clust_7="13000.00000" pt_clust_8="13000.00000" pt_clust_9="24.16222"></scales>
<clustering>
<clus scale="   24.162">  2  9  1 -1</clus>
<clus scale="   80.155">  5  6 -1 -1</clus>
<clus scale="   90.204">  7  8 -1 -1</clus>
<clus scale="   91.298">  2  5  1 -1</clus>
<clus scale="   24.162">  2  5  1 -1</clus>
</clustering>
</event>
<event>
 9    2  0.5608219E-005  0.9905386E+02  0.7546771E-02  0.1285731E+00
          2   -1    0    0  502    0  0.00000000000E+00  0.00000000000E+00  0.19673301644E+03  0.19673301644E+03  0.00000000000E+00 0. -1.
         -1   -1    0    0    0  501 -0.00000000000E+00 -0.00000000000E+00 -0.24339884622E+03  0.24339884622E+03  0.00000000000E+00 0.  1.
         23    2    1    2    0    0 -0.29093230476E+02  0.41684254674E+02 -0.17690849419E+03  0.20367836333E+03  0.87202449649E+02 0.  0.
         24    2    1    2    0    0 -0.31956895672E+02 -0.52083731395E+02  0.10014094550E+02  0.10121232206E+03  0.80060563266E+02 0.  0.
        -11    1    4    4    0    0  0.21143407634E+02 -0.38497511186E+02 -0.54585660361E+01  0.44259439638E+02  0.00000000000E+00 0.  1.
         12    1    4    4    0    0 -0.53100303306E+02 -0.13586220209E+02  0.15472660586E+02  0.56952882424E+02  0.00000000000E+00 0. -1.
        -13    1    3    3    0    0  0.16819652159E+02 -0.18278667771E+02 -0.53683516172E+02  0.59151756549E+02  0.00000000000E+00 0.  1.
         13    1    3    3    0    0 -0.45912882635E+02  0.59962922445E+02 -0.12322497802E+03  0.14452660678E+03  0.00000000000E+00 0. -1.
         21    1    1    2  502  501  0.61050126148E+02  0.10399476721E+02  0.12022856986E+03  0.13524117727E+03  0.00000000000E+00 0.  1.
<scales pt_clust_5="13000.00000" pt_clust_6="13000.00000" pt_clust_7="13000.00000" pt_clust_8="13000.00000" pt_clust_9="61.92953"></scales>
<clustering>
<clus scale="   61.930">  1  9  2 -1</clus>
<clus scale="   80.061">  5  6 -1 -1</clus>
<clus scale="   87.202">  7  8 -1 -1</clus>
<clus scale="   92.828">  1  5  2 -1</clus>
<clus scale="   61.930">  1  5  2 -1</clus>
</clustering>
</event>
<event>
 9    2  0.5608219E-005  0.9626601E+02  0.7546771E-02  0.1293017E+00
          2   -1    0    0  502    0  0.00000000000E+00  0.00000000000E+00  0.13266616121E+03  0.13266616121E+03  0.00000000000E+00 0. -1.
         -1   -1    0    0    0  501 -0.00000000000E+00 -0.00000000000E+00 -0.37258832501E+03  0.37258832501E+03  0.00000000000E+00 0.  1.
         24    2    1    2    0    0 -0.46180095067E+02  0.24615057962E+02 -0.29421035926E+03  0.30966650779E+03  0.81210272070E+02 0.  0.
         23    2    1    2    0    0  0.33467369695E+02 -0.27753562777E+01  0.10296279330E+03  0.14074454282E+03  0.89888386863E+02 0.  0.
        -13    1    3    3    0    0 -0.30965968294E+02  0.25493094323E+02 -0.46173473730E+02  0.61161905847E+02  0.00000000000E+00 0.  1.
         14    1    3    3    0    0 -0.15214126772E+02 -0.87803636152E+00 -0.24803688553E+03  0.24850460194E+03  0.00000000000E+00 0. -1.
        -11    1    4    4    0    0  0.40846694534E+02  0.36812366161E+02  0.50936921115E+02  0.74954470776E+02  0.00000000000E+00 0.  1.
         11    1    4    4    0    0 -0.73793248395E+01 -0.39587722438E+02  0.52025872182E+02  0.65790072042E+02  0.00000000000E+00 0. -1.
         21    1    1    2  502  501  0.12712725372E+02 -0.21839701684E+02 -0.48674597834E+02  0.54843435617E+02  0.00000000000E+00 0.  1.
<scales pt_clust_5="13000.00000" pt_clust_6="13000.00000" pt_clust_7="13000.00000" pt_clust_8="13000.00000" pt_clust_9="25.27026"></scales>
<clustering>
<clus scale="   25.270">  2  9  1 -1</clus>
<clus scale="   81.210">  5  6 -1 -1</clus>
<clus scale="   88.218">  2  5  1 -1</clus>
<clus scale="   89.888">  7  8 -1 -1</clus>
<clus scale="   96.266">  1  5  2 -1</clus>
</clustering>
</event>
<event>
 9    2  0.5608219E-005  0.1108592E+03  0.7546771E-02  0.1265509E+00
         -1   -1    0    0    0  501 -0.00000000000E+00  0.00000000000E+00  0.18624612314E+03  0.18624612314E+03  0.00000000000E+00 0.  1.
          2   -1    0    0  502    0  0.00000000000E+00 -0.00000000000E+00 -0.79394327607E+02  0.79394327607E+02  0.00000000000E+00 0. -1.
         23    2    1    2    0    0 -0.12201482082E+01 -0.56602103417E+02  0.74938895010E+02  0.13424532273E+03  0.95920184621E+02 0.  0.
         24    2    1    2    0    0  0.23939385908E+02  0.51387605406E+02  0.88469487436E+01  0.98601944535E+02  0.80189118819E+02 0.  0.
        -13    1    4    4    0    0  0.32577443050E+02 -0.80217943668E+01  0.17676103924E+02  0.37922073130E+02  0.00000000000E+00 0.  1.
         14    1    4    4    0    0 -0.86380571416E+01  0.59409399773E+02 -0.88291551806E+01  0.60679871405E+02  0.00000000000E+00 0. -1.
        -11    1    3    3    0    0  0.18219657932E+02 -0.16465611667E+02 -0.18475652710E+02  0.30731450434E+02  0.00000000000E+00 0. -1.
         11    1    3    3    0    0 -0.19439806140E+02 -0.40136491750E+02  0.93414547720E+02  0.10351387230E+03  0.00000000000E+00 0.  1.
         21    1    1    2  502  501 -0.22719237700E+02  0.52144980114E+01  0.23065951781E+02  0.32793183480E+02  0.00000000000E+00 0.  1.
<scales pt_clust_5="13000.00000" pt_clust_6="13000.00000" pt_clust_7="13000.00000" pt_clust_8="13000.00000" pt_clust_9="23.30997"></scales>
<clustering>
<clus scale="   23.310">  1  9  2 -1</clus>
<clus scale="   80.189">  5  6 -1 -1</clus>
<clus scale="   95.920">  7  8 -1 -1</clus>
<clus scale="   97.567">  2  5  1 -1</clus>
<clus scale="   97.567">  2  5  1 -1</clus>
</clustering>
</event>
<event>
 9    2  0.5608219E-005  0.2092881E+03  0.7546771E-02  0.1143280E+00
          2   -1    0    0  502    0  0.00000000000E+00  0.00000000000E+00  0.11471462664E+04  0.11471462664E+04  0.00000000000E+00 0. -1.
         -1   -1    0    0    0  501 -0.00000000000E+00 -0.00000000000E+00 -0.55027266963E+02  0.55027266963E+02  0.00000000000E+00 0.  1.
         24    2    1    2    0    0  0.14735271839E+03  0.49081535901E+02  0.24271636500E+03  0.29957479929E+03  0.81926831656E+02 0.  0.
         23    2    1    2    0    0 -0.18687976629E+03 -0.80328985445E+02  0.80398268414E+03  0.83476244215E+03  0.95201814520E+02 0.  0.
        -13    1    3    3    0    0  0.14071084000E+03  0.53824890948E+02  0.17308586687E+03  0.22946759398E+03  0.00000000000E+00 0.  1.
         14    1    3    3    0    0  0.66418783974E+01 -0.47433550471E+01  0.69630498134E+02  0.70107205309E+02  0.00000000000E+00 0. -1.
        -11    1    4    4    0    0 -0.16387775904E+03 -0.41210016948E+02  0.71711818851E+03  0.73675822472E+03  0.00000000000E+00 0. -1.
         11    1    4    4    0    0 -0.23002007250E+02 -0.39118968497E+02  0.86864495627E+02  0.98004217431E+02  0.00000000000E+00 0.  1.
         21    1    1    2  502  501  0.39527047893E+02  0.31247449544E+02  0.45419950336E+02  0.67836291958E+02  0.00000000000E+00 0.  1.
<scales pt_clust_5="13000.00000" pt_clust_6="13000.00000" pt_clust_7="13000.00000" pt_clust_8="13000.00000" pt_clust_9="50.38641"></scales>
<clustering>
<clus scale="   50.386">  2  9  1 -1</clus>
<clus scale="   81.927">  5  6 -1 -1</clus>
<clus scale="   95.202">  7  8 -1 -1</clus>
<clus scale="  203.593">  2  5  1 -1</clus>
<clus scale="  209.288">  1  5  2 -1</clus>
</clustering>
</event>
<event>
 9    2  0.5608219E-005  0.1047212E+03  0.7546771E-02  0.1275987E+00
         -1   -1    0    0    0  501 -0.00000000000E+00  0.00000000000E+00  0.64453240968E+03  0.64453240968E+03  0.00000000000E+00 0.  1.
          2   -1    0    0  502    0  0.00000000000E+00 -0.00000000000E+00 -0.21874817670E+02  0.21874817670E+02  0.00000000000E+00 0. -1.
         23    2    1    2    0    0  0.16148607202E+01  0.65158402316E+02  0.40192746094E+03  0.41710710379E+03  0.90467823031E+02 0.  0.
         24    2    1    2    0    0 -0.27353968672E+00 -0.35369344760E+02  0.16392655461E+03  0.18514536232E+03  0.78459062624E+02 0.  0.
        -13    1    4    4    0    0 -0.24441660595E+02 -0.21292690319E+02  0.15080869338E+03  0.15425315372E+03  0.00000000000E+00 0.  1.
         14    1    4    4    0    0  0.24168120909E+02 -0.14076654440E+02  0.13117861226E+02  0.30892208591E+02  0.00000000000E+00 0. -1.
        -11    1    3    3    0    0 -0.37179636298E+02  0.60889297127E+02  0.28696067040E+03  0.29569622625E+03  0.00000000000E+00 0.  1.
         11    1    3    3    0    0  0.38794497018E+02  0.42691051883E+01  0.11496679054E+03  0.12141087754E+03  0.00000000000E+00 0. -1.
         21    1    1    2  502  501 -0.13413210335E+01 -0.29789057556E+02  0.56803576456E+02  0.64154761245E+02  0.00000000000E+00 0.  1.
<scales pt_clust_5="13000.00000" pt_clust_6="13000.00000" pt_clust_7="13000.00000" pt_clust_8="13000.00000" pt_clust_9="29.81924"></scales>
<clustering>
<clus scale="   29.819">  2  9  1 -1</clus>
<clus scale="   78.459">  5  6 -1 -1</clus>
<clus scale="   90.468">  7  8 -1 -1</clus>
<clus scale="   94.541">  2  5  1 -1</clus>
<clus scale="   29.819">  2  5  1 -1</clus>
</clustering>
</event>
<event>
 9    2  0.5608219E-005  0.2048031E+03  0.7546771E-02  0.1146568E+00
         -1   -1    0    0    0  501 -0.00000000000E+00  0.00000000000E+00  0.39906153070E+02  0.39906153070E+02  0.00000000000E+00 0.  1.
          2   -1    0    0  502    0  0.00000000000E+00 -0.00000000000E+00 -0.17548609781E+04  0.17548609781E+04  0.00000000000E+00 0. -1.
         23    2    1    2    0    0 -0.31187914126E+02  0.14369980442E+03 -0.28871024551E+03  0.33654978942E+03  0.91048531636E+02 0.  0.
         24    2    1    2    0    0  0.36820092012E+02 -0.19256277289E+03 -0.13555761118E+04  0.13721165668E+04  0.81738224646E+02 0.  0.
        -13    1    4    4    0    0  0.41294496257E+02 -0.12401781646E+03 -0.63750545754E+03  0.65076790226E+03  0.00000000000E+00 0.  1.
         14    1    4    4    0    0 -0.44744042449E+01 -0.68544956434E+02 -0.71807065423E+03  0.72134866453E+03  0.00000000000E+00 0. -1.
        -13    1    3    3    0    0 -0.28861574221E+02  0.86492505106E+02 -0.83971797301E+02  0.12395647078E+03  0.00000000000E+00 0.  1.
         13    1    3    3    0    0 -0.23263399042E+01  0.57207299315E+02 -0.20473844821E+03  0.21259331864E+03  0.00000000000E+00 0. -1.
         21    1    1    2  502  501 -0.56321778864E+01  0.48862968470E+02 -0.70668467709E+02  0.86100774932E+02  0.00000000000E+00 0.  1.
<scales pt_clust_5="13000.00000" pt_clust_6="13000.00000" pt_clust_7="13000.00000" pt_clust_8="13000.00000" pt_clust_9="49.18649"></scales>
<clustering>
<clus scale="   49.186">  1  9  2 -1</clus>
<clus scale="   81.738">  5  6 -1 -1</clus>
<clus scale="   91.049">  7  8 -1 -1</clus>
<clus scale="  200.837">  2  5  1 -1</clus>
<clus scale="  200.837">  2  5  1 -1</clus>
</clustering>
</event>
<event>
 9    2  0.5608219E-005  0.1188682E+03  0.7546771E-02  0.1248103E+00
         -1   -1    0    0    0  501 -0.00000000000E+00  0.00000000000E+00  0.12058037917E+03  0.12058037917E+03  0.00000000000E+00 0.  1.
          2   -1    0    0  502    0  0.00000000000E+00 -0.00000000000E+00 -0.30330634671E+03  0.30330634671E+03  0.00000000000E+00 0. -1.
         23    2    1    2    0    0 -0.71302744924E+02 -0.42825235525E+01  0.35155725225E+02  0.12007654030E+03  0.89888981932E+02 0.  0.
         24    2    1    2    0    0  0.94187033529E+02 -0.52165857622E+02 -0.88299708474E+02  0.16062638393E+03  0.80071984560E+02 0.  0.
        -13    1    4    4    0    0  0.10789750863E+03 -0.52730467057E+02 -0.75453129060E+02  0.14182929602E+03  0.00000000000E+00 0.  1.
         14    1    4    4    0    0 -0.13710475100E+02  0.56460943540E+00 -0.12846579415E+02  0.18797087911E+02  0.00000000000E+00 0. -1.
        -11    1    3    3    0    0 -0.23675068425E+01  0.23537439409E+02  0.39028940176E+02  0.45638517875E+02  0.00000000000E+00 0.  1.
         11    1    3    3    0    0 -0.68935238082E+02 -0.27819962962E+02 -0.38732149507E+01  0.74438022425E+02  0.00000000000E+00 0. -1.
         21    1    1    2  502  501 -0.22884288605E+02  0.56448381174E+02 -0.12958198429E+03  0.14318380165E+03  0.00000000000E+00 0.  1.
<scales pt_clust_5="13000.00000" pt_clust_6="13000.00000" pt_clust_7="13000.00000" pt_clust_8="13000.00000" pt_clust_9="60.91068"></scales>
<clustering>
<clus scale="   60.911">  2  9  1 -1</clus>
<clus scale="   80.072">  5  6 -1 -1</clus>
<clus scale="   89.889">  7  8 -1 -1</clus>
<clus scale="  111.629">  2  5  1 -1</clus>
<clus scale="   60.911">  2  5  1 -1</clus>
</clustering>
</event>
<event>
 9    2  0.5608219E-005  0.1182383E+03  0.7546771E-02  0.1254471E+00
          2   -1    0    0  502    0  0.00000000000E+00  0.00000000000E+00  0.22543298944E+03  0.22543298944E+03  0.00000000000E+00 0. -1.
         -1   -1    0    0    0  501 -0.00000000000E+00 -0.00000000000E+00 -0.11680253098E+03  0.11680253098E+03  0.00000000000E+00 0.  1.
         23    2    1    2    0    0  0.51210867706E+02  0.15499876294E+02  0.27545871393E+01  0.10752986070E+03  0.93232419550E+02 0.  0.
         24    2    1    2    0    0 -0.11772805328E+03  0.12170518725E+02  0.78207075410E+02  0.15753216035E+03  0.68498312717E+02 0.  0.
        -13    1    4    4    0    0 -0.89185814122E+01 -0.20873012640E+02  0.90382830552E+01  0.24431829888E+02  0.00000000000E+00 0.  1.
         14    1    4    4    0    0 -0.10880947187E+03  0.33043531365E+02  0.69168792355E+02  0.13310033046E+03  0.00000000000E+00 0. -1.
        -11    1    3    3    0    0 -0.17907088267E+02  0.30795704250E+02 -0.62552193469E+01  0.36168591064E+02  0.00000000000E+00 0. -1.
         11    1    3    3    0    0  0.69117955974E+02 -0.15295827956E+02  0.90098064861E+01  0.71361269634E+02  0.00000000000E+00 0.  1.
         21    1    1    2  502  501  0.66517185577E+02 -0.27670395019E+02  0.27668795913E+02  0.77173499369E+02  0.00000000000E+00 0.  1.
<scales pt_clust_5="13000.00000" pt_clust_6="13000.00000" pt_clust_7="13000.00000" pt_clust_8="13000.00000" pt_clust_9="72.04295"></scales>
<clustering>
<clus scale="   68.498">  5  6 -1 -1</clus>
<clus scale="   72.043">  1  9  2 -1</clus>
<clus scale="   93.232">  7  8 -1 -1</clus>
<clus scale="   99.900">  1  5  2 -1</clus>
<clus scale="   72.043">  1  5  2 -1</clus>
</clustering>
</event>
<event>
 9    2  0.5608219E-005  0.9373259E+02  0.7546771E-02  0.1299543E+00
         -1   -1    0    0    0  501 -0.00000000000E+00  0.00000000000E+00  0.21326870438E+03  0.21326870438E+03  0.00000000000E+00 0.  1.
          2   -1    0    0  502    0  0.00000000000E+00 -0.00000000000E+00 -0.94454292484E+02  0.94454292484E+02  0.00000000000E+00 0. -1.
         24    2    1    2    0    0  0.98923689364E+01  0.35217073316E+02  0.84463985152E+02  0.12211789436E+03  0.80252813778E+02 0.  0.
         23    2    1    2    0    0 -0.22014592760E+02 -0.14174849991E+02 -0.44174191599E+02  0.10341119057E+03  0.89760495013E+02 0.  0.
        -11    1    3    3    0    0  0.40001787564E+01  0.21372826349E+02  0.98902662359E+02  0.10126468169E+03  0.00000000000E+00 0.  1.
         12    1    3    3    0    0  0.58921901800E+01  0.13844246966E+02 -0.14438677207E+02  0.20853212670E+02  0.00000000000E+00 0. -1.
        -11    1    4    4    0    0 -0.36847002278E+02 -0.31891071817E+02  0.50912811904E+01  0.48996562968E+02  0.00000000000E+00 0. -1.
         11    1    4    4    0    0  0.14832409518E+02  0.17716221826E+02 -0.49265472789E+02  0.54414627602E+02  0.00000000000E+00 0.  1.
         21    1    1    2  502  501  0.12122223824E+02 -0.21042223325E+02  0.78524618340E+02  0.82193911930E+02  0.00000000000E+00 0. -1.
<scales pt_clust_5="13000.00000" pt_clust_6="13000.00000" pt_clust_7="13000.00000" pt_clust_8="13000.00000" pt_clust_9="24.28422"></scales>
<clustering>
<clus scale="   24.284">  1  9  2 -1</clus>
<clus scale="   80.253">  5  6 -1 -1</clus>
<clus scale="   84.672">  1  5  2 -1</clus>
<clus scale="   89.760">  7  8 -1 -1</clus>
<clus scale="   93.733">  2  5  1 -1</clus>
</clustering>
</event>
<event>
 9    2  0.5608219E-005  0.1248336E+03  0.7546771E-02  0.1244205E+00
         -1   -1    0    0    0  501 -0.00000000000E+00  0.00000000000E+00  0.43189195189E+03  0.43189195189E+03  0.00000000000E+00 0.  1.
          2   -1    0    0  502    0  0.00000000000E+00 -0.00000000000E+00 -0.26286037421E+03  0.26286037421E+03  0.00000000000E+00 0. -1.
         23    2    1    2    0    0 -0.65629781203E+02  0.21724889427E+02  0.21548829495E+03  0.24359034517E+03  0.90121096295E+02 0.  0.
         24    2    1    2    0    0 -0.46314779185E+02 -0.47571430738E+02 -0.21976461790E+03  0.24323108684E+03  0.80354057353E+02 0.  0.
        -11    1    4    4    0    0 -0.70190101379E+01 -0.61919082345E+02 -0.13629726909E+03  0.14986722398E+03  0.00000000000E+00 0.  1.
         12    1    4    4    0    0 -0.39295769047E+02  0.14347651607E+02 -0.83467348807E+02  0.93363862862E+02  0.00000000000E+00 0. -1.
        -13    1    3    3    0    0 -0.11688273734E+02  0.30969250106E+02  0.16769654267E+03  0.17093226910E+03  0.00000000000E+00 0.  1.
         13    1    3    3    0    0 -0.53941507470E+02 -0.92443606785E+01  0.47791752278E+02  0.72658076070E+02  0.00000000000E+00 0. -1.
         21    1    1    2  502  501  0.11194456039E+03  0.25846541311E+02  0.17330790063E+03  0.20793089410E+03  0.00000000000E+00 0.  1.
<scales pt_clust_5="13000.00000" pt_clust_6="13000.00000" pt_clust_7="13000.00000" pt_clust_8="13000.00000" pt_clust_9="86.38069"></scales>
<clustering>
<clus scale="   80.354">  5  6 -1 -1</clus>
<clus scale="   90.121">  7  8 -1 -1</clus>
<clus scale="  104.235">  2  5  1 -1</clus>
<clus scale="   86.381">  2  9  1 -1</clus>
<clus scale="  104.235">  2  5  1 -1</clus>
</clustering>
</event>
<event>
 9    2  0.5608219E-005  0.1399745E+03  0.7546771E-02  0.1237786E+00
         -1   -1    0    0    0  501 -0.00000000000E+00  0.00000000000E+00  0.14581291102E+03  0.14581291102E+03  0.00000000000E+00 0.  1.
          2   -1    0    0  502    0  0.00000000000E+00 -0.00000000000E+00 -0.35215141146E+03  0.35215141146E+03  0.00000000000E+00 0. -1.
         23    2    1    2    0    0 -0.11283447931E+03  0.41939622844E+02  0.36236868561E+02  0.15324342226E+03  0.87634948161E+02 0.  0.
         24    2    1    2    0    0  0.18079408168E+02 -0.14666311153E+02 -0.23047522018E+03  0.24537921390E+03  0.80933094674E+02 0.  0.
        -11    1    4    4    0    0 -0.26956046894E+02 -0.13413053821E+02 -0.15144739247E+03  0.15441130517E+03  0.00000000000E+00 0.  1.
         12    1    4    4    0    0  0.45035455062E+02 -0.12532573321E+01 -0.79027827712E+02  0.90967908734E+02  0.00000000000E+00 0. -1.
        -13    1    3    3    0    0 -0.34496624274E+02 -0.26459008457E+02  0.20490312143E+02  0.48061929909E+02  0.00000000000E+00 0. -1.
         13    1    3    3    0    0 -0.78337855033E+02  0.68398631301E+02  0.15746556418E+02  0.10518149236E+03  0.00000000000E+00 0.  1.
         21    1    1    2  502  501  0.94755071139E+02 -0.27273311691E+02 -0.12100148821E+02  0.99341686309E+02  0.00000000000E+00 0. -1.
<scales pt_clust_5="13000.00000" pt_clust_6="13000.00000" pt_clust_7="13000.00000" pt_clust_8="13000.00000" pt_clust_9="109.14655"></scales>
<clustering>
<clus scale="   80.933">  5  6 -1 -1</clus>
<clus scale="   84.215">  2  5  1 -1</clus>
<clus scale="   87.635">  7  8 -1 -1</clus>
<clus scale="  109.147">  2  9  1 -1</clus>
<clus scale="   84.215">  2  5  1 -1</clus>
</clustering>
</event>
<event>
 9    2  0.5608219E-005  0.1136647E+03  0.7546771E-02  0.1258375E+00
          2   -1    0    0  502    0  0.00000000000E+00  0.00000000000E+00  0.14024374405E+03  0.14024374405E+03  0.00000000000E+00 0. -1.
         -1   -1    0    0    0  501 -0.00000000000E+00 -0.00000000000E+00 -0.30324289405E+03  0.30324289405E+03  0.00000000000E+00 0.  1.
         24    2    1    2    0    0 -0.16540497308E+02  0.20256632769E+02 -0.16169169819E+03  0.18158368046E+03  0.78386915510E+02 0.  0.
         23    2    1    2    0    0  0.67798265815E+02 -0.33985618857E+02  0.95181499816E+02  0.15178501324E+03  0.90705816798E+02 0.  0.
        -13    1    3    3    0    0 -0.76555407183E+01 -0.25091850177E+02 -0.21330422860E+02  0.33811169581E+02  0.00000000000E+00 0.  1.
         14    1    3    3    0    0 -0.88849565900E+01  0.45348482947E+02 -0.14036127533E+03  0.14777251088E+03  0.00000000000E+00 0. -1.
        -11    1    4    4    0    0  0.18396179470E+02  0.18605195050E+02  0.71029303971E+02  0.75695011226E+02  0.00000000000E+00 0. -1.
         11    1    4    4    0    0  0.49402086345E+02 -0.52590813907E+02  0.24152195845E+02  0.76090002016E+02  0.00000000000E+00 0.  1.
         21    1    1    2  502  501 -0.51257768507E+02  0.13728986087E+02 -0.96488951622E+02  0.11011794439E+03  0.00000000000E+00 0.  1.
<scales pt_clust_5="13000.00000" pt_clust_6="13000.00000" pt_clust_7="13000.00000" pt_clust_8="13000.00000" pt_clust_9="53.06453"></scales>
<clustering>
<clus scale="   53.065">  2  9  1 -1</clus>
<clus scale="   78.387">  5  6 -1 -1</clus>
<clus scale="   90.706">  7  8 -1 -1</clus>
<clus scale="  104.099">  2  5  1 -1</clus>
<clus scale="  113.665">  1  5  2 -1</clus>
</clustering>
</event>
<event>
 9    2  0.5608219E-005  0.1014055E+03  0.7546771E-02  0.1281960E+00
          2   -1    0    0  502    0  0.00000000000E+00  0.00000000000E+00  0.16440962461E+03  0.16440962461E+03  0.00000000000E+00 0. -1.
         -1   -1    0    0    0  501 -0.00000000000E+00 -0.00000000000E+00 -0.64337366040E+03  0.64337366040E+03  0.00000000000E+00 0.  1.
         24    2    1    2    0    0  0.11191222915E+02  0.29262861090E+02 -0.43826146991E+03  0.44674689087E+03  0.80796720153E+02 0.  0.
         23    2    1    2    0    0 -0.45758910646E+02 -0.10416848869E+02  0.14164841340E+03  0.17448351461E+03  0.90431383983E+02 0.  0.
        -11    1    3    3    0    0  0.20017575875E+02  0.54102298460E+02 -0.24522220644E+03  0.25191604271E+03  0.00000000000E+00 0.  1.
         12    1    3    3    0    0 -0.88263529605E+01 -0.24839437370E+02 -0.19303926347E+03  0.19483084816E+03  0.00000000000E+00 0. -1.
        -11    1    4    4    0    0 -0.20052244477E+02  0.39967296188E+02  0.72063608936E+02  0.84809439369E+02  0.00000000000E+00 0.  1.
         11    1    4    4    0    0 -0.25706666169E+02 -0.50384145057E+02  0.69584804463E+02  0.89674075244E+02  0.00000000000E+00 0. -1.
         21    1    1    2  502  501  0.34567687732E+02 -0.18846012221E+02 -0.18235097928E+03  0.18655287952E+03  0.00000000000E+00 0. -1.
<scales pt_clust_5="13000.00000" pt_clust_6="13000.00000" pt_clust_7="13000.00000" pt_clust_8="13000.00000" pt_clust_9="39.37127"></scales>
<clustering>
<clus scale="   39.371">  2  9  1 -1</clus>
<clus scale="   80.797">  5  6 -1 -1</clus>
<clus scale="   90.431">  7  8 -1 -1</clus>
<clus scale="   92.916">  2  5  1 -1</clus>
<clus scale="  101.406">  1  5  2 -1</clus>
</clustering>
</event>
<event>
 9    2  0.5608219E-005  0.1015352E+03  0.7546771E-02  0.1279201E+00
          2   -1    0    0  502    0  0.00000000000E+00  0.00000000000E+00  0.79017565624E+02  0.79017565624E+02  0.00000000000E+00 0. -1.
         -1   -1    0    0    0  501 -0.00000000000E+00 -0.00000000000E+00 -0.18740174791E+03  0.18740174791E+03  0.00000000000E+00 0.  1.
         24    2    1    2    0    0 -0.22512968115E+02  0.42485824212E+02 -0.10814091697E+03  0.14739292222E+03  0.87854064243E+02 0.  0.
         23    2    1    2    0    0  0.21576708038E+02 -0.20430946259E+02 -0.10262398348E+01  0.96937768143E+02  0.92265377198E+02 0.  0.
        -13    1    3    3    0    0 -0.35182899656E+02  0.63748257599E+02 -0.93949290674E+02  0.11886187780E+03  0.00000000000E+00 0.  1.
         14    1    3    3    0    0  0.12669931541E+02 -0.21262433387E+02 -0.14191626296E+02  0.28531044420E+02  0.00000000000E+00 0. -1.
        -11    1    4    4    0    0 -0.22545074559E+02  0.80061104579E+01 -0.28889025280E+02  0.37509385134E+02  0.00000000000E+00 0.  1.
         11    1    4    4    0    0  0.44121782597E+02 -0.28437056717E+02  0.27862785445E+02  0.59428383009E+02  0.00000000000E+00 0. -1.
         21    1    1    2  502  501  0.93626007735E+00 -0.22054877953E+02  0.78297452331E+00  0.22088623170E+02  0.00000000000E+00 0.  1.
<scales pt_clust_5="13000.00000" pt_clust_6="13000.00000" pt_clust_7="13000.00000" pt_clust_8="13000.00000" pt_clust_9="22.07474"></scales>
<clustering>
<clus scale="   22.075">  1  9  2 -1</clus>
<clus scale="   87.854">  5  6 -1 -1</clus>
<clus scale="   92.265">  7  8 -1 -1</clus>
<clus scale="   97.544">  2  5  1 -1</clus>
<clus scale="   22.075">  1  5  2 -1</clus>
</clustering>
</event>
<event>
 9    2  0.5608219E-005  0.9578596E+02  0.7546771E-02  0.1297516E+00
         -3   -1    0    0    0  501 -0.00000000000E+00  0.00000000000E+00  0.44639995682E+02  0.44639995682E+02  0.00000000000E+00 0.  1.
          4   -1    0    0  502    0  0.00000000000E+00 -0.00000000000E+00 -0.27383868388E+03  0.27383868388E+03  0.00000000000E+00 0. -1.
         23    2    1    2    0    0  0.24685928164E+02 -0.25359484418E+02 -0.62258765399E+02  0.11728274695E+03  0.92879439940E+02 0.  0.
         24    2    1    2    0    0 -0.80597980952E+01 -0.20020566118E+01 -0.12977502674E+03  0.15214176227E+03  0.78972081688E+02 0.  0.
        -13    1    4    4    0    0 -0.42311023870E+02  0.37088840911E+01 -0.88781191713E+02  0.98417877258E+02  0.00000000000E+00 0.  1.
         14    1    4    4    0    0  0.34251225775E+02 -0.57109407029E+01 -0.40993835026E+02  0.53723885014E+02  0.00000000000E+00 0. -1.
        -11    1    3    3    0    0 -0.14529459815E+02 -0.27863977128E+02  0.11700804404E+02  0.33532301556E+02  0.00000000000E+00 0.  1.
         11    1    3    3    0    0  0.39215387979E+02  0.25044927098E+01 -0.73959569803E+02  0.83750445393E+02  0.00000000000E+00 0. -1.
         21    1    1    2  502  501 -0.16626130069E+02  0.27361541030E+02 -0.37164896057E+02  0.49054170338E+02  0.00000000000E+00 0. -1.
<scales pt_clust_5="13000.00000" pt_clust_6="13000.00000" pt_clust_7="13000.00000" pt_clust_8="13000.00000" pt_clust_9="32.01690"></scales>
<clustering>
<clus scale="   32.017">  2  9  1 -1</clus>
<clus scale="   78.972">  5  6 -1 -1</clus>
<clus scale="   82.371">  2  5  1 -1</clus>
<clus scale="   92.879">  7  8 -1 -1</clus>
<clus scale="   32.017">  2  5  1 -1</clus>
</clustering>
</event>
<event>
 9    2  0.5608219E-005  0.1011029E+03  0.7546771E-02  0.1285050E+00
         -1   -1    0    0    0  501 -0.00000000000E+00  0.00000000000E+00  0.70033150213E+03  0.70033150213E+03  0.00000000000E+00 0.  1.
          2   -1    0    0  502    0  0.00000000000E+00 -0.00000000000E+00 -0.19009760937E+02  0.19009760937E+02  0.00000000000E+00 0. -1.
         23    2    1    2    0    0 -0.27158745116E+02 -0.29774174751E+00  0.39624092341E+03  0.40957880364E+03  0.10005119149E+03 0.  0.
         24    2    1    2    0    0  0.46537046536E+01 -0.12860988082E+02  0.16769235922E+03  0.18951405312E+03  0.87222628982E+02 0.  0.
        -13    1    4    4    0    0  0.32341692620E+02 -0.23527270703E+02  0.33770701388E+02  0.52344797454E+02  0.00000000000E+00 0.  1.
         14    1    4    4    0    0 -0.27687987966E+02  0.10666282621E+02  0.13392165784E+03  0.13716925567E+03  0.00000000000E+00 0. -1.
        -11    1    3    3    0    0 -0.42558549963E+02  0.40140230675E+02  0.26529053044E+03  0.27166437719E+03  0.00000000000E+00 0. -1.
         11    1    3    3    0    0  0.15399804847E+02 -0.40437972423E+02  0.13095039298E+03  0.13791442645E+03  0.00000000000E+00 0.  1.
         21    1    1    2  502  501  0.22505040462E+02  0.13158729830E+02  0.11738845856E+03  0.12024840631E+03  0.00000000000E+00 0. -1.
<scales pt_clust_5="13000.00000" pt_clust_6="13000.00000" pt_clust_7="13000.00000" pt_clust_8="13000.00000" pt_clust_9="26.06970"></scales>
<clustering>
<clus scale="   26.070">  1  9  2 -1</clus>
<clus scale="   87.223">  5  6 -1 -1</clus>
<clus scale="   88.427">  2  5  1 -1</clus>
<clus scale="  100.051">  7  8 -1 -1</clus>
<clus scale="   88.427">  2  5  1 -1</clus>
</clustering>
</event>
<event>
 9    2  0.5608219E-005  0.1460629E+03  0.7546771E-02  0.1206087E+00
          2   -1    0    0  502    0  0.00000000000E+00  0.00000000000E+00  0.38088221810E+03  0.38088221810E+03  0.00000000000E+00 0. -1.
         -1   -1    0    0    0  501 -0.00000000000E+00 -0.00000000000E+00 -0.22031190781E+03  0.22031190781E+03  0.00000000000E+00 0.  1.
         24    2    1    2    0    0 -0.50229119987E+02  0.11218758300E+03 -0.15976009775E+03  0.21976896096E+03  0.87556205348E+02 0.  0.
         23    2    1    2    0    0  0.29541893935E+02 -0.11275243193E+03  0.32900464104E+03  0.35898585360E+03  0.83910397758E+02 0.  0.
        -13    1    3    3    0    0 -0.48075838759E+02  0.52596250044E+02 -0.13975423580E+03  0.15687223533E+03  0.00000000000E+00 0.  1.
         14    1    3    3    0    0 -0.21532812281E+01  0.59591332954E+02 -0.20005861945E+02  0.62896725634E+02  0.00000000000E+00 0. -1.
        -13    1    4    4    0    0  0.37864710069E+02 -0.37134322289E+02  0.21838214517E+03  0.22472973878E+03  0.00000000000E+00 0. -1.
         13    1    4    4    0    0 -0.83228161334E+01 -0.75618109645E+02  0.11062249587E+03  0.13425611483E+03  0.00000000000E+00 0.  1.
         21    1    1    2  502  501  0.20687226052E+02  0.56484893538E+00 -0.86742330050E+01  0.22439311359E+02  0.00000000000E+00 0.  1.
<scales pt_clust_5="13000.00000" pt_clust_6="13000.00000" pt_clust_7="13000.00000" pt_clust_8="13000.00000" pt_clust_9="20.69494"></scales>
<clustering>
<clus scale="   20.695">  2  9  1 -1</clus>
<clus scale="   83.910">  7  8 -1 -1</clus>
<clus scale="   87.556">  5  6 -1 -1</clus>
<clus scale="  143.907">  1  7  2 -1</clus>
<clus scale="  143.907">  1  5  2 -1</clus>
</clustering>
</event>
<event>
 9    2  0.5608219E-005  0.1066227E+03  0.7546771E-02  0.1272124E+00
          2   -1    0    0  502    0  0.00000000000E+00  0.00000000000E+00  0.17454332577E+03  0.17454332577E+03  0.00000000000E+00 0. -1.
         -1   -1    0    0    0  501 -0.00000000000E+00 -0.00000000000E+00 -0.89721196791E+02  0.89721196791E+02  0.00000000000E+00 0.  1.
         24    2    1    2    0    0 -0.50764157797E+02 -0.17836014121E+02  0.94315210336E+01  0.96950605702E+02  0.80095837847E+02 0.  0.
         23    2    1    2    0    0  0.55607692341E+02 -0.12391288529E+02  0.82216368858E+02  0.13594927651E+03  0.92070163443E+02 0.  0.
        -11    1    3    3    0    0 -0.56904195579E+02 -0.29928814028E+02 -0.17640934806E+02  0.66671012925E+02  0.00000000000E+00 0.  1.
         12    1    3    3    0    0  0.61400377816E+01  0.12092799907E+02  0.27072455840E+02  0.30279592777E+02  0.00000000000E+00 0. -1.
        -13    1    4    4    0    0  0.24934735148E+02  0.60347785884E-01  0.96665245464E+02  0.99829426220E+02  0.00000000000E+00 0. -1.
         13    1    4    4    0    0  0.30672957192E+02 -0.12451636315E+02 -0.14448876605E+02  0.36119850290E+02  0.00000000000E+00 0.  1.
         21    1    1    2  502  501 -0.48435345434E+01  0.30227302650E+02 -0.68257609111E+01  0.31364640351E+02  0.00000000000E+00 0.  1.
<scales pt_clust_5="13000.00000" pt_clust_6="13000.00000" pt_clust_7="13000.00000" pt_clust_8="13000.00000" pt_clust_9="30.61290"></scales>
<clustering>
<clus scale="   30.613">  2  9  1 -1</clus>
<clus scale="   80.096">  5  6 -1 -1</clus>
<clus scale="   92.070">  7  8 -1 -1</clus>
<clus scale="   96.472">  2  5  1 -1</clus>
<clus scale="  106.623">  1  5  2 -1</clus>
</clustering>
</event>
<event>
 9    2  0.5608219E-005  0.2903406E+03  0.7546771E-02  0.1090628E+00
         -1   -1    0    0    0  501 -0.00000000000E+00  0.00000000000E+00  0.27316204187E+03  0.27316204187E+03  0.00000000000E+00 0.  1.
          2   -1    0    0  502    0  0.00000000000E+00 -0.00000000000E+00 -0.10067855660E+04  0.10067855660E+04  0.00000000000E+00 0. -1.
         24    2    1    2    0    0 -0.85846035981E+02 -0.26787390417E+03  0.15721199240E+03  0.33208150491E+03  0.80228080628E+02 0.  0.
         23    2    1    2    0    0  0.89152836576E+02  0.20247619160E+03 -0.80509855254E+03  0.83998365427E+03  0.91891369027E+02 0.  0.
        -11    1    3    3    0    0 -0.10131131420E+03 -0.22997161092E+03  0.14009554800E+03  0.28771111690E+03  0.00000000000E+00 0.  1.
         12    1    3    3    0    0  0.15465278220E+02 -0.37902293250E+02  0.17116444397E+02  0.44370388018E+02  0.00000000000E+00 0. -1.
        -13    1    4    4    0    0  0.45751502814E+02  0.10844717921E+03 -0.58518970366E+03  0.59690952410E+03  0.00000000000E+00 0. -1.
         13    1    4    4    0    0  0.43401333762E+02  0.94029012382E+02 -0.21990884888E+03  0.24307413017E+03  0.00000000000E+00 0.  1.
         21    1    1    2  502  501 -0.33068005952E+01  0.65397712577E+02 -0.85736963995E+02  0.10788244869E+03  0.00000000000E+00 0.  1.
<scales pt_clust_5="13000.00000" pt_clust_6="13000.00000" pt_clust_7="13000.00000" pt_clust_8="13000.00000" pt_clust_9="65.48126"></scales>
<clustering>
<clus scale="   65.481">  2  9  1 -1</clus>
<clus scale="   80.228">  5  6 -1 -1</clus>
<clus scale="   91.891">  7  8 -1 -1</clus>
<clus scale="  286.863">  1  5  2 -1</clus>
<clus scale="   65.481">  2  5  1 -1</clus>
</clustering>
</event>
<event>
 9    2  0.5608219E-005  0.2543895E+03  0.7546771E-02  0.1131825E+00
          2   -1    0    0  502    0  0.00000000000E+00  0.00000000000E+00  0.49210908608E+03  0.49210908608E+03  0.00000000000E+00 0. -1.
         -1   -1    0    0    0  501 -0.00000000000E+00 -0.00000000000E+00 -0.33057642982E+03  0.33057642982E+03  0.00000000000E+00 0.  1.
         23    2    1    2    0    0 -0.68813701474E+01 -0.11534858132E+03 -0.13989378517E+03  0.20484316158E+03  0.95067351111E+02 0.  0.
         24    2    1    2    0    0 -0.34226272680E+02 -0.19899152938E+03  0.16395323702E+03  0.27230158187E+03  0.80612784663E+02 0.  0.
        -13    1    4    4    0    0 -0.23843301228E+02 -0.20097051258E+03  0.13989819502E+03  0.24602673617E+03  0.00000000000E+00 0.  1.
         14    1    4    4    0    0 -0.10382971452E+02  0.19789832017E+01  0.24055042003E+02  0.26274845698E+02  0.00000000000E+00 0. -1.
        -13    1    3    3    0    0 -0.29497714659E+02 -0.12067880569E+03 -0.12928832440E+03  0.17930131104E+03  0.00000000000E+00 0.  1.
         13    1    3    3    0    0  0.22616344511E+02  0.53302243705E+01 -0.10605460775E+02  0.25541850543E+02  0.00000000000E+00 0. -1.
         21    1    1    2  502  501  0.41107642828E+02  0.31434011071E+03  0.13747320442E+03  0.34554077246E+03  0.00000000000E+00 0. -1.
<scales pt_clust_5="13000.00000" pt_clust_6="13000.00000" pt_clust_7="13000.00000" pt_clust_8="13000.00000" pt_clust_9="241.27907"></scales>
<clustering>
<clus scale="   80.613">  5  6 -1 -1</clus>
<clus scale="   95.067">  7  8 -1 -1</clus>
<clus scale="  149.634">  2  7  1 -1</clus>
<clus scale="  241.279">  2  9  1 -1</clus>
<clus scale="  254.389">  1  5  2 -1</clus>
</clustering>
</event>
<event>
 9    2  0.5608219E-005  0.1096303E+03  0.7546771E-02  0.1264840E+00
          4   -1    0    0  502    0  0.00000000000E+00  0.00000000000E+00  0.10034622714E+03  0.10034622714E+03  0.00000000000E+00 0. -1.
         -3   -1    0    0    0  501 -0.00000000000E+00 -0.00000000000E+00 -0.66833059409E+03  0.66833059409E+03  0.00000000000E+00 0.  1.
         24    2    1    2    0    0  0.11416058552E+03 -0.56668311075E+02 -0.28191082978E+03  0.31916533064E+03  0.78414638750E+02 0.  0.
         23    2    1    2    0    0 -0.56248558869E+02  0.15755933767E+02  0.42220492497E+02  0.11364753694E+03  0.87869464788E+02 0.  0.
        -13    1    3    3    0    0  0.72882517591E+02 -0.22111570097E+02 -0.23738560234E+03  0.24930444661E+03  0.00000000000E+00 0.  1.
         14    1    3    3    0    0  0.41278067927E+02 -0.34556740978E+02 -0.44525227443E+02  0.69860884031E+02  0.00000000000E+00 0. -1.
        -11    1    4    4    0    0 -0.53271988155E+02 -0.28283979506E+02  0.16379497132E+02  0.62499409157E+02  0.00000000000E+00 0. -1.
         11    1    4    4    0    0 -0.29765707142E+01  0.44039913273E+02  0.25840995365E+02  0.51148127784E+02  0.00000000000E+00 0.  1.
         21    1    1    2  502  501 -0.57912026649E+02  0.40912377307E+02 -0.32829402967E+03  0.33586395365E+03  0.00000000000E+00 0.  1.
<scales pt_clust_5="13000.00000" pt_clust_6="13000.00000" pt_clust_7="13000.00000" pt_clust_8="13000.00000" pt_clust_9="70.90575"></scales>
<clustering>
<clus scale="   70.906">  2  9  1 -1</clus>
<clus scale="   78.415">  5  6 -1 -1</clus>
<clus scale="   87.869">  7  8 -1 -1</clus>
<clus scale="  102.209">  2  5  1 -1</clus>
<clus scale="  109.630">  1  5  2 -1</clus>
</clustering>
</event>
<event>
 9    2  0.5608219E-005  0.4238208E+03  0.7546771E-02  0.1090191E+00
          2   -1    0    0  502    0  0.00000000000E+00  0.00000000000E+00  0.10410830346E+04  0.10410830346E+04  0.00000000000E+00 0. -1.
         -1   -1    0    0    0  501 -0.00000000000E+00 -0.00000000000E+00 -0.32223401934E+03  0.32223401934E+03  0.00000000000E+00 0.  1.
         24    2    1    2    0    0  0.38845799934E+02 -0.14922591524E+01  0.54361194978E+02  0.10797788574E+03  0.84810737995E+02 0.  0.
         23    2    1    2    0    0  0.35597353816E+03 -0.19683810030E+03  0.69699048722E+03  0.81231133098E+03  0.92690676803E+02 0.  0.
        -11    1    3    3    0    0  0.45888946582E+02  0.20261465718E+02  0.12777297413E+01  0.50179228817E+02  0.00000000000E+00 0.  1.
         12    1    3    3    0    0 -0.70431466474E+01 -0.21753724870E+02  0.53083465236E+02  0.57798656921E+02  0.00000000000E+00 0. -1.
        -11    1    4    4    0    0  0.13766031186E+03 -0.32555066987E+02  0.28138390613E+03  0.31493982994E+03  0.00000000000E+00 0.  1.
         11    1    4    4    0    0  0.21831322630E+03 -0.16428303331E+03  0.41560658108E+03  0.49737150104E+03  0.00000000000E+00 0. -1.
         21    1    1    2  502  501 -0.39481933810E+03  0.19833035945E+03 -0.32502666915E+02  0.44302783724E+03  0.00000000000E+00 0.  1.
<scales pt_clust_5="13000.00000" pt_clust_6="13000.00000" pt_clust_7="13000.00000" pt_clust_8="13000.00000" pt_clust_9="413.56074"></scales>
<clustering>
<clus scale="   84.811">  5  6 -1 -1</clus>
<clus scale="   92.691">  7  8 -1 -1</clus>
<clus scale="   93.296">  2  5  1 -1</clus>
<clus scale="  413.561">  2  9  1 -1</clus>
<clus scale="  423.821">  1  5  2 -1</clus>
</clustering>
</event>
<event>
 9    2  0.5608219E-005  0.1221774E+03  0.7546771E-02  0.1243742E+00
          2   -1    0    0  502    0  0.00000000000E+00  0.00000000000E+00  0.13520410893E+03  0.13520410893E+03  0.00000000000E+00 0. -1.
         -1   -1    0    0    0  501 -0.00000000000E+00 -0.00000000000E+00 -0.31534858299E+03  0.31534858299E+03  0.00000000000E+00 0.  1.
         23    2    1    2    0    0 -0.94163693826E+02  0.72705472041E+02 -0.37924584351E+02  0.15570133742E+03  0.93014759453E+02 0.  0.
         24    2    1    2    0    0  0.60929812379E+02 -0.23167844262E+02  0.34419046393E+02  0.10841160233E+03  0.79493482250E+02 0.  0.
        -11    1    4    4    0    0 -0.16334517359E+02 -0.15851650965E+02  0.18156441352E+02  0.29116106509E+02  0.00000000000E+00 0.  1.
         12    1    4    4    0    0  0.77264329739E+02 -0.73161932970E+01  0.16262605041E+02  0.79295495818E+02  0.00000000000E+00 0. -1.
        -13    1    3    3    0    0 -0.84477468479E+02  0.54420426397E+02 -0.66441704483E+02  0.12046794422E+03  0.00000000000E+00 0.  1.
         13    1    3    3    0    0 -0.96862253479E+01  0.18285045644E+02  0.28517120132E+02  0.35233393199E+02  0.00000000000E+00 0. -1.
         21    1    1    2  502  501  0.33233881447E+02 -0.49537627779E+02 -0.17663893610E+03  0.18643975217E+03  0.00000000000E+00 0.  1.
<scales pt_clust_5="13000.00000" pt_clust_6="13000.00000" pt_clust_7="13000.00000" pt_clust_8="13000.00000" pt_clust_9="59.65289"></scales>
<clustering>
<clus scale="   59.653">  2  9  1 -1</clus>
<clus scale="   79.493">  5  6 -1 -1</clus>
<clus scale="   93.015">  7  8 -1 -1</clus>
<clus scale="  112.227">  1  5  2 -1</clus>
<clus scale="  112.227">  1  5  2 -1</clus>
</clustering>
</event>
<event>
 9    2  0.5608219E-005  0.1286231E+03  0.7546771E-02  0.1233093E+00
          2   -1    0    0  502    0  0.00000000000E+00  0.00000000000E+00  0.93499856815E+02  0.93499856815E+02  0.00000000000E+00 0. -1.
         -1   -1    0    0    0  501 -0.00000000000E+00 -0.00000000000E+00 -0.25853683983E+03  0.25853683983E+03  0.00000000000E+00 0.  1.
         24    2    1    2    0    0  0.76856774948E+02 -0.45263025353E+02 -0.54747827315E+02  0.13113917003E+03  0.79021845081E+02 0.  0.
         23    2    1    2    0    0 -0.58310115999E+02  0.72070700523E+02 -0.29929543675E+02  0.13417787918E+03  0.92269551728E+02 0.  0.
        -13    1    3    3    0    0  0.25699677964E+02  0.22521980175E+02 -0.13690047885E+02  0.36812096511E+02  0.00000000000E+00 0.  1.
         14    1    3    3    0    0  0.51157096984E+02 -0.67785005528E+02 -0.41057779430E+02  0.94327073515E+02  0.00000000000E+00 0. -1.
        -11    1    4    4    0    0  0.99971660509E+01  0.42477918568E+02 -0.39827309689E+02  0.59080720137E+02  0.00000000000E+00 0.  1.
         11    1    4    4    0    0 -0.68307282050E+02  0.29592781955E+02  0.98977660141E+01  0.75097159047E+02  0.00000000000E+00 0. -1.
         21    1    1    2  502  501 -0.18546658949E+02 -0.26807675170E+02 -0.80359612024E+02  0.86719647433E+02  0.00000000000E+00 0.  1.
<scales pt_clust_5="13000.00000" pt_clust_6="13000.00000" pt_clust_7="13000.00000" pt_clust_8="13000.00000" pt_clust_9="32.59801"></scales>
<clustering>
<clus scale="   32.598">  2  9  1 -1</clus>
<clus scale="   79.022">  5  6 -1 -1</clus>
<clus scale="   92.270">  7  8 -1 -1</clus>
<clus scale="  119.477">  2  5  1 -1</clus>
<clus scale="  128.623">  1  5  2 -1</clus>
</clustering>
</event>
<event>
 9    2  0.5608219E-005  0.4530007E+03  0.7546771E-02  0.1079512E+00
         -1   -1    0    0    0  501 -0.00000000000E+00  0.00000000000E+00  0.14013454745E+03  0.14013454745E+03  0.00000000000E+00 0.  1.
          2   -1    0    0  502    0  0.00000000000E+00 -0.00000000000E+00 -0.19461223109E+04  0.19461223109E+04  0.00000000000E+00 0. -1.
         24    2    1    2    0    0 -0.47771872307E+02  0.40831020597E+02 -0.95836200015E+02  0.13967044367E+03  0.79836906095E+02 0.  0.
         23    2    1    2    0    0 -0.22153037885E+03  0.35849833169E+03 -0.99602939996E+03  0.10852165183E+04  0.89574345538E+02 0.  0.
        -11    1    3    3    0    0  0.10918075078E+02  0.21944468904E+02 -0.67508018043E+02  0.71819889857E+02  0.00000000000E+00 0.  1.
         12    1    3    3    0    0 -0.58689947385E+02  0.18886551693E+02 -0.28328181972E+02  0.67850553813E+02  0.00000000000E+00 0. -1.
        -11    1    4    4    0    0 -0.69669862091E+02  0.49825427605E+02 -0.16811890150E+03  0.18868075673E+03  0.00000000000E+00 0.  1.
         11    1    4    4    0    0 -0.15186051676E+03  0.30867290408E+03 -0.82791049846E+03  0.89653576155E+03  0.00000000000E+00 0. -1.
         21    1    1    2  502  501  0.26930225116E+03 -0.39932935229E+03 -0.71412216352E+03  0.86136989645E+03  0.00000000000E+00 0.  1.
<scales pt_clust_5="13000.00000" pt_clust_6="13000.00000" pt_clust_7="13000.00000" pt_clust_8="13000.00000" pt_clust_9="444.05642"></scales>
<clustering>
<clus scale="   79.837">  5  6 -1 -1</clus>
<clus scale="   89.574">  7  8 -1 -1</clus>
<clus scale="  101.603">  1  5  2 -1</clus>
<clus scale="  444.056">  1  9  2 -1</clus>
<clus scale="  453.001">  2  5  1 -1</clus>
</clustering>
</event>
<event>
 9    2  0.5608219E-005  0.2539001E+03  0.7546771E-02  0.1111458E+00
         -1   -1    0    0    0  501 -0.00000000000E+00  0.00000000000E+00  0.18859269946E+03  0.18859269946E+03  0.00000000000E+00 0.  1.
          2   -1    0    0  502    0  0.00000000000E+00 -0.00000000000E+00 -0.72519271337E+03  0.72519271337E+03  0.00000000000E+00 0. -1.
         23    2    1    2    0    0  0.10337556882E+02 -0.19015048636E+03 -0.93208613944E+02  0.23123546579E+03  0.92292591137E+02 0.  0.
         24    2    1    2    0    0  0.73077856671E+02  0.25445186544E+03 -0.49352000444E+03  0.56590657794E+03  0.81253524279E+02 0.  0.
        -13    1    4    4    0    0  0.17661990199E+02  0.21436458071E+02 -0.11234206004E+03  0.11572469955E+03  0.00000000000E+00 0.  1.
         14    1    4    4    0    0  0.55415866471E+02  0.23301540737E+03 -0.38117794440E+03  0.45018187839E+03  0.00000000000E+00 0. -1.
        -11    1    3    3    0    0  0.34378267620E+02 -0.16297823273E+03 -0.10006726628E+03  0.19431219058E+03  0.00000000000E+00 0.  1.
         11    1    3    3    0    0 -0.24040710738E+02 -0.27172253630E+02  0.68586523313E+01  0.36923275206E+02  0.00000000000E+00 0. -1.
         21    1    1    2  502  501 -0.83415413552E+02 -0.64301379085E+02  0.50128604475E+02  0.11664336911E+03  0.00000000000E+00 0.  1.
<scales pt_clust_5="13000.00000" pt_clust_6="13000.00000" pt_clust_7="13000.00000" pt_clust_8="13000.00000" pt_clust_9="105.32236"></scales>
<clustering>
<clus scale="   81.254">  5  6 -1 -1</clus>
<clus scale="   92.293">  7  8 -1 -1</clus>
<clus scale="  105.322">  1  9  2 -1</clus>
<clus scale="  250.099">  2  5  1 -1</clus>
<clus scale="  250.099">  2  5  1 -1</clus>
</clustering>
</event>
<event>
 9    2  0.5608219E-005  0.1212425E+03  0.7546771E-02  0.1244960E+00
         -1   -1    0    0    0  501 -0.00000000000E+00  0.00000000000E+00  0.39320253305E+03  0.39320253305E+03  0.00000000000E+00 0.  1.
          2   -1    0    0  502    0  0.00000000000E+00 -0.00000000000E+00 -0.51577215475E+02  0.51577215475E+02  0.00000000000E+00 0. -1.
         24    2    1    2    0    0 -0.48581095511E+02 -0.32927325700E+02  0.17084691425E+03  0.19799564608E+03  0.81051071186E+02 0.  0.
         23    2    1    2    0    0  0.59137278865E+02  0.69490856536E+02  0.93251727199E+02  0.16042027723E+03  0.93341222550E+02 0.  0.
        -11    1    3    3    0    0  0.66518830965E+01  0.21498633692E+02  0.40149029676E+02  0.46025899049E+02  0.00000000000E+00 0.  1.
         12    1    3    3    0    0 -0.55232978608E+02 -0.54425959392E+02  0.13069788457E+03  0.15196974703E+03  0.00000000000E+00 0. -1.
        -13    1    4    4    0    0  0.51457246201E+02  0.50505510376E+01  0.78288293516E+02  0.93821176469E+02  0.00000000000E+00 0. -1.
         13    1    4    4    0    0  0.76800326639E+01  0.64440305499E+02  0.14963433683E+02  0.66599100760E+02  0.00000000000E+00 0.  1.
         21    1    1    2  502  501 -0.10556183354E+02 -0.36563530836E+02  0.77526676130E+02  0.86363825216E+02  0.00000000000E+00 0.  1.
<scales pt_clust_5="13000.00000" pt_clust_6="13000.00000" pt_clust_7="13000.00000" pt_clust_8="13000.00000" pt_clust_9="38.05686"></scales>
<clustering>
<clus scale="   38.057">  1  9  2 -1</clus>
<clus scale="   81.051">  5  6 -1 -1</clus>
<clus scale="   93.341">  7  8 -1 -1</clus>
<clus scale="  112.056">  1  5  2 -1</clus>
<clus scale="  121.243">  2  5  1 -1</clus>
</clustering>
</event>
<event>
 9    2  0.5608219E-005  0.3392771E+03  0.7546771E-02  0.1067386E+00
         -1   -1    0    0    0  501 -0.00000000000E+00  0.00000000000E+00  0.50690283983E+03  0.50690283983E+03  0.00000000000E+00 0.  1.
          2   -1    0    0  502    0  0.00000000000E+00 -0.00000000000E+00 -0.41416977124E+03  0.41416977124E+03  0.00000000000E+00 0. -1.
         23    2    1    2    0    0  0.68741122416E+02  0.29179667841E+03  0.28443747767E+03  0.42307789982E+03  0.90661938927E+02 0.  0.
         24    2    1    2    0    0 -0.11254403207E+03 -0.31454744542E+03 -0.24754341088E+03  0.42346762614E+03  0.80254816306E+02 0.  0.
        -11    1    4    4    0    0  0.11291627902E+02 -0.52800210926E+02 -0.37153643171E+02  0.65542019617E+02  0.00000000000E+00 0.  1.
         12    1    4    4    0    0 -0.12383565997E+03 -0.26174723449E+03 -0.21038976771E+03  0.35792560652E+03  0.00000000000E+00 0. -1.
        -13    1    3    3    0    0  0.15822239452E+02  0.19564372889E+03  0.22382952160E+03  0.29770197623E+03  0.00000000000E+00 0.  1.
         13    1    3    3    0    0  0.52918882964E+02  0.96152949527E+02  0.60607956077E+02  0.12537592359E+03  0.00000000000E+00 0. -1.
         21    1    1    2  502  501  0.43802909651E+02  0.22750767004E+02  0.55839001803E+02  0.74527085114E+02  0.00000000000E+00 0. -1.
<scales pt_clust_5="13000.00000" pt_clust_6="13000.00000" pt_clust_7="13000.00000" pt_clust_8="13000.00000" pt_clust_9="49.35881"></scales>
<clustering>
<clus scale="   49.359">  1  9  2 -1</clus>
<clus scale="   80.255">  5  6 -1 -1</clus>
<clus scale="   90.662">  7  8 -1 -1</clus>
<clus scale="  336.646">  2  5  1 -1</clus>
<clus scale="  336.646">  2  5  1 -1</clus>
</clustering>
</event>
<event>
 9    2  0.5608219E-005  0.9257928E+02  0.7546771E-02  0.1304631E+00
          2   -1    0    0  502    0  0.00000000000E+00  0.00000000000E+00  0.75382279220E+03  0.75382279220E+03  0.00000000000E+00 0. -1.
         -1   -1    0    0    0  501 -0.00000000000E+00 -0.00000000000E+00 -0.47925196427E+02  0.47925196427E+02  0.00000000000E+00 0.  1.
         23    2    1    2    0    0 -0.27005831975E+02  0.21244154887E+02  0.12424717848E+03  0.15837913380E+03  0.92010649316E+02 0.  0.
         24    2    1    2    0    0  0.12879137464E+01  0.13871371064E+02  0.59294903443E+03  0.59840030771E+03  0.79374411339E+02 0.  0.
        -11    1    4    4    0    0 -0.16965009449E+01  0.34589118714E+02  0.11765945517E+03  0.12265004134E+03  0.00000000000E+00 0.  1.
         12    1    4    4    0    0  0.29844146913E+01 -0.20717747650E+02  0.47528957926E+03  0.47575026637E+03  0.00000000000E+00 0. -1.
        -11    1    3    3    0    0 -0.12845174397E+02  0.55325510304E+02  0.50887587375E+02  0.76259144662E+02  0.00000000000E+00 0.  1.
         11    1    3    3    0    0 -0.14160657578E+02 -0.34081355417E+02  0.73359591100E+02  0.82119989141E+02  0.00000000000E+00 0. -1.
         21    1    1    2  502  501  0.25717918228E+02 -0.35115525951E+02 -0.11298617131E+02  0.44968547118E+02  0.00000000000E+00 0.  1.
<scales pt_clust_5="13000.00000" pt_clust_6="13000.00000" pt_clust_7="13000.00000" pt_clust_8="13000.00000" pt_clust_9="43.52599"></scales>
<clustering>
<clus scale="   43.526">  2  9  1 -1</clus>
<clus scale="   79.374">  5  6 -1 -1</clus>
<clus scale="   80.033">  1  5  2 -1</clus>
<clus scale="   92.011">  7  8 -1 -1</clus>
<clus scale="   80.033">  1  5  2 -1</clus>
</clustering>
</event>
<event>
 9    2  0.5608219E-005  0.1786654E+03  0.7546771E-02  0.1170431E+00
          2   -1    0    0  502    0  0.00000000000E+00  0.00000000000E+00  0.35854444193E+03  0.35854444193E+03  0.00000000000E+00 0. -1.
         -1   -1    0    0    0  501 -0.00000000000E+00 -0.00000000000E+00 -0.18671622540E+03  0.18671622540E+03  0.00000000000E+00 0.  1.
         23    2    1    2    0    0  0.19508210159E+03 -0.53953710901E+02 -0.19429155530E+02  0.22256144633E+03  0.90487988315E+02 0.  0.
         24    2    1    2    0    0 -0.13573497338E+03  0.43842395638E+02  0.20388624093E+03  0.26118655034E+03  0.79389395911E+02 0.  0.
        -13    1    4    4    0    0 -0.10905321319E+03  0.43876135670E+02  0.20289436825E+03  0.23448633916E+03  0.00000000000E+00 0.  1.
         14    1    4    4    0    0 -0.26681760188E+02 -0.33740032081E-01  0.99187268041E+00  0.26700211171E+02  0.00000000000E+00 0. -1.
        -13    1    3    3    0    0  0.88072277493E+02 -0.50369199715E+02 -0.47272291576E+02  0.11193056729E+03  0.00000000000E+00 0.  1.
         13    1    3    3    0    0  0.10700982410E+03 -0.35845111860E+01  0.27843136046E+02  0.11063087904E+03  0.00000000000E+00 0. -1.
         21    1    1    2  502  501 -0.59347128211E+02  0.10111315263E+02 -0.12628868864E+02  0.61512670663E+02  0.00000000000E+00 0.  1.
<scales pt_clust_5="13000.00000" pt_clust_6="13000.00000" pt_clust_7="13000.00000" pt_clust_8="13000.00000" pt_clust_9="60.20233"></scales>
<clustering>
<clus scale="   60.202">  2  9  1 -1</clus>
<clus scale="   79.389">  5  6 -1 -1</clus>
<clus scale="   90.488">  7  8 -1 -1</clus>
<clus scale="  173.309">  1  5  2 -1</clus>
<clus scale="  173.309">  1  5  2 -1</clus>
</clustering>
</event>
<event>
 9    2  0.5608219E-005  0.1109975E+03  0.7546771E-02  0.1260291E+00
         -1   -1    0    0    0  501 -0.00000000000E+00  0.00000000000E+00  0.42449310318E+02  0.42449310318E+02  0.00000000000E+00 0.  1.
          2   -1    0    0  502    0  0.00000000000E+00 -0.00000000000E+00 -0.77436102941E+03  0.77436102941E+03  0.00000000000E+00 0. -1.
         23    2    1    2    0    0  0.66121820957E+02  0.25829335792E+02 -0.55618558023E+02  0.12326945181E+03  0.84039776052E+02 0.  0.
         24    2    1    2    0    0 -0.86371481680E+02 -0.53152243784E+01 -0.61043768748E+03  0.62165333038E+03  0.79563863806E+02 0.  0.
        -13    1    4    4    0    0 -0.27481547271E+02 -0.10539289985E+02 -0.49359206404E+02  0.57468629100E+02  0.00000000000E+00 0.  1.
         14    1    4    4    0    0 -0.58889934408E+02  0.52240656063E+01 -0.56107848107E+03  0.56418470128E+03  0.00000000000E+00 0. -1.
        -13    1    3    3    0    0  0.33314327147E+02  0.53538603371E+02 -0.48916253158E+02  0.79806179380E+02  0.00000000000E+00 0.  1.
         13    1    3    3    0    0  0.32807493810E+02 -0.27709267579E+02 -0.67023048652E+01  0.43463272430E+02  0.00000000000E+00 0. -1.
         21    1    1    2  502  501  0.20249660723E+02 -0.20514111414E+02 -0.65855473589E+02  0.71887557534E+02  0.00000000000E+00 0. -1.
<scales pt_clust_5="13000.00000" pt_clust_6="13000.00000" pt_clust_7="13000.00000" pt_clust_8="13000.00000" pt_clust_9="28.82495"></scales>
<clustering>
<clus scale="   28.825">  2  9  1 -1</clus>
<clus scale="   79.564">  5  6 -1 -1</clus>
<clus scale="   84.040">  7  8 -1 -1</clus>
<clus scale="  107.648">  2  5  1 -1</clus>
<clus scale="   28.825">  2  5  1 -1</clus>
</clustering>
</event>
<event>
 9    2  0.5608219E-005  0.9317923E+02  0.7546771E-02  0.1300157E+00
          2   -1    0    0  502    0  0.00000000000E+00  0.00000000000E+00  0.11504713296E+03  0.11504713296E+03  0.00000000000E+00 0. -1.
         -1   -1    0    0    0  501 -0.00000000000E+00 -0.00000000000E+00 -0.33424789953E+03  0.33424789953E+03  0.00000000000E+00 0.  1.
         23    2    1    2    0    0  0.21135703861E+02 -0.24895244098E+02 -0.74110257326E+02  0.12127611651E+03  0.90272227397E+02 0.  0.
         24    2    1    2    0    0  0.79993393108E+01  0.22482833426E+02  0.70309841941E+02  0.11064370637E+03  0.82031022525E+02 0.  0.
        -13    1    4    4    0    0 -0.25796841056E+02 -0.91584808309E+00 -0.36091379031E+01  0.26064183520E+02  0.00000000000E+00 0.  1.
         14    1    4    4    0    0  0.33796180366E+02  0.23398681509E+02  0.73918979844E+02  0.84579522847E+02  0.00000000000E+00 0. -1.
        -13    1    3    3    0    0 -0.32978553774E+02 -0.26000124659E+01 -0.45160489269E+02  0.55980486465E+02  0.00000000000E+00 0.  1.
         13    1    3    3    0    0  0.54114257635E+02 -0.22295231632E+02 -0.28949768058E+02  0.65295630049E+02  0.00000000000E+00 0. -1.
         21    1    1    2  502  501 -0.29135043172E+02  0.24124106719E+01 -0.21540035118E+03  0.21737520961E+03  0.00000000000E+00 0.  1.
<scales pt_clust_5="13000.00000" pt_clust_6="13000.00000" pt_clust_7="13000.00000" pt_clust_8="13000.00000" pt_clust_9="29.23475"></scales>
<clustering>
<clus scale="   29.235">  2  9  1 -1</clus>
<clus scale="   82.031">  5  6 -1 -1</clus>
<clus scale="   85.220">  1  5  2 -1</clus>
<clus scale="   90.272">  7  8 -1 -1</clus>
<clus scale="   85.220">  1  5  2 -1</clus>
</clustering>
</event>
<event>
 9    2  0.5608219E-005  0.1172942E+03  0.7546771E-02  0.1251966E+00
          2   -1    0    0  502    0  0.00000000000E+00  0.00000000000E+00  0.50753015574E+03  0.50753015574E+03  0.00000000000E+00 0. -1.
         -1   -1    0    0    0  501 -0.00000000000E+00 -0.00000000000E+00 -0.72049940596E+02  0.72049940596E+02  0.00000000000E+00 0.  1.
         23    2    1    2    0    0  0.10350219096E+02  0.17282927651E+01  0.47666233084E+02  0.10312541052E+03  0.90844187969E+02 0.  0.
         24    2    1    2    0    0 -0.94916857488E+02  0.28518127199E+02  0.36153774281E+03  0.38287689465E+03  0.77863236301E+02 0.  0.
        -13    1    4    4    0    0 -0.62085130930E+01 -0.21229240172E+02  0.40931783430E+02  0.46525661391E+02  0.00000000000E+00 0.  1.
         14    1    4    4    0    0 -0.88708344395E+02  0.49747367371E+02  0.32060595938E+03  0.33635123326E+03  0.00000000000E+00 0. -1.
        -11    1    3    3    0    0  0.32540132899E+02  0.26375748781E+02  0.55025122315E+02  0.69154207816E+02  0.00000000000E+00 0.  1.
         11    1    3    3    0    0 -0.22189913802E+02 -0.24647456016E+02 -0.73588892310E+01  0.33971202706E+02  0.00000000000E+00 0. -1.
         21    1    1    2  502  501  0.84566638392E+02 -0.30246419964E+02  0.26276239249E+02  0.93577791161E+02  0.00000000000E+00 0.  1.
<scales pt_clust_5="13000.00000" pt_clust_6="13000.00000" pt_clust_7="13000.00000" pt_clust_8="13000.00000" pt_clust_9="89.81293"></scales>
<clustering>
<clus scale="   77.863">  5  6 -1 -1</clus>
<clus scale="   89.813">  2  9  1 -1</clus>
<clus scale="   90.844">  7  8 -1 -1</clus>
<clus scale="  107.554">  1  5  2 -1</clus>
<clus scale="  107.554">  1  5  2 -1</clus>
</clustering>
</event>
<event>
 9    2  0.5608219E-005  0.1015396E+03  0.7546771E-02  0.1283004E+00
          2   -1    0    0  502    0  0.00000000000E+00  0.00000000000E+00  0.53368867902E+03  0.53368867902E+03  0.00000000000E+00 0. -1.
         -1   -1    0    0    0  501 -0.00000000000E+00 -0.00000000000E+00 -0.37900162618E+02  0.37900162618E+02  0.00000000000E+00 0.  1.
         24    2    1    2    0    0 -0.24476133036E+02 -0.40209273057E+02  0.41377732480E+02  0.10060180961E+03  0.78693968147E+02 0.  0.
         23    2    1    2    0    0  0.44041546490E+01  0.36472293043E+02  0.41687541234E+03  0.42825819568E+03  0.90941453782E+02 0.  0.
        -13    1    3    3    0    0  0.11769392033E+02 -0.52186755825E+02  0.22925161309E+02  0.58202569474E+02  0.00000000000E+00 0.  1.
         14    1    3    3    0    0 -0.36245525069E+02  0.11977482768E+02  0.18452571171E+02  0.42399240132E+02  0.00000000000E+00 0. -1.
        -13    1    4    4    0    0 -0.20779760689E+02  0.58033340340E+02  0.31955324592E+03  0.32544422568E+03  0.00000000000E+00 0. -1.
         13    1    4    4    0    0  0.25183915338E+02 -0.21561047296E+02  0.97322166421E+02  0.10281397001E+03  0.00000000000E+00 0.  1.
         21    1    1    2  502  501  0.20071978387E+02  0.37369800134E+01  0.37535371577E+02  0.42728836345E+02  0.00000000000E+00 0.  1.
<scales pt_clust_5="13000.00000" pt_clust_6="13000.00000" pt_clust_7="13000.00000" pt_clust_8="13000.00000" pt_clust_9="20.41689"></scales>
<clustering>
<clus scale="   20.417">  1  9  2 -1</clus>
<clus scale="   78.694">  5  6 -1 -1</clus>
<clus scale="   90.734">  2  5  1 -1</clus>
<clus scale="   90.941">  7  8 -1 -1</clus>
<clus scale="   20.417">  1  5  2 -1</clus>
</clustering>
</event>
<event>
 9    2  0.5608219E-005  0.2209324E+03  0.7546771E-02  0.1134250E+00
          2   -1    0    0  502    0  0.00000000000E+00  0.00000000000E+00  0.29785972891E+03  0.29785972891E+03  0.00000000000E+00 0. -1.
         -1   -1    0    0    0  501 -0.00000000000E+00 -0.00000000000E+00 -0.76000277656E+03  0.76000277656E+03  0.00000000000E+00 0.  1.
         24    2    1    2    0    0  0.90261884171E+02 -0.12528704569E+03 -0.29890990342E+03  0.34546822778E+03  0.78467282919E+02 0.  0.
         23    2    1    2    0    0 -0.13992692977E+03  0.15308112655E+03  0.22514075342E+03  0.31987241580E+03  0.92825786075E+02 0.  0.
        -13    1    3    3    0    0  0.12388149547E+02 -0.61028614702E+02 -0.17429928349E+03  0.18508970335E+03  0.00000000000E+00 0.  1.
         14    1    3    3    0    0  0.77873734625E+02 -0.64258430988E+02 -0.12461061993E+03  0.16037852443E+03  0.00000000000E+00 0. -1.
        -13    1    4    4    0    0 -0.27858049356E+02  0.39158357010E+01  0.75922931730E+02  0.80967254156E+02  0.00000000000E+00 0.  1.
         13    1    4    4    0    0 -0.11206888042E+03  0.14916529085E+03  0.14921782169E+03  0.23890516165E+03  0.00000000000E+00 0. -1.
         21    1    1    2  502  501  0.49665045602E+02 -0.27794080861E+02 -0.38837389765E+03  0.39252186189E+03  0.00000000000E+00 0.  1.
<scales pt_clust_5="13000.00000" pt_clust_6="13000.00000" pt_clust_7="13000.00000" pt_clust_8="13000.00000" pt_clust_9="56.91333"></scales>
<clustering>
<clus scale="   56.913">  2  9  1 -1</clus>
<clus scale="   78.467">  5  6 -1 -1</clus>
<clus scale="   92.826">  7  8 -1 -1</clus>
<clus scale="  215.294">  2  5  1 -1</clus>
<clus scale="  220.932">  1  5  2 -1</clus>
</clustering>
</event>
<event>
 9    2  0.5608219E-005  0.2873780E+03  0.7546771E-02  0.1091726E+00
          2   -1    0    0  502    0  0.00000000000E+00  0.00000000000E+00  0.25539933562E+04  0.25539933562E+04  0.00000000000E+00 0. -1.
         -1   -1    0    0    0  501 -0.00000000000E+00 -0.00000000000E+00 -0.31533784736E+02  0.31533784736E+02  0.00000000000E+00 0.  1.
         24    2    1    2    0    0  0.84292453158E+02 -0.29160858737E+02  0.43506958225E+03  0.45049464713E+03  0.75526898185E+02 0.  0.
         23    2    1    2    0    0  0.10389464951E+03 -0.92707048163E+02  0.39624161557E+03  0.42908730301E+03  0.87862396481E+02 0.  0.
        -13    1    3    3    0    0  0.77358068112E+02 -0.30125604431E+02  0.21738271941E+03  0.23269522866E+03  0.00000000000E+00 0.  1.
         14    1    3    3    0    0  0.69343850457E+01  0.96474569388E+00  0.21768686284E+03  0.21779941847E+03  0.00000000000E+00 0. -1.
        -13    1    4    4    0    0  0.33513812851E+02  0.14183150387E+02  0.77799426666E+02  0.85889977275E+02  0.00000000000E+00 0.  1.
         13    1    4    4    0    0  0.70380836658E+02 -0.10689019855E+03  0.31844218891E+03  0.34319732573E+03  0.00000000000E+00 0. -1.
         21    1    1    2  502  501 -0.18818710267E+03  0.12186790690E+03  0.16911483736E+04  0.17059451908E+04  0.00000000000E+00 0.  1.
<scales pt_clust_5="13000.00000" pt_clust_6="13000.00000" pt_clust_7="13000.00000" pt_clust_8="13000.00000" pt_clust_9="224.20119"></scales>
<clustering>
<clus scale="   75.527">  5  6 -1 -1</clus>
<clus scale="   87.862">  7  8 -1 -1</clus>
<clus scale="  103.039">  5  7 -1 -1</clus>
<clus scale="  224.201">  1  9  2 -1</clus>
<clus scale="  224.201">  1  5  2 -1</clus>
</clustering>
</event>
<event>
 9    2  0.5608219E-005  0.9300916E+02  0.7546771E-02  0.1302230E+00
          2   -1    0    0  502    0  0.00000000000E+00  0.00000000000E+00  0.30121697534E+03  0.30121697534E+03  0.00000000000E+00 0. -1.
         -1   -1    0    0    0  501 -0.00000000000E+00 -0.00000000000E+00 -0.56923766935E+02  0.56923766935E+02  0.00000000000E+00 0.  1.
         24    2    1    2    0    0 -0.44673959187E+01 -0.93880382938E+01  0.48230156987E+02  0.94227265383E+02  0.80277871230E+02 0.  0.
         23    2    1    2    0    0 -0.16220295883E+02 -0.29035543229E+02  0.19775755573E+03  0.22024170622E+03  0.91061504147E+02 0.  0.
        -13    1    3    3    0    0 -0.33602116631E+02  0.18826525341E+02  0.13444815049E+02  0.40795874181E+02  0.00000000000E+00 0.  1.
         14    1    3    3    0    0  0.29134720712E+02 -0.28214563634E+02  0.34785341938E+02  0.53431391202E+02  0.00000000000E+00 0. -1.
        -11    1    4    4    0    0  0.14907246380E+02 -0.51870364014E+02  0.14612048575E+03  0.15576892185E+03  0.00000000000E+00 0. -1.
         11    1    4    4    0    0 -0.31127542262E+02  0.22834820785E+02  0.51637069980E+02  0.64472784364E+02  0.00000000000E+00 0.  1.
         21    1    1    2  502  501  0.20687691802E+02  0.38423581523E+02 -0.16945043172E+01  0.43671770676E+02  0.00000000000E+00 0. -1.
<scales pt_clust_5="13000.00000" pt_clust_6="13000.00000" pt_clust_7="13000.00000" pt_clust_8="13000.00000" pt_clust_9="43.63888"></scales>
<clustering>
<clus scale="   43.639">  2  9  1 -1</clus>
<clus scale="   80.278">  5  6 -1 -1</clus>
<clus scale="   82.481">  2  5  1 -1</clus>
<clus scale="   91.062">  7  8 -1 -1</clus>
<clus scale="   93.009">  1  5  2 -1</clus>
</clustering>
</event>
<event>
 9    2  0.5608219E-005  0.9913806E+02  0.7546771E-02  0.1284448E+00
          2   -1    0    0  502    0  0.00000000000E+00  0.00000000000E+00  0.84083152996E+03  0.84083152996E+03  0.00000000000E+00 0. -1.
         -1   -1    0    0    0  501 -0.00000000000E+00 -0.00000000000E+00 -0.23528502820E+02  0.23528502820E+02  0.00000000000E+00 0.  1.
         23    2    1    2    0    0  0.46213574149E+01  0.46242729657E+02  0.12033096473E+03  0.15442450649E+03  0.84897821776E+02 0.  0.
         24    2    1    2    0    0 -0.21684193004E+02 -0.68202714616E+02  0.55515010817E+03  0.56541269763E+03  0.79862766900E+02 0.  0.
        -11    1    4    4    0    0 -0.36474869550E+02 -0.64617899899E+02  0.27455688383E+03  0.28440705258E+03  0.00000000000E+00 0.  1.
         12    1    4    4    0    0  0.14790676546E+02 -0.35848147173E+01  0.28059322434E+03  0.28100564506E+03  0.00000000000E+00 0. -1.
        -11    1    3    3    0    0  0.74567690655E+01  0.69049761931E+02  0.10783397635E+03  0.12826394459E+03  0.00000000000E+00 0.  1.
         11    1    3    3    0    0 -0.28354116505E+01 -0.22807032274E+02  0.12496988387E+02  0.26160561904E+02  0.00000000000E+00 0. -1.
         21    1    1    2  502  501  0.17062835589E+02  0.21959984959E+02  0.14182195424E+03  0.14452282865E+03  0.00000000000E+00 0. -1.
<scales pt_clust_5="13000.00000" pt_clust_6="13000.00000" pt_clust_7="13000.00000" pt_clust_8="13000.00000" pt_clust_9="27.80973"></scales>
<clustering>
<clus scale="   27.810">  1  9  2 -1</clus>
<clus scale="   79.863">  5  6 -1 -1</clus>
<clus scale="   84.898">  7  8 -1 -1</clus>
<clus scale="   94.862">  1  5  2 -1</clus>
<clus scale="   27.810">  1  5  2 -1</clus>
</clustering>
</event>
<event>
 9    2  0.5608219E-005  0.1097670E+03  0.7546771E-02  0.1268722E+00
         -1   -1    0    0    0  501 -0.00000000000E+00  0.00000000000E+00  0.89021968863E+02  0.89021968863E+02  0.00000000000E+00 0.  1.
          2   -1    0    0  502    0  0.00000000000E+00 -0.00000000000E+00 -0.64441480389E+03  0.64441480389E+03  0.00000000000E+00 0. -1.
         23    2    1    2    0    0  0.84200091906E+01  0.59067624918E+02  0.18197982243E+02  0.10959198075E+03  0.90107462614E+02 0.  0.
         24    2    1    2    0    0 -0.45223997185E+01 -0.25326287678E+02 -0.57922113500E+03  0.58941559398E+03  0.10607424878E+03 0.  0.
        -11    1    4    4    0    0  0.11195888702E+02  0.28144118601E+02 -0.60000345614E+02  0.67212207295E+02  0.00000000000E+00 0.  1.
         12    1    4    4    0    0 -0.15718288420E+02 -0.53470406279E+02 -0.51922078939E+03  0.52220338669E+03  0.00000000000E+00 0. -1.
        -13    1    3    3    0    0  0.41049132253E+02  0.51349912647E+02  0.32264496210E+02  0.73231431116E+02  0.00000000000E+00 0.  1.
         13    1    3    3    0    0 -0.32629123062E+02  0.77177122709E+01 -0.14066513967E+02  0.36360549634E+02  0.00000000000E+00 0. -1.
         21    1    1    2  502  501 -0.38976094721E+01 -0.33741337240E+02  0.56303177325E+01  0.34429198018E+02  0.00000000000E+00 0. -1.
<scales pt_clust_5="13000.00000" pt_clust_6="13000.00000" pt_clust_7="13000.00000" pt_clust_8="13000.00000" pt_clust_9="33.96571"></scales>
<clustering>
<clus scale="   33.966">  1  9  2 -1</clus>
<clus scale="   90.107">  7  8 -1 -1</clus>
<clus scale="   94.427">  1  7  2 -1</clus>
<clus scale="  106.074">  5  6 -1 -1</clus>
<clus scale="  109.767">  2  5  1 -1</clus>
</clustering>
</event>
<event>
 9    2  0.5608219E-005  0.1061141E+03  0.7546771E-02  0.1273245E+00
          2   -1    0    0  502    0  0.00000000000E+00  0.00000000000E+00  0.58955931539E+03  0.58955931539E+03  0.00000000000E+00 0. -1.
         -1   -1    0    0    0  501 -0.00000000000E+00 -0.00000000000E+00 -0.60546010391E+02  0.60546010391E+02  0.00000000000E+00 0.  1.
         23    2    1    2    0    0 -0.35770859142E+02  0.56470022114E+02  0.63032745510E+02  0.13037212074E+03  0.92495108513E+02 0.  0.
         24    2    1    2    0    0 -0.86054571062E+01 -0.51263473206E+02  0.46529513834E+03  0.47504724083E+03  0.80425852060E+02 0.  0.
        -13    1    4    4    0    0 -0.42553305740E+02 -0.35275166664E+02  0.33205603484E+03  0.33662491216E+03  0.00000000000E+00 0.  1.
         14    1    4    4    0    0  0.33947848634E+02 -0.15988306542E+02  0.13323910350E+03  0.13842232867E+03  0.00000000000E+00 0. -1.
        -13    1    3    3    0    0 -0.41091577014E+02  0.12033217467E+02 -0.10687126487E+02  0.44130836120E+02  0.00000000000E+00 0.  1.
         13    1    3    3    0    0  0.53207178722E+01  0.44436804647E+02  0.73719871997E+02  0.86241284622E+02  0.00000000000E+00 0. -1.
         21    1    1    2  502  501  0.44376316248E+02 -0.52065489074E+01  0.68542114956E+00  0.44685964211E+02  0.00000000000E+00 0.  1.
<scales pt_clust_5="13000.00000" pt_clust_6="13000.00000" pt_clust_7="13000.00000" pt_clust_8="13000.00000" pt_clust_9="44.68071"></scales>
<clustering>
<clus scale="   44.681">  2  9  1 -1</clus>
<clus scale="   80.426">  5  6 -1 -1</clus>
<clus scale="   92.495">  7  8 -1 -1</clus>
<clus scale="   95.777">  1  5  2 -1</clus>
<clus scale="   95.777">  1  5  2 -1</clus>
</clustering>
</event>
<event>
 9    2  0.5608219E-005  0.1517387E+03  0.7546771E-02  0.1199535E+00
          2   -1    0    0  502    0  0.00000000000E+00  0.00000000000E+00  0.11485158233E+04  0.11485158233E+04  0.00000000000E+00 0. -1.
         -1   -1    0    0    0  501 -0.00000000000E+00 -0.00000000000E+00 -0.29989908923E+02  0.29989908923E+02  0.00000000000E+00 0.  1.
         23    2    1    2    0    0 -0.11540708016E+03  0.18563835364E+02  0.25889848197E+03  0.29733406407E+03  0.87839123123E+02 0.  0.
         24    2    1    2    0    0  0.14249088591E+03 -0.13480823247E+02  0.77161340255E+03  0.78894456261E+03  0.80999350071E+02 0.  0.
        -11    1    4    4    0    0  0.34865908079E+02  0.12931757051E+02  0.76573928166E+02  0.85125955861E+02  0.00000000000E+00 0.  1.
         12    1    4    4    0    0  0.10762497784E+03 -0.26412580298E+02  0.69503947438E+03  0.70381860675E+03  0.00000000000E+00 0. -1.
        -11    1    3    3    0    0 -0.32946399022E+02  0.25352225200E+02  0.23358804688E+02  0.47684738519E+02  0.00000000000E+00 0.  1.
         11    1    3    3    0    0 -0.82460681138E+02 -0.67883898365E+01  0.23553967729E+03  0.24964932555E+03  0.00000000000E+00 0. -1.
         21    1    1    2  502  501 -0.27083805754E+02 -0.50830121164E+01  0.88014029812E+02  0.92227105506E+02  0.00000000000E+00 0.  1.
<scales pt_clust_5="13000.00000" pt_clust_6="13000.00000" pt_clust_7="13000.00000" pt_clust_8="13000.00000" pt_clust_9="27.55666"></scales>
<clustering>
<clus scale="   27.557">  1  9  2 -1</clus>
<clus scale="   80.999">  5  6 -1 -1</clus>
<clus scale="   87.839">  7  8 -1 -1</clus>
<clus scale="  147.884">  1  5  2 -1</clus>
<clus scale="   27.557">  1  5  2 -1</clus>
</clustering>
</event>
<event>
 9    2  0.5608219E-005  0.1235081E+03  0.7546771E-02  0.1244385E+00
          2   -1    0    0  502    0  0.00000000000E+00  0.00000000000E+00  0.31650451320E+03  0.31650451320E+03  0.00000000000E+00 0. -1.
         -1   -1    0    0    0  501 -0.00000000000E+00 -0.00000000000E+00 -0.22872664170E+03  0.22872664170E+03  0.00000000000E+00 0.  1.
         24    2    1    2    0    0 -0.47080845248E+02 -0.20853053041E+02 -0.10052448142E+02  0.98104377952E+02  0.82897294584E+02 0.  0.
         23    2    1    2    0    0  0.63700773201E+02 -0.48018538969E+02  0.24851137194E+03  0.28062062777E+03  0.10308475228E+03 0.  0.
        -13    1    3    3    0    0  0.89441036104E+01  0.20926173517E+02 -0.16218213604E+02  0.27945163803E+02  0.00000000000E+00 0.  1.
         14    1    3    3    0    0 -0.56024948858E+02 -0.41779226558E+02  0.61657654619E+01  0.70159214149E+02  0.00000000000E+00 0. -1.
        -13    1    4    4    0    0  0.55359273348E+02 -0.79989096329E+02  0.18296918463E+03  0.20722120355E+03  0.00000000000E+00 0. -1.
         13    1    4    4    0    0  0.83414998531E+01  0.31970557359E+02  0.65542187311E+02  0.73399424215E+02  0.00000000000E+00 0.  1.
         21    1    1    2  502  501 -0.16619927953E+02  0.68871592010E+02 -0.15068105230E+03  0.16650614918E+03  0.00000000000E+00 0.  1.
<scales pt_clust_5="13000.00000" pt_clust_6="13000.00000" pt_clust_7="13000.00000" pt_clust_8="13000.00000" pt_clust_9="70.84856"></scales>
<clustering>
<clus scale="   70.849">  2  9  1 -1</clus>
<clus scale="   82.897">  5  6 -1 -1</clus>
<clus scale="  103.085">  7  8 -1 -1</clus>
<clus scale="  107.237">  2  5  1 -1</clus>
<clus scale="  123.508">  1  5  2 -1</clus>
</clustering>
</event>
<event>
 9    2  0.5608219E-005  0.1007518E+03  0.7546771E-02  0.1283931E+00
         -1   -1    0    0    0  501 -0.00000000000E+00  0.00000000000E+00  0.32304697868E+02  0.32304697868E+02  0.00000000000E+00 0.  1.
          2   -1    0    0  502    0  0.00000000000E+00 -0.00000000000E+00 -0.47652820671E+03  0.47652820671E+03  0.00000000000E+00 0. -1.
         24    2    1    2    0    0  0.20726502581E+02  0.59481126464E+01 -0.97669930119E+02  0.12790441534E+03  0.79719233942E+02 0.  0.
         23    2    1    2    0    0 -0.45431664811E+02 -0.39037805012E+02 -0.29835238500E+03  0.31745701645E+03  0.90425799810E+02 0.  0.
        -13    1    3    3    0    0 -0.20499043048E+02  0.10783817791E+02 -0.15609516475E+01  0.23215039566E+02  0.00000000000E+00 0.  1.
         14    1    3    3    0    0  0.41225545629E+02 -0.48357051442E+01 -0.96108978471E+02  0.10468937577E+03  0.00000000000E+00 0. -1.
        -11    1    4    4    0    0 -0.25574709610E+02 -0.66374438608E+02 -0.23665616541E+03  0.24711489736E+03  0.00000000000E+00 0.  1.
         11    1    4    4    0    0 -0.19856955201E+02  0.27336633595E+02 -0.61696219595E+02  0.70342119093E+02  0.00000000000E+00 0. -1.
         21    1    1    2  502  501  0.24705162230E+02  0.33089692366E+02 -0.48201193723E+02  0.63471472789E+02  0.00000000000E+00 0. -1.
<scales pt_clust_5="13000.00000" pt_clust_6="13000.00000" pt_clust_7="13000.00000" pt_clust_8="13000.00000" pt_clust_9="41.29495"></scales>
<clustering>
<clus scale="   41.295">  1  9  2 -1</clus>
<clus scale="   79.719">  5  6 -1 -1</clus>
<clus scale="   90.426">  7  8 -1 -1</clus>
<clus scale="   91.265">  1  5  2 -1</clus>
<clus scale="  100.752">  2  5  1 -1</clus>
</clustering>
</event>
<event>
 9    2  0.5608219E-005  0.1175439E+03  0.7546771E-02  0.1250855E+00
         -1   -1    0    0    0  501 -0.00000000000E+00  0.00000000000E+00  0.69898357595E+03  0.69898357595E+03  0.00000000000E+00 0.  1.
          2   -1    0    0  502    0  0.00000000000E+00 -0.00000000000E+00 -0.58603716706E+02  0.58603716706E+02  0.00000000000E+00 0. -1.
         24    2    1    2    0    0  0.61066771321E+02  0.40752179017E+02  0.47732837806E+03  0.48938786449E+03  0.79172032678E+02 0.  0.
         23    2    1    2    0    0 -0.73277167625E+02 -0.20246824755E+02  0.15838438178E+02  0.11906444447E+03  0.90255241421E+02 0.  0.
        -11    1    3    3    0    0  0.58770810521E+01  0.51125843497E+02  0.20854397461E+03  0.21479986337E+03  0.00000000000E+00 0.  1.
         12    1    3    3    0    0  0.55189690269E+02 -0.10373664480E+02  0.26878440345E+03  0.27458800113E+03  0.00000000000E+00 0. -1.
        -11    1    4    4    0    0 -0.45973318213E+02  0.17046981907E+02 -0.27060556777E+02  0.56003743738E+02  0.00000000000E+00 0. -1.
         11    1    4    4    0    0 -0.27303849412E+02 -0.37293806662E+02  0.42898994955E+02  0.63060700727E+02  0.00000000000E+00 0.  1.
         21    1    1    2  502  501  0.12210396304E+02 -0.20505354262E+02  0.14721304300E+03  0.14913498369E+03  0.00000000000E+00 0.  1.
<scales pt_clust_5="13000.00000" pt_clust_6="13000.00000" pt_clust_7="13000.00000" pt_clust_8="13000.00000" pt_clust_9="23.86553"></scales>
<clustering>
<clus scale="   23.866">  1  9  2 -1</clus>
<clus scale="   79.172">  5  6 -1 -1</clus>
<clus scale="   90.255">  7  8 -1 -1</clus>
<clus scale="  109.265">  1  5  2 -1</clus>
<clus scale="  117.544">  2  5  1 -1</clus>
</clustering>
</event>
<event>
 9    2  0.5608219E-005  0.9299945E+02  0.7546771E-02  0.1301602E+00
          2   -1    0    0  502    0  0.00000000000E+00  0.00000000000E+00  0.76651230296E+02  0.76651230296E+02  0.00000000000E+00 0. -1.
         -1   -1    0    0    0  501 -0.00000000000E+00 -0.00000000000E+00 -0.51781253762E+03  0.51781253762E+03  0.00000000000E+00 0.  1.
         23    2    1    2    0    0 -0.12905462258E+02 -0.11679411839E+01 -0.35222665554E+03  0.36378025885E+03  0.90025245436E+02 0.  0.
         24    2    1    2    0    0  0.12159218309E+02  0.21190544756E+02  0.45109377300E+02  0.95150253855E+02  0.80136315808E+02 0.  0.
        -13    1    4    4    0    0  0.28683178411E+02 -0.17284970746E+02 -0.15312357378E+00  0.33489078582E+02  0.00000000000E+00 0.  1.
         14    1    4    4    0    0 -0.16523960102E+02  0.38475515503E+02  0.45262500874E+02  0.61661175273E+02  0.00000000000E+00 0. -1.
        -11    1    3    3    0    0 -0.27252312162E+02 -0.40639744769E+02 -0.18541796039E+03  0.19176573575E+03  0.00000000000E+00 0. -1.
         11    1    3    3    0    0  0.14346849904E+02  0.39471803585E+02 -0.16680869515E+03  0.17201452310E+03  0.00000000000E+00 0.  1.
         21    1    1    2  502  501  0.74624394942E+00 -0.20022603573E+02 -0.13404402909E+03  0.13553325521E+03  0.00000000000E+00 0.  1.
<scales pt_clust_5="13000.00000" pt_clust_6="13000.00000" pt_clust_7="13000.00000" pt_clust_8="13000.00000" pt_clust_9="20.03651"></scales>
<clustering>
<clus scale="   20.037">  2  9  1 -1</clus>
<clus scale="   80.136">  5  6 -1 -1</clus>
<clus scale="   83.464">  1  5  2 -1</clus>
<clus scale="   90.025">  7  8 -1 -1</clus>
<clus scale="   83.464">  1  5  2 -1</clus>
</clustering>
</event>
<event>
 9    2  0.5608219E-005  0.2045446E+03  0.7546771E-02  0.1147343E+00
         -1   -1    0    0    0  501 -0.00000000000E+00  0.00000000000E+00  0.61519432072E+03  0.61519432072E+03  0.00000000000E+00 0.  1.
          2   -1    0    0  502    0  0.00000000000E+00 -0.00000000000E+00 -0.55400004716E+03  0.55400004716E+03  0.00000000000E+00 0. -1.
         23    2    1    2    0    0 -0.15141407150E+03 -0.96921102928E+02  0.31100818638E+03  0.37148522308E+03  0.94632223510E+02 0.  0.
         24    2    1    2    0    0  0.14603373964E+02  0.18493124616E+03 -0.47721931087E+03  0.51810913169E+03  0.79284155646E+02 0.  0.
        -13    1    4    4    0    0 -0.21358278787E+02  0.51889913769E+02 -0.80450257323E+02  0.98086610335E+02  0.00000000000E+00 0.  1.
         14    1    4    4    0    0  0.35961652751E+02  0.13304133239E+03 -0.39676905355E+03  0.42002252136E+03  0.00000000000E+00 0. -1.
        -13    1    3    3    0    0 -0.13583138640E+03 -0.11515026388E+03  0.28543423203E+03  0.33642599426E+03  0.00000000000E+00 0.  1.
         13    1    3    3    0    0 -0.15582685096E+02  0.18229160948E+02  0.25573954359E+02  0.35059228817E+02  0.00000000000E+00 0. -1.
         21    1    1    2  502  501  0.13681069753E+03 -0.88010143231E+02  0.22740539804E+03  0.27960001311E+03  0.00000000000E+00 0.  1.
<scales pt_clust_5="13000.00000" pt_clust_6="13000.00000" pt_clust_7="13000.00000" pt_clust_8="13000.00000" pt_clust_9="162.67437"></scales>
<clustering>
<clus scale="   79.284">  5  6 -1 -1</clus>
<clus scale="   94.632">  7  8 -1 -1</clus>
<clus scale="  162.674">  1  9  2 -1</clus>
<clus scale="  197.912">  2  5  1 -1</clus>
<clus scale="  197.912">  2  5  1 -1</clus>
</clustering>
</event>
<event>
 9    2  0.5608219E-005  0.9260991E+02  0.7546771E-02  0.1302905E+00
          2   -1    0    0  502    0  0.00000000000E+00  0.00000000000E+00  0.33852380615E+02  0.33852380615E+02  0.00000000000E+00 0. -1.
         -1   -1    0    0    0  501 -0.00000000000E+00 -0.00000000000E+00 -0.44935620885E+03  0.44935620885E+03  0.00000000000E+00 0.  1.
         23    2    1    2    0    0  0.16339785027E+02 -0.22953888525E+02 -0.30742070414E+03  0.32166164889E+03  0.90359600791E+02 0.  0.
         24    2    1    2    0    0  0.11943417031E+02  0.29676617394E+01 -0.53884489331E+02  0.97228352366E+02  0.79989762387E+02 0.  0.
        -13    1    4    4    0    0  0.35535328478E+02 -0.12564980780E+02 -0.57499424251E+02  0.68751887983E+02  0.00000000000E+00 0.  1.
         14    1    4    4    0    0 -0.23591911447E+02  0.15532642519E+02  0.36149349191E+01  0.28476464384E+02  0.00000000000E+00 0. -1.
        -11    1    3    3    0    0  0.38390451194E+02  0.15286856133E+02 -0.21865919273E+03  0.22252945261E+03  0.00000000000E+00 0. -1.
         11    1    3    3    0    0 -0.22050666167E+02 -0.38240744658E+02 -0.88761511417E+02  0.99132196281E+02  0.00000000000E+00 0.  1.
         21    1    1    2  502  501 -0.28283202058E+02  0.19986226786E+02 -0.54198634765E+02  0.64318588217E+02  0.00000000000E+00 0. -1.
<scales pt_clust_5="13000.00000" pt_clust_6="13000.00000" pt_clust_7="13000.00000" pt_clust_8="13000.00000" pt_clust_9="34.63219"></scales>
<clustering>
<clus scale="   34.632">  1  9  2 -1</clus>
<clus scale="   79.990">  5  6 -1 -1</clus>
<clus scale="   82.523">  1  5  2 -1</clus>
<clus scale="   90.360">  7  8 -1 -1</clus>
<clus scale="   34.632">  1  5  2 -1</clus>
</clustering>
</event>
<event>
 9    2  0.5608219E-005  0.3059795E+03  0.7546771E-02  0.1132815E+00
          2   -1    0    0  502    0  0.00000000000E+00  0.00000000000E+00  0.13421840326E+04  0.13421840326E+04  0.00000000000E+00 0. -1.
         -1   -1    0    0    0  501 -0.00000000000E+00 -0.00000000000E+00 -0.11699478183E+03  0.11699478183E+03  0.00000000000E+00 0.  1.
         24    2    1    2    0    0  0.13233328840E+02  0.20134640197E+01  0.48108810398E+02  0.96744211332E+02  0.82860181986E+02 0.  0.
         23    2    1    2    0    0  0.22749223192E+03 -0.17939499381E+03  0.91755101996E+03  0.96649455362E+03  0.90975648178E+02 0.  0.
        -13    1    3    3    0    0  0.14066355928E+02  0.22203377132E+02  0.65187209549E+02  0.70286731422E+02  0.00000000000E+00 0.  1.
         14    1    3    3    0    0 -0.83302708770E+00 -0.20189913112E+02 -0.17078399151E+02  0.26457479910E+02  0.00000000000E+00 0. -1.
        -13    1    4    4    0    0  0.19491272142E+03 -0.15182756026E+03  0.86037600177E+03  0.89514772046E+03  0.00000000000E+00 0. -1.
         13    1    4    4    0    0  0.32579510491E+02 -0.27567433556E+02  0.57175018189E+02  0.71346833158E+02  0.00000000000E+00 0.  1.
         21    1    1    2  502  501 -0.24072556076E+03  0.17738152979E+03  0.25952942039E+03  0.39594004945E+03  0.00000000000E+00 0.  1.
<scales pt_clust_5="13000.00000" pt_clust_6="13000.00000" pt_clust_7="13000.00000" pt_clust_8="13000.00000" pt_clust_9="292.14188"></scales>
<clustering>
<clus scale="   82.860">  5  6 -1 -1</clus>
<clus scale="   83.934">  2  5  1 -1</clus>
<clus scale="   90.976">  7  8 -1 -1</clus>
<clus scale="  292.142">  2  9  1 -1</clus>
<clus scale="  305.979">  1  5  2 -1</clus>
</clustering>
</event>
<event>
 9    2  0.5608219E-005  0.1115648E+03  0.7546771E-02  0.1259016E+00
         -1   -1    0    0    0  501 -0.00000000000E+00  0.00000000000E+00  0.44340574559E+02  0.44340574559E+02  0.00000000000E+00 0.  1.
          2   -1    0    0  502    0  0.00000000000E+00 -0.00000000000E+00 -0.59882689649E+03  0.59882689649E+03  0.00000000000E+00 0. -1.
         23    2    1    2    0    0  0.65645481730E+02 -0.55121178981E+01 -0.76892342420E+02  0.13448760111E+03  0.88514235092E+02 0.  0.
         24    2    1    2    0    0 -0.65511013939E+02 -0.22974029717E+02 -0.46460727331E+03  0.47737279046E+03  0.84884413623E+02 0.  0.
        -13    1    4    4    0    0 -0.69255869968E+02 -0.42703679235E+02 -0.42756009475E+03  0.43523282777E+03  0.00000000000E+00 0.  1.
         14    1    4    4    0    0  0.37448560291E+01  0.19729649518E+02 -0.37047178552E+02  0.42139962689E+02  0.00000000000E+00 0. -1.
        -13    1    3    3    0    0  0.22484636319E+02  0.34370222926E+02 -0.46080211968E+01  0.41329226386E+02  0.00000000000E+00 0.  1.
         13    1    3    3    0    0  0.43160845411E+02 -0.39882340824E+02 -0.72284321223E+02  0.93158374723E+02  0.00000000000E+00 0. -1.
         21    1    1    2  502  501 -0.13446779111E+00  0.28486147615E+02 -0.12986706209E+02  0.31307079482E+02  0.00000000000E+00 0.  1.
<scales pt_clust_5="13000.00000" pt_clust_6="13000.00000" pt_clust_7="13000.00000" pt_clust_8="13000.00000" pt_clust_9="28.48646"></scales>
<clustering>
<clus scale="   28.486">  1  9  2 -1</clus>
<clus scale="   84.884">  5  6 -1 -1</clus>
<clus scale="   88.514">  7  8 -1 -1</clus>
<clus scale="  108.707">  2  5  1 -1</clus>
<clus scale="  108.707">  2  5  1 -1</clus>
</clustering>
</event>
<event>
 9    2  0.5608219E-005  0.9240529E+02  0.7546771E-02  0.1305511E+00
          2   -1    0    0  502    0  0.00000000000E+00  0.00000000000E+00  0.85854456031E+02  0.85854456031E+02  0.00000000000E+00 0. -1.
         -1   -1    0    0    0  501 -0.00000000000E+00 -0.00000000000E+00 -0.25838526143E+03  0.25838526143E+03  0.00000000000E+00 0.  1.
         23    2    1    2    0    0 -0.15072479609E+02 -0.23333121539E+02 -0.18119690199E+03  0.20470950285E+03  0.91115580805E+02 0.  0.
         24    2    1    2    0    0  0.15338329364E+02 -0.10051378951E+01  0.48485782877E+02  0.92860856735E+02  0.77691652849E+02 0.  0.
        -11    1    4    4    0    0 -0.14800305967E+02 -0.30484944996E+02  0.34706666669E+02  0.48507047317E+02  0.00000000000E+00 0.  1.
         12    1    4    4    0    0  0.30138635331E+02  0.29479807101E+02  0.13779116208E+02  0.44353809418E+02  0.00000000000E+00 0. -1.
        -11    1    3    3    0    0  0.87090015106E+01  0.31142006169E+02 -0.39485138504E+02  0.51036726171E+02  0.00000000000E+00 0. -1.
         11    1    3    3    0    0 -0.23781481120E+02 -0.54475127708E+02 -0.14171176349E+03  0.15367277668E+03  0.00000000000E+00 0.  1.
         21    1    1    2  502  501 -0.26584975517E+00  0.24338259434E+02 -0.39819686287E+02  0.46669357874E+02  0.00000000000E+00 0. -1.
<scales pt_clust_5="13000.00000" pt_clust_6="13000.00000" pt_clust_7="13000.00000" pt_clust_8="13000.00000" pt_clust_9="24.33971"></scales>
<clustering>
<clus scale="   24.340">  2  9  1 -1</clus>
<clus scale="   77.692">  5  6 -1 -1</clus>
<clus scale="   79.200">  1  5  2 -1</clus>
<clus scale="   91.116">  7  8 -1 -1</clus>
<clus scale="   79.200">  1  5  2 -1</clus>
</clustering>
</event>
<event>
 9    2  0.5608219E-005  0.1297529E+03  0.7546771E-02  0.1237856E+00
         -1   -1    0    0    0  501 -0.00000000000E+00  0.00000000000E+00  0.43773382229E+03  0.43773382229E+03  0.00000000000E+00 0.  1.
          2   -1    0    0  502    0  0.00000000000E+00 -0.00000000000E+00 -0.14116443966E+03  0.14116443966E+03  0.00000000000E+00 0. -1.
         23    2    1    2    0    0  0.26141855049E+02  0.57491398010E+02  0.33493645519E+03  0.35826141107E+03  0.11036372692E+03 0.  0.
         24    2    1    2    0    0 -0.65788427918E+02 -0.23430562064E+02 -0.95547211437E+02  0.14316711764E+03  0.80563301034E+02 0.  0.
        -13    1    4    4    0    0 -0.10721157824E+02 -0.34995907004E+02 -0.55391249494E+01  0.37018085274E+02  0.00000000000E+00 0.  1.
         14    1    4    4    0    0 -0.55067270094E+02  0.11565344940E+02 -0.90008086488E+02  0.10614903237E+03  0.00000000000E+00 0. -1.
        -11    1    3    3    0    0  0.39823730515E+02  0.42105896004E+02  0.33251802716E+03  0.33753084952E+03  0.00000000000E+00 0.  1.
         11    1    3    3    0    0 -0.13681875465E+02  0.15385502006E+02  0.24184280280E+01  0.20730561554E+02  0.00000000000E+00 0. -1.
         21    1    1    2  502  501  0.39646572869E+02 -0.34060835946E+02  0.57180138883E+02  0.77469733240E+02  0.00000000000E+00 0.  1.
<scales pt_clust_5="13000.00000" pt_clust_6="13000.00000" pt_clust_7="13000.00000" pt_clust_8="13000.00000" pt_clust_9="52.26845"></scales>
<clustering>
<clus scale="   52.268">  1  9  2 -1</clus>
<clus scale="   80.563">  5  6 -1 -1</clus>
<clus scale="  105.575">  2  5  1 -1</clus>
<clus scale="  110.364">  7  8 -1 -1</clus>
<clus scale="  105.575">  2  5  1 -1</clus>
</clustering>
</event>
<event>
 9    2  0.5608219E-005  0.9299433E+02  0.7546771E-02  0.1303833E+00
          2   -1    0    0  502    0  0.00000000000E+00  0.00000000000E+00  0.10878576494E+04  0.10878576494E+04  0.00000000000E+00 0. -1.
         -1   -1    0    0    0  501 -0.00000000000E+00 -0.00000000000E+00 -0.19016927219E+02  0.19016927219E+02  0.00000000000E+00 0.  1.
         23    2    1    2    0    0  0.32651308324E+02 -0.24079051917E+02  0.24602971931E+03  0.26526742722E+03  0.90500146311E+02 0.  0.
         24    2    1    2    0    0 -0.16016076788E+02  0.74436440360E+01  0.81175869349E+03  0.81561443374E+03  0.77219204392E+02 0.  0.
        -11    1    4    4    0    0  0.19724424774E+02  0.21309382356E+02  0.15235776577E+03  0.15510006931E+03  0.00000000000E+00 0.  1.
         12    1    4    4    0    0 -0.35740501562E+02 -0.13865738320E+02  0.65940092772E+03  0.66051436444E+03  0.00000000000E+00 0. -1.
        -13    1    3    3    0    0  0.16005001212E+02  0.20486113319E+02  0.16346151548E+02  0.30708916834E+02  0.00000000000E+00 0.  1.
         13    1    3    3    0    0  0.16646307112E+02 -0.44565165236E+02  0.22968356777E+03  0.23455851039E+03  0.00000000000E+00 0. -1.
         21    1    1    2  502  501 -0.16635231536E+02  0.16635407881E+02  0.11052309352E+02  0.25992715626E+02  0.00000000000E+00 0.  1.
<scales pt_clust_5="13000.00000" pt_clust_6="13000.00000" pt_clust_7="13000.00000" pt_clust_8="13000.00000" pt_clust_9="23.52589"></scales>
<clustering>
<clus scale="   23.526">  2  9  1 -1</clus>
<clus scale="   77.219">  5  6 -1 -1</clus>
<clus scale="   80.128">  1  5  2 -1</clus>
<clus scale="   90.500">  7  8 -1 -1</clus>
<clus scale="   80.128">  1  5  2 -1</clus>
</clustering>
</event>
<event>
 9    2  0.5608219E-005  0.9440558E+02  0.7546771E-02  0.1300426E+00
          2   -1    0    0  502    0  0.00000000000E+00  0.00000000000E+00  0.10969480661E+03  0.10969480661E+03  0.00000000000E+00 0. -1.
         -1   -1    0    0    0  501 -0.00000000000E+00 -0.00000000000E+00 -0.16891199259E+03  0.16891199259E+03  0.00000000000E+00 0.  1.
         24    2    1    2    0    0  0.34845664897E+02  0.20142833948E+02 -0.33279096433E+02  0.94047460081E+02  0.78214272142E+02 0.  0.
         23    2    1    2    0    0  0.15338497059E+02 -0.24423150196E+02  0.37939522073E+02  0.10321365402E+03  0.91552669451E+02 0.  0.
        -11    1    3    3    0    0  0.41509883467E+02  0.46186496623E+01 -0.53387819326E+02  0.67783933218E+02  0.00000000000E+00 0.  1.
         12    1    3    3    0    0 -0.66642185700E+01  0.15524184285E+02  0.20108722893E+02  0.26263526863E+02  0.00000000000E+00 0. -1.
        -13    1    4    4    0    0 -0.64649718907E+01 -0.56672325297E+02  0.21520744847E+02  0.60964668251E+02  0.00000000000E+00 0. -1.
         13    1    4    4    0    0  0.21803468949E+02  0.32249175102E+02  0.16418777226E+02  0.42248985770E+02  0.00000000000E+00 0.  1.
         21    1    1    2  502  501 -0.50184161955E+02  0.42803162480E+01 -0.63877611620E+02  0.81345685102E+02  0.00000000000E+00 0. -1.
<scales pt_clust_5="13000.00000" pt_clust_6="13000.00000" pt_clust_7="13000.00000" pt_clust_8="13000.00000" pt_clust_9="50.36637"></scales>
<clustering>
<clus scale="   50.366">  2  9  1 -1</clus>
<clus scale="   78.214">  5  6 -1 -1</clus>
<clus scale="   81.535">  2  5  1 -1</clus>
<clus scale="   91.553">  7  8 -1 -1</clus>
<clus scale="   94.406">  1  5  2 -1</clus>
</clustering>
</event>
<event>
 9    2  0.5608219E-005  0.9202287E+02  0.7546771E-02  0.1301044E+00
          2   -1    0    0  502    0  0.00000000000E+00  0.00000000000E+00  0.11486700864E+03  0.11486700864E+03  0.00000000000E+00 0. -1.
         -1   -1    0    0    0  501 -0.00000000000E+00 -0.00000000000E+00 -0.18296916483E+03  0.18296916483E+03  0.00000000000E+00 0.  1.
         24    2    1    2    0    0 -0.37747250724E+02 -0.39377145246E+02 -0.12001767647E+03  0.15245168793E+03  0.76562784575E+02 0.  0.
         23    2    1    2    0    0  0.12906636820E+02  0.37760569927E+02  0.69597186894E+02  0.11485072146E+03  0.82185630628E+02 0.  0.
        -11    1    3    3    0    0  0.20328679413E+01 -0.34028428113E+02 -0.10363743681E+03  0.10909988442E+03  0.00000000000E+00 0.  1.
         12    1    3    3    0    0 -0.39780118665E+02 -0.53487171334E+01 -0.16380239659E+02  0.43351803507E+02  0.00000000000E+00 0. -1.
        -13    1    4    4    0    0 -0.31169109522E+02  0.33586532457E+02  0.25849166579E+02  0.52609390452E+02  0.00000000000E+00 0. -1.
         13    1    4    4    0    0  0.44075746343E+02  0.41740374702E+01  0.43748020314E+02  0.62241331010E+02  0.00000000000E+00 0.  1.
         21    1    1    2  502  501  0.24840613904E+02  0.16165753192E+01 -0.17681666607E+02  0.30533764080E+02  0.00000000000E+00 0. -1.
<scales pt_clust_5="13000.00000" pt_clust_6="13000.00000" pt_clust_7="13000.00000" pt_clust_8="13000.00000" pt_clust_9="24.89316"></scales>
<clustering>
<clus scale="   24.893">  2  9  1 -1</clus>
<clus scale="   76.563">  5  6 -1 -1</clus>
<clus scale="   82.186">  7  8 -1 -1</clus>
<clus scale="   87.038">  2  5  1 -1</clus>
<clus scale="   92.023">  1  5  2 -1</clus>
</clustering>
</event>
<event>
 9    2  0.5608219E-005  0.1416491E+03  0.7546771E-02  0.1213720E+00
         -1   -1    0    0    0  501 -0.00000000000E+00  0.00000000000E+00  0.65445145123E+02  0.65445145123E+02  0.00000000000E+00 0.  1.
          2   -1    0    0  502    0  0.00000000000E+00 -0.00000000000E+00 -0.69294330258E+03  0.69294330258E+03  0.00000000000E+00 0. -1.
         23    2    1    2    0    0  0.74625228353E+02 -0.45697662453E+02 -0.67727063281E+02  0.14276618959E+03  0.90211023329E+02 0.  0.
         24    2    1    2    0    0 -0.11263851467E+03  0.23906564883E+02 -0.55432335796E+03  0.57146866596E+03  0.77737327986E+02 0.  0.
        -11    1    4    4    0    0 -0.21148170390E+02  0.10198782437E+02 -0.25695226776E+02  0.34806679720E+02  0.00000000000E+00 0.  1.
         12    1    4    4    0    0 -0.91490344283E+02  0.13707782446E+02 -0.52862813118E+03  0.53666198624E+03  0.00000000000E+00 0. -1.
        -13    1    3    3    0    0  0.32927375708E+02 -0.61919787436E+02 -0.68477645492E+02  0.98017651876E+02  0.00000000000E+00 0. -1.
         13    1    3    3    0    0  0.41697852645E+02  0.16222124984E+02  0.75058221163E+00  0.44748537717E+02  0.00000000000E+00 0.  1.
         21    1    1    2  502  501  0.38013286320E+02  0.21791097569E+02 -0.54477362204E+01  0.44153592154E+02  0.00000000000E+00 0. -1.
<scales pt_clust_5="13000.00000" pt_clust_6="13000.00000" pt_clust_7="13000.00000" pt_clust_8="13000.00000" pt_clust_9="43.81623"></scales>
<clustering>
<clus scale="   43.816">  1  9  2 -1</clus>
<clus scale="   77.737">  5  6 -1 -1</clus>
<clus scale="   90.211">  7  8 -1 -1</clus>
<clus scale="  134.050">  2  5  1 -1</clus>
<clus scale="  134.050">  2  5  1 -1</clus>
</clustering>
</event>
<event>
 9    2  0.5608219E-005  0.9610482E+02  0.7546771E-02  0.1294925E+00
          2   -1    0    0  502    0  0.00000000000E+00  0.00000000000E+00  0.15661164451E+03  0.15661164451E+03  0.00000000000E+00 0. -1.
         -1   -1    0    0    0  501 -0.00000000000E+00 -0.00000000000E+00 -0.10733115493E+03  0.10733115493E+03  0.00000000000E+00 0.  1.
         23    2    1    2    0    0 -0.13547298229E+02 -0.17840695466E+01 -0.16235373362E+02  0.93668282897E+02  0.91232930892E+02 0.  0.
         24    2    1    2    0    0  0.35158634128E+02  0.24349018013E+01  0.97932261692E+02  0.13130919440E+03  0.80058218532E+02 0.  0.
        -11    1    4    4    0    0  0.41954487636E+02 -0.24540879393E+02  0.90157321035E+02  0.10242449087E+03  0.00000000000E+00 0.  1.
         12    1    4    4    0    0 -0.67958535083E+01  0.26975781194E+02  0.77749406572E+01  0.28884703533E+02  0.00000000000E+00 0. -1.
        -13    1    3    3    0    0 -0.36177523857E+01 -0.41841742974E+02  0.11982355809E+02  0.43673749989E+02  0.00000000000E+00 0. -1.
         13    1    3    3    0    0 -0.99295458436E+01  0.40057673427E+02 -0.28217729172E+02  0.49994532908E+02  0.00000000000E+00 0.  1.
         21    1    1    2  502  501 -0.21611335898E+02 -0.65083225473E+00 -0.32416398748E+02  0.38965322143E+02  0.00000000000E+00 0. -1.
<scales pt_clust_5="13000.00000" pt_clust_6="13000.00000" pt_clust_7="13000.00000" pt_clust_8="13000.00000" pt_clust_9="21.62113"></scales>
<clustering>
<clus scale="   21.621">  2  9  1 -1</clus>
<clus scale="   80.058">  5  6 -1 -1</clus>
<clus scale="   85.569">  1  5  2 -1</clus>
<clus scale="   91.233">  7  8 -1 -1</clus>
<clus scale="   85.569">  1  5  2 -1</clus>
</clustering>
</event>
<event>
 9    2  0.5608219E-005  0.1182465E+03  0.7546771E-02  0.1249659E+00
          2   -1    0    0  502    0  0.00000000000E+00  0.00000000000E+00  0.51162582681E+03  0.51162582681E+03  0.00000000000E+00 0. -1.
         -1   -1    0    0    0  501 -0.00000000000E+00 -0.00000000000E+00 -0.71620353734E+02  0.71620353734E+02  0.00000000000E+00 0.  1.
         23    2    1    2    0    0 -0.52895249309E+02 -0.18345758927E+02  0.86677660844E+02  0.13772274377E+03  0.91214379301E+02 0.  0.
         24    2    1    2    0    0  0.79591772717E+02  0.17953546786E+02  0.38642973845E+03  0.40299584913E+03  0.80128219314E+02 0.  0.
        -11    1    4    4    0    0  0.56234585237E+02  0.26175114108E+01  0.96481375180E+02  0.11170423313E+03  0.00000000000E+00 0.  1.
         12    1    4    4    0    0  0.23357187480E+02  0.15336035375E+02  0.28994836327E+03  0.29129161600E+03  0.00000000000E+00 0. -1.
        -13    1    3    3    0    0 -0.31150126050E+02 -0.21092515255E+02 -0.97280368267E+01  0.38856907407E+02  0.00000000000E+00 0.  1.
         13    1    3    3    0    0 -0.21745123259E+02  0.27467563272E+01  0.96405697670E+02  0.98865836360E+02  0.00000000000E+00 0. -1.
         21    1    1    2  502  501 -0.26696523408E+02  0.39221214187E+00 -0.33101926214E+02  0.42527587652E+02  0.00000000000E+00 0.  1.
<scales pt_clust_5="13000.00000" pt_clust_6="13000.00000" pt_clust_7="13000.00000" pt_clust_8="13000.00000" pt_clust_9="26.69940"></scales>
<clustering>
<clus scale="   26.699">  2  9  1 -1</clus>
<clus scale="   80.128">  5  6 -1 -1</clus>
<clus scale="   91.214">  7  8 -1 -1</clus>
<clus scale="  109.921">  1  5  2 -1</clus>
<clus scale="  109.921">  1  5  2 -1</clus>
</clustering>
</event>
<event>
 9    2  0.5608219E-005  0.1877624E+03  0.7546771E-02  0.1161274E+00
          2   -1    0    0  502    0  0.00000000000E+00  0.00000000000E+00  0.81802475712E+03  0.81802475712E+03  0.00000000000E+00 0. -1.
         -1   -1    0    0    0  501 -0.00000000000E+00 -0.00000000000E+00 -0.14031852254E+03  0.14031852254E+03  0.00000000000E+00 0.  1.
         24    2    1    2    0    0 -0.87587976833E+02 -0.93472590968E+02 -0.20382348714E+02  0.15560368068E+03  0.85955141522E+02 0.  0.
         23    2    1    2    0    0  0.90092836833E+02  0.14231559783E+03  0.72278451055E+03  0.74795089151E+03  0.92965793594E+02 0.  0.
        -13    1    3    3    0    0 -0.54187079150E+02 -0.52813044986E+02 -0.54180692844E+02  0.93064519257E+02  0.00000000000E+00 0.  1.
         14    1    3    3    0    0 -0.33400897683E+02 -0.40659545982E+02  0.33798344130E+02  0.62539161422E+02  0.00000000000E+00 0. -1.
        -11    1    4    4    0    0  0.10758667910E+03  0.10119797702E+03  0.55372805635E+03  0.57308872302E+03  0.00000000000E+00 0.  1.
         11    1    4    4    0    0 -0.17493842263E+02  0.41117620814E+02  0.16905645421E+03  0.17486216849E+03  0.00000000000E+00 0. -1.
         21    1    1    2  502  501 -0.25048600003E+01 -0.48843006863E+02 -0.24695927260E+02  0.54788707470E+02  0.00000000000E+00 0.  1.
<scales pt_clust_5="13000.00000" pt_clust_6="13000.00000" pt_clust_7="13000.00000" pt_clust_8="13000.00000" pt_clust_9="48.90719"></scales>
<clustering>
<clus scale="   48.907">  2  9  1 -1</clus>
<clus scale="   85.955">  5  6 -1 -1</clus>
<clus scale="   92.966">  7  8 -1 -1</clus>
<clus scale="  184.392">  2  5  1 -1</clus>
<clus scale="  187.762">  1  5  2 -1</clus>
</clustering>
</event>
<event>
 9    2  0.5608219E-005  0.1069059E+03  0.7546771E-02  0.1272350E+00
          2   -1    0    0  502    0  0.00000000000E+00  0.00000000000E+00  0.10033648960E+04  0.10033648960E+04  0.00000000000E+00 0. -1.
         -1   -1    0    0    0  501 -0.00000000000E+00 -0.00000000000E+00 -0.12448249660E+03  0.12448249660E+03  0.00000000000E+00 0.  1.
         23    2    1    2    0    0  0.27304494193E+02 -0.26951697249E+02 -0.47274074781E+02  0.11186142347E+03  0.93841411576E+02 0.  0.
         24    2    1    2    0    0  0.52610824103E+02  0.97264363980E+01  0.92917762337E+03  0.93417952045E+03  0.80360551717E+02 0.  0.
        -11    1    4    4    0    0  0.27791605683E+02  0.71168319041E+01  0.86516450762E+02  0.91148883126E+02  0.00000000000E+00 0.  1.
         12    1    4    4    0    0  0.24819218420E+02  0.26096044939E+01  0.84266117261E+03  0.84303063732E+03  0.00000000000E+00 0. -1.
        -13    1    3    3    0    0 -0.19231697817E+02 -0.15079160906E+02 -0.57747605575E+02  0.62705862917E+02  0.00000000000E+00 0.  1.
         13    1    3    3    0    0  0.46536192010E+02 -0.11872536343E+02  0.10473530793E+02  0.49155560553E+02  0.00000000000E+00 0. -1.
         21    1    1    2  502  501 -0.79915318296E+02  0.17225260851E+02 -0.30211491459E+01  0.81806448719E+02  0.00000000000E+00 0.  1.
<scales pt_clust_5="13000.00000" pt_clust_6="13000.00000" pt_clust_7="13000.00000" pt_clust_8="13000.00000" pt_clust_9="81.75064"></scales>
<clustering>
<clus scale="   80.361">  5  6 -1 -1</clus>
<clus scale="   81.751">  2  9  1 -1</clus>
<clus scale="   93.841">  7  8 -1 -1</clus>
<clus scale="   95.292">  1  5  2 -1</clus>
<clus scale="   95.292">  1  5  2 -1</clus>
</clustering>
</event>
<event>
 9    2  0.5608219E-005  0.1026976E+03  0.7546771E-02  0.1280957E+00
          2   -1    0    0  502    0  0.00000000000E+00  0.00000000000E+00  0.19432439496E+03  0.19432439496E+03  0.00000000000E+00 0. -1.
         -1   -1    0    0    0  501 -0.00000000000E+00 -0.00000000000E+00 -0.23048028864E+03  0.23048028864E+03  0.00000000000E+00 0.  1.
         24    2    1    2    0    0 -0.44852007909E+02 -0.47871447789E+02  0.40514902349E+01  0.10461977306E+03  0.81397200296E+02 0.  0.
         23    2    1    2    0    0  0.21991042458E+02  0.23705732427E+02  0.12037607850E+03  0.15619206330E+03  0.94127534042E+02 0.  0.
        -11    1    3    3    0    0 -0.57298135947E+02 -0.43106458941E+01 -0.72821207534E+01  0.57919662755E+02  0.00000000000E+00 0.  1.
         12    1    3    3    0    0  0.12446128038E+02 -0.43560801895E+02  0.11333610988E+02  0.46700110310E+02  0.00000000000E+00 0. -1.
        -13    1    4    4    0    0  0.65478103193E+01 -0.24654740188E+02  0.97007391743E+02  0.10030535423E+03  0.00000000000E+00 0. -1.
         13    1    4    4    0    0  0.15443232139E+02  0.48360472615E+02  0.23368686758E+02  0.55886709075E+02  0.00000000000E+00 0.  1.
         21    1    1    2  502  501  0.22860965451E+02  0.24165715363E+02 -0.16058346242E+03  0.16399284723E+03  0.00000000000E+00 0. -1.
<scales pt_clust_5="13000.00000" pt_clust_6="13000.00000" pt_clust_7="13000.00000" pt_clust_8="13000.00000" pt_clust_9="33.26568"></scales>
<clustering>
<clus scale="   33.266">  2  9  1 -1</clus>
<clus scale="   81.397">  5  6 -1 -1</clus>
<clus scale="   91.172">  2  5  1 -1</clus>
<clus scale="   94.128">  7  8 -1 -1</clus>
<clus scale="  102.698">  1  5  2 -1</clus>
</clustering>
</event>
<event>
 9    2  0.5608219E-005  0.9271845E+02  0.7546771E-02  0.1297110E+00
          2   -1    0    0  502    0  0.00000000000E+00  0.00000000000E+00  0.38398234988E+02  0.38398234988E+02  0.00000000000E+00 0. -1.
         -1   -1    0    0    0  501 -0.00000000000E+00 -0.00000000000E+00 -0.47153797552E+03  0.47153797552E+03  0.00000000000E+00 0.  1.
         24    2    1    2    0    0  0.27843282275E+02 -0.20363982673E+02 -0.22351399630E+03  0.24293071424E+03  0.88695463343E+02 0.  0.
         23    2    1    2    0    0 -0.20675202330E+02 -0.50268519950E+01 -0.49751646544E+02  0.10496907146E+03  0.89947464651E+02 0.  0.
        -13    1    3    3    0    0  0.39654191534E+02 -0.36794396220E+02 -0.21370180939E+03  0.22044215984E+03  0.00000000000E+00 0.  1.
         14    1    3    3    0    0 -0.11810909259E+02  0.16430413547E+02 -0.98121869194E+01  0.22488554400E+02  0.00000000000E+00 0. -1.
        -13    1    4    4    0    0 -0.44040403047E+02 -0.27501660843E+02 -0.86779612326E+01  0.52642240271E+02  0.00000000000E+00 0. -1.
         13    1    4    4    0    0  0.23365200716E+02  0.22474808848E+02 -0.41073685312E+02  0.52326831190E+02  0.00000000000E+00 0.  1.
         21    1    1    2  502  501 -0.71680799447E+01  0.25390834668E+02 -0.15987409768E+03  0.16203642481E+03  0.00000000000E+00 0.  1.
<scales pt_clust_5="13000.00000" pt_clust_6="13000.00000" pt_clust_7="13000.00000" pt_clust_8="13000.00000" pt_clust_9="26.38325"></scales>
<clustering>
<clus scale="   26.383">  2  9  1 -1</clus>
<clus scale="   88.695">  5  6 -1 -1</clus>
<clus scale="   89.947">  7  8 -1 -1</clus>
<clus scale="   91.504">  2  5  1 -1</clus>
<clus scale="   92.718">  1  5  2 -1</clus>
</clustering>
</event>
<event>
 9    2  0.5608219E-005  0.1349171E+03  0.7546771E-02  0.1221726E+00
          2   -1    0    0  502    0  0.00000000000E+00  0.00000000000E+00  0.77201007557E+03  0.77201007557E+03  0.00000000000E+00 0. -1.
         -1   -1    0    0    0  501 -0.00000000000E+00 -0.00000000000E+00 -0.73854018797E+02  0.73854018797E+02  0.00000000000E+00 0.  1.
         23    2    1    2    0    0  0.75027221812E+02  0.57285713093E+02  0.77731281735E+01  0.13128274893E+03  0.90906554809E+02 0.  0.
         24    2    1    2    0    0 -0.63312496506E+02 -0.78037575541E+02  0.67119958437E+03  0.68398926673E+03  0.85053509804E+02 0.  0.
        -11    1    4    4    0    0 -0.62347290968E+02 -0.15149570564E+02  0.24914554150E+03  0.25727455185E+03  0.00000000000E+00 0.  1.
         12    1    4    4    0    0 -0.96520553798E+00 -0.62888004977E+02  0.42205404287E+03  0.42671471488E+03  0.00000000000E+00 0. -1.
        -11    1    3    3    0    0  0.28995483676E+02  0.47418445627E+02 -0.36632271540E+02  0.66567036719E+02  0.00000000000E+00 0.  1.
         11    1    3    3    0    0  0.46031738136E+02  0.98672674661E+01  0.44405399714E+02  0.64715712210E+02  0.00000000000E+00 0. -1.
         21    1    1    2  502  501 -0.11714725306E+02  0.20751862447E+02  0.19183344229E+02  0.30592078711E+02  0.00000000000E+00 0.  1.
<scales pt_clust_5="13000.00000" pt_clust_6="13000.00000" pt_clust_7="13000.00000" pt_clust_8="13000.00000" pt_clust_9="23.83012"></scales>
<clustering>
<clus scale="   23.830">  2  9  1 -1</clus>
<clus scale="   85.054">  5  6 -1 -1</clus>
<clus scale="   90.907">  7  8 -1 -1</clus>
<clus scale="  131.045">  1  5  2 -1</clus>
<clus scale="  131.045">  1  5  2 -1</clus>
</clustering>
</event>
<event>
 9    2  0.5608219E-005  0.1620765E+03  0.7546771E-02  0.1188550E+00
         -1   -1    0    0    0  501 -0.00000000000E+00  0.00000000000E+00  0.95413552960E+02  0.95413552960E+02  0.00000000000E+00 0.  1.
          2   -1    0    0  502    0  0.00000000000E+00 -0.00000000000E+00 -0.48908541152E+03  0.48908541152E+03  0.00000000000E+00 0. -1.
         24    2    1    2    0    0  0.21916380039E+02  0.11667386206E+03 -0.38011479170E+02  0.14755505280E+03  0.78958870659E+02 0.  0.
         23    2    1    2    0    0 -0.56443076664E+02 -0.12615617319E+03 -0.36388180916E+03  0.40020702407E+03  0.93029512190E+02 0.  0.
        -13    1    3    3    0    0 -0.40601124407E-01  0.10483467330E+03 -0.54000518066E+02  0.11792525737E+03  0.00000000000E+00 0.  1.
         14    1    3    3    0    0  0.21956981164E+02  0.11839188759E+02  0.15989038896E+02  0.29629795428E+02  0.00000000000E+00 0. -1.
        -13    1    4    4    0    0 -0.75540106734E+01 -0.95783723073E+02 -0.29603190439E+03  0.31123379171E+03  0.00000000000E+00 0. -1.
         13    1    4    4    0    0 -0.48889065991E+02 -0.30372450117E+02 -0.67849904769E+02  0.88973232360E+02  0.00000000000E+00 0.  1.
         21    1    1    2  502  501  0.34526696625E+02  0.94823111272E+01  0.82214297661E+01  0.36736887614E+02  0.00000000000E+00 0.  1.
<scales pt_clust_5="13000.00000" pt_clust_6="13000.00000" pt_clust_7="13000.00000" pt_clust_8="13000.00000" pt_clust_9="35.80513"></scales>
<clustering>
<clus scale="   35.805">  1  9  2 -1</clus>
<clus scale="   78.959">  5  6 -1 -1</clus>
<clus scale="   93.030">  7  8 -1 -1</clus>
<clus scale="  154.431">  1  5  2 -1</clus>
<clus scale="  162.077">  2  5  1 -1</clus>
</clustering>
</event>
<event>
 9    2  0.5608219E-005  0.1666548E+03  0.7546771E-02  0.1184589E+00
         -1   -1    0    0    0  501 -0.00000000000E+00  0.00000000000E+00  0.78601461754E+02  0.78601461754E+02  0.00000000000E+00 0.  1.
          2   -1    0    0  502    0  0.00000000000E+00 -0.00000000000E+00 -0.10147449329E+04  0.10147449329E+04  0.00000000000E+00 0. -1.
         23    2    1    2    0    0  0.15774653293E+02 -0.12773088879E+03 -0.68939114321E+02  0.17187902501E+03  0.90696075537E+02 0.  0.
         24    2    1    2    0    0  0.24020954336E+02  0.20711138600E+03 -0.67694480655E+03  0.71150630136E+03  0.67192360455E+02 0.  0.
        -13    1    4    4    0    0 -0.17517769011E+02  0.73977573250E+02 -0.18080502723E+03  0.19613773590E+03  0.00000000000E+00 0.  1.
         14    1    4    4    0    0  0.41538723346E+02  0.13313381275E+03 -0.49613977932E+03  0.51536856546E+03  0.00000000000E+00 0. -1.
        -11    1    3    3    0    0  0.51893938251E+00 -0.25464140628E+02 -0.63408897368E+02  0.68332861944E+02  0.00000000000E+00 0. -1.
         11    1    3    3    0    0  0.15255713910E+02 -0.10226674816E+03 -0.55302169524E+01  0.10354616307E+03  0.00000000000E+00 0.  1.
         21    1    1    2  502  501 -0.39795607628E+02 -0.79380497216E+02 -0.19025955032E+03  0.20996106832E+03  0.00000000000E+00 0.  1.
<scales pt_clust_5="13000.00000" pt_clust_6="13000.00000" pt_clust_7="13000.00000" pt_clust_8="13000.00000" pt_clust_9="88.79726"></scales>
<clustering>
<clus scale="   67.192">  5  6 -1 -1</clus>
<clus scale="   88.797">  2  9  1 -1</clus>
<clus scale="   90.696">  7  8 -1 -1</clus>
<clus scale="  155.122">  2  5  1 -1</clus>
<clus scale="   88.797">  2  5  1 -1</clus>
</clustering>
</event>
<event>
 9    2  0.5608219E-005  0.1092767E+03  0.7546771E-02  0.1264890E+00
          2   -1    0    0  502    0  0.00000000000E+00  0.00000000000E+00  0.16636466411E+03  0.16636466411E+03  0.00000000000E+00 0. -1.
         -1   -1    0    0    0  501 -0.00000000000E+00 -0.00000000000E+00 -0.21376102309E+03  0.21376102309E+03  0.00000000000E+00 0.  1.
         23    2    1    2    0    0 -0.27569428884E+02  0.79404549524E+02 -0.75185494541E+02  0.14363107159E+03  0.88948694447E+02 0.  0.
         24    2    1    2    0    0  0.68724794212E+02 -0.36848756588E+01  0.82251699069E+02  0.13454657036E+03  0.81245073383E+02 0.  0.
        -13    1    4    4    0    0  0.78828185432E+01 -0.29461002233E+02  0.19583994046E+01  0.30560183393E+02  0.00000000000E+00 0.  1.
         14    1    4    4    0    0  0.60841975669E+02  0.25776126574E+02  0.80293299664E+02  0.10398638697E+03  0.00000000000E+00 0. -1.
        -11    1    3    3    0    0  0.21609447324E+02  0.65998171475E+02 -0.30517027293E+02  0.75855229263E+02  0.00000000000E+00 0. -1.
         11    1    3    3    0    0 -0.49178876208E+02  0.13406378050E+02 -0.44668467248E+02  0.67775842332E+02  0.00000000000E+00 0.  1.
         21    1    1    2  502  501 -0.41155365328E+02 -0.75719673866E+02 -0.54462563503E+02  0.10194804524E+03  0.00000000000E+00 0.  1.
<scales pt_clust_5="13000.00000" pt_clust_6="13000.00000" pt_clust_7="13000.00000" pt_clust_8="13000.00000" pt_clust_9="86.18140"></scales>
<clustering>
<clus scale="   81.245">  5  6 -1 -1</clus>
<clus scale="   86.181">  2  9  1 -1</clus>
<clus scale="   88.949">  7  8 -1 -1</clus>
<clus scale="  103.103">  1  5  2 -1</clus>
<clus scale="  103.103">  1  5  2 -1</clus>
</clustering>
</event>
<event>
 9    2  0.5608219E-005  0.2582158E+03  0.7546771E-02  0.1108601E+00
          2   -1    0    0  502    0  0.00000000000E+00  0.00000000000E+00  0.11473765028E+04  0.11473765028E+04  0.00000000000E+00 0. -1.
         -1   -1    0    0    0  501 -0.00000000000E+00 -0.00000000000E+00 -0.33574403302E+03  0.33574403302E+03  0.00000000000E+00 0.  1.
         23    2    1    2    0    0 -0.14589482096E+03 -0.16974087148E+03 -0.24134585939E+03  0.34093342780E+03  0.88828577106E+02 0.  0.
         24    2    1    2    0    0  0.16561136840E+03  0.17840915173E+03  0.10786025506E+04  0.11087135058E+04  0.81272535194E+02 0.  0.
        -13    1    4    4    0    0  0.40370936347E+02  0.89013799942E+02  0.31715352478E+03  0.33187290845E+03  0.00000000000E+00 0.  1.
         14    1    4    4    0    0  0.12524043206E+03  0.89395351790E+02  0.76144902584E+03  0.77684059735E+03  0.00000000000E+00 0. -1.
        -13    1    3    3    0    0 -0.14954604395E+01 -0.42052607263E+02 -0.76461552548E+02  0.87275581909E+02  0.00000000000E+00 0. -1.
         13    1    3    3    0    0 -0.14439936052E+03 -0.12768826422E+03 -0.16488430685E+03  0.25365784589E+03  0.00000000000E+00 0.  1.
         21    1    1    2  502  501 -0.19716547444E+02 -0.86682802488E+01 -0.25624221404E+02  0.33473602258E+02  0.00000000000E+00 0.  1.
<scales pt_clust_5="13000.00000" pt_clust_6="13000.00000" pt_clust_7="13000.00000" pt_clust_8="13000.00000" pt_clust_9="21.53790"></scales>
<clustering>
<clus scale="   21.538">  2  9  1 -1</clus>
<clus scale="   81.273">  5  6 -1 -1</clus>
<clus scale="   88.829">  7  8 -1 -1</clus>
<clus scale="  255.715">  1  5  2 -1</clus>
<clus scale="  255.715">  1  5  2 -1</clus>
</clustering>
</event>
<event>
 9    2  0.5608219E-005  0.9131349E+02  0.7546771E-02  0.1305909E+00
         -1   -1    0    0    0  501 -0.00000000000E+00  0.00000000000E+00  0.16289107616E+03  0.16289107616E+03  0.00000000000E+00 0.  1.
          2   -1    0    0  502    0  0.00000000000E+00 -0.00000000000E+00 -0.80094477762E+02  0.80094477762E+02  0.00000000000E+00 0. -1.
         23    2    1    2    0    0  0.12092600814E+02 -0.21367917396E+02  0.98964936223E+02  0.13553609314E+03  0.89292525180E+02 0.  0.
         24    2    1    2    0    0 -0.81102772735E+01 -0.13963877868E+01 -0.23793813231E+02  0.83113882585E+02  0.79208872192E+02 0.  0.
        -11    1    4    4    0    0  0.19186011809E+01 -0.34535182986E+02 -0.32447493585E+02  0.47425728612E+02  0.00000000000E+00 0.  1.
         12    1    4    4    0    0 -0.10028878454E+02  0.33138795200E+02  0.86536803546E+01  0.35688153973E+02  0.00000000000E+00 0. -1.
        -11    1    3    3    0    0 -0.14219145435E+02  0.25284260419E+02  0.81976970804E+01  0.30144322172E+02  0.00000000000E+00 0. -1.
         11    1    3    3    0    0  0.26311746249E+02 -0.46652177815E+02  0.90767239143E+02  0.10539177096E+03  0.00000000000E+00 0.  1.
         21    1    1    2  502  501 -0.39823235406E+01  0.22764305183E+02  0.76254754083E+01  0.24335578203E+02  0.00000000000E+00 0.  1.
<scales pt_clust_5="13000.00000" pt_clust_6="13000.00000" pt_clust_7="13000.00000" pt_clust_8="13000.00000" pt_clust_9="23.11001"></scales>
<clustering>
<clus scale="   23.110">  2  9  1 -1</clus>
<clus scale="   79.209">  5  6 -1 -1</clus>
<clus scale="   81.480">  2  5  1 -1</clus>
<clus scale="   89.293">  7  8 -1 -1</clus>
<clus scale="   23.110">  2  5  1 -1</clus>
</clustering>
</event>
<event>
 9    2  0.5608219E-005  0.1260751E+03  0.7546771E-02  0.1234133E+00
          2   -1    0    0  502    0  0.00000000000E+00  0.00000000000E+00  0.17882365470E+04  0.17882365470E+04  0.00000000000E+00 0. -1.
         -1   -1    0    0    0  501 -0.00000000000E+00 -0.00000000000E+00 -0.23112873158E+02  0.23112873158E+02  0.00000000000E+00 0.  1.
         23    2    1    2    0    0 -0.33480303543E+02  0.66532700606E+02  0.16977454723E+03  0.20710614370E+03  0.92314824915E+02 0.  0.
         24    2    1    2    0    0  0.20046129077E+02 -0.82101655369E+02  0.15394424563E+04  0.15446746171E+04  0.94837056252E+02 0.  0.
        -11    1    4    4    0    0  0.37149633314E+01 -0.33052084939E+02  0.12689557868E+03  0.13118204587E+03  0.00000000000E+00 0.  1.
         12    1    4    4    0    0  0.16331165746E+02 -0.49049570430E+02  0.14125468776E+04  0.14134925712E+04  0.00000000000E+00 0. -1.
        -13    1    3    3    0    0 -0.63624117352E+02  0.31968616504E+02  0.86490775258E+02  0.11202979494E+03  0.00000000000E+00 0.  1.
         13    1    3    3    0    0  0.30143813809E+02  0.34564084102E+02  0.83283771968E+02  0.95076348762E+02  0.00000000000E+00 0. -1.
         21    1    1    2  502  501  0.13434174466E+02  0.15568954763E+02  0.55906670354E+02  0.59568659428E+02  0.00000000000E+00 0. -1.
<scales pt_clust_5="13000.00000" pt_clust_6="13000.00000" pt_clust_7="13000.00000" pt_clust_8="13000.00000" pt_clust_9="20.56379"></scales>
<clustering>
<clus scale="   20.564">  2  9  1 -1</clus>
<clus scale="   92.315">  7  8 -1 -1</clus>
<clus scale="   94.837">  5  6 -1 -1</clus>
<clus scale="  124.189">  2  7  1 -1</clus>
<clus scale="  126.075">  1  5  2 -1</clus>
</clustering>
</event>
<event>
 9    2  0.5608219E-005  0.9773183E+02  0.7546771E-02  0.1293832E+00
         -1   -1    0    0    0  501 -0.00000000000E+00  0.00000000000E+00  0.15612770949E+03  0.15612770949E+03  0.00000000000E+00 0.  1.
          2   -1    0    0  502    0  0.00000000000E+00 -0.00000000000E+00 -0.26140557345E+03  0.26140557345E+03  0.00000000000E+00 0. -1.
         24    2    1    2    0    0  0.40696498150E+01  0.34272043379E+02  0.11483726616E+03  0.14450254479E+03  0.80636547206E+02 0.  0.
         23    2    1    2    0    0  0.79917075981E+01 -0.17281269166E+02 -0.23009314117E+03  0.24992828253E+03  0.95701531565E+02 0.  0.
        -11    1    3    3    0    0 -0.24180944199E+02  0.16629851576E+02  0.10607862896E+03  0.11006337060E+03  0.00000000000E+00 0.  1.
         12    1    3    3    0    0  0.28250594014E+02  0.17642191803E+02  0.87586372062E+01  0.34439174198E+02  0.00000000000E+00 0. -1.
        -13    1    4    4    0    0 -0.32410478701E+02 -0.79767655963E+01 -0.18765204345E+03  0.19059736968E+03  0.00000000000E+00 0. -1.
         13    1    4    4    0    0  0.40402186300E+02 -0.93045035701E+01 -0.42441097722E+02  0.59330912856E+02  0.00000000000E+00 0.  1.
         21    1    1    2  502  501 -0.12061357413E+02 -0.16990774212E+02  0.99780110436E+01  0.23102455613E+02  0.00000000000E+00 0. -1.
<scales pt_clust_5="13000.00000" pt_clust_6="13000.00000" pt_clust_7="13000.00000" pt_clust_8="13000.00000" pt_clust_9="20.83657"></scales>
<clustering>
<clus scale="   20.837">  1  9  2 -1</clus>
<clus scale="   80.637">  5  6 -1 -1</clus>
<clus scale="   83.036">  1  5  2 -1</clus>
<clus scale="   95.702">  7  8 -1 -1</clus>
<clus scale="   97.732">  2  5  1 -1</clus>
</clustering>
</event>
<event>
 9    2  0.5608219E-005  0.1133572E+03  0.7546771E-02  0.1260106E+00
          2   -1    0    0  502    0  0.00000000000E+00  0.00000000000E+00  0.18127634226E+03  0.18127634226E+03  0.00000000000E+00 0. -1.
         -1   -1    0    0    0  501 -0.00000000000E+00 -0.00000000000E+00 -0.84357256260E+02  0.84357256260E+02  0.00000000000E+00 0.  1.
         23    2    1    2    0    0  0.60348826678E+02 -0.48987807169E+02  0.27032150520E+02  0.12507210292E+03  0.94183372388E+02 0.  0.
         24    2    1    2    0    0 -0.44122192756E+02  0.33729442674E+02  0.67606176854E+02  0.11817124783E+03  0.79431766112E+02 0.  0.
        -13    1    4    4    0    0 -0.32416600883E+02  0.39804074343E+02  0.21281157828E+01  0.51378295261E+02  0.00000000000E+00 0.  1.
         14    1    4    4    0    0 -0.11705591874E+02 -0.60746316689E+01  0.65478061071E+02  0.66792952568E+02  0.00000000000E+00 0. -1.
        -13    1    3    3    0    0  0.63619954686E+01 -0.64681090878E+02  0.22043583958E+02  0.68629717304E+02  0.00000000000E+00 0.  1.
         13    1    3    3    0    0  0.53986831209E+02  0.15693283710E+02  0.49885665624E+01  0.56442385615E+02  0.00000000000E+00 0. -1.
         21    1    1    2  502  501 -0.16226633921E+02  0.15258364495E+02  0.22807586280E+01  0.22390247774E+02  0.00000000000E+00 0. -1.
<scales pt_clust_5="13000.00000" pt_clust_6="13000.00000" pt_clust_7="13000.00000" pt_clust_8="13000.00000" pt_clust_9="22.27378"></scales>
<clustering>
<clus scale="   22.274">  2  9  1 -1</clus>
<clus scale="   79.432">  5  6 -1 -1</clus>
<clus scale="   94.183">  7  8 -1 -1</clus>
<clus scale="  101.434">  1  5  2 -1</clus>
<clus scale="  101.434">  1  5  2 -1</clus>
</clustering>
</event>
<event>
 9    2  0.5608219E-005  0.1422497E+03  0.7546771E-02  0.1228153E+00
          2   -1    0    0  502    0  0.00000000000E+00  0.00000000000E+00  0.14527256477E+03  0.14527256477E+03  0.00000000000E+00 0. -1.
         -1   -1    0    0    0  501 -0.00000000000E+00 -0.00000000000E+00 -0.52375675459E+03  0.52375675459E+03  0.00000000000E+00 0.  1.
         23    2    1    2    0    0 -0.90699165218E+02  0.41975871507E+02 -0.41006549118E+03  0.43328820395E+03  0.97962483976E+02 0.  0.
         24    2    1    2    0    0 -0.39056342944E+01  0.52565992740E+02 -0.20807548737E+01  0.97823146247E+02  0.82380828042E+02 0.  0.
        -11    1    4    4    0    0 -0.28214025700E+02  0.64080727644E+02  0.44022152709E+01  0.70155187982E+02  0.00000000000E+00 0.  1.
         12    1    4    4    0    0  0.24308391405E+02 -0.11514734904E+02 -0.64829701446E+01  0.27667958264E+02  0.00000000000E+00 0. -1.
        -11    1    3    3    0    0 -0.90672332414E+02  0.68358409296E+02 -0.33066316458E+03  0.34961760882E+03  0.00000000000E+00 0.  1.
         11    1    3    3    0    0 -0.26832804506E-01 -0.26382537789E+02 -0.79402326598E+02  0.83670595130E+02  0.00000000000E+00 0. -1.
         21    1    1    2  502  501  0.94604799513E+02 -0.94541864247E+02  0.33662056235E+02  0.13791796916E+03  0.00000000000E+00 0. -1.
<scales pt_clust_5="13000.00000" pt_clust_6="13000.00000" pt_clust_7="13000.00000" pt_clust_8="13000.00000" pt_clust_9="103.14231"></scales>
<clustering>
<clus scale="   82.381">  5  6 -1 -1</clus>
<clus scale="   97.801">  1  5  2 -1</clus>
<clus scale="   97.962">  7  8 -1 -1</clus>
<clus scale="  103.142">  1  9  2 -1</clus>
<clus scale="   97.801">  1  5  2 -1</clus>
</clustering>
</event>
<event>
 9    2  0.5608219E-005  0.1137693E+03  0.7546771E-02  0.1254776E+00
          2   -1    0    0  502    0  0.00000000000E+00  0.00000000000E+00  0.68890307302E+03  0.68890307302E+03  0.00000000000E+00 0. -1.
         -1   -1    0    0    0  501 -0.00000000000E+00 -0.00000000000E+00 -0.57797642986E+02  0.57797642986E+02  0.00000000000E+00 0.  1.
         23    2    1    2    0    0  0.44042868852E+02  0.35601527430E+02  0.44338953628E+01  0.10178874871E+03  0.84463287200E+02 0.  0.
         24    2    1    2    0    0 -0.61937525718E+02 -0.47968972439E+02  0.59980685034E+03  0.61034487739E+03  0.81334692640E+02 0.  0.
        -13    1    4    4    0    0 -0.15519719856E+02 -0.51491591174E+02  0.17718221973E+03  0.18516420997E+03  0.00000000000E+00 0.  1.
         14    1    4    4    0    0 -0.46417805862E+02  0.35226187348E+01  0.42262463062E+03  0.42518066742E+03  0.00000000000E+00 0. -1.
        -13    1    3    3    0    0  0.32948481272E+01  0.26856542568E+02 -0.35117700329E+02  0.44332637856E+02  0.00000000000E+00 0.  1.
         13    1    3    3    0    0  0.40748020724E+02  0.87449848623E+01  0.39551595691E+02  0.57456110858E+02  0.00000000000E+00 0. -1.
         21    1    1    2  502  501  0.17894656867E+02  0.12367445009E+02  0.26864684332E+02  0.34567089908E+02  0.00000000000E+00 0. -1.
<scales pt_clust_5="13000.00000" pt_clust_6="13000.00000" pt_clust_7="13000.00000" pt_clust_8="13000.00000" pt_clust_9="21.75253"></scales>
<clustering>
<clus scale="   21.753">  2  9  1 -1</clus>
<clus scale="   81.335">  5  6 -1 -1</clus>
<clus scale="   84.463">  7  8 -1 -1</clus>
<clus scale="  111.466">  1  5  2 -1</clus>
<clus scale="  111.466">  1  5  2 -1</clus>
</clustering>
</event>
<event>
 9    2  0.5608219E-005  0.9039456E+02  0.7546771E-02  0.1306241E+00
         -1   -1    0    0    0  501 -0.00000000000E+00  0.00000000000E+00  0.31902212229E+02  0.31902212229E+02  0.00000000000E+00 0.  1.
          2   -1    0    0  502    0  0.00000000000E+00 -0.00000000000E+00 -0.44218303020E+03  0.44218303020E+03  0.00000000000E+00 0. -1.
         23    2    1    2    0    0  0.50562337195E+01  0.30765210464E+00 -0.63011393283E+02  0.10803573012E+03  0.87610633772E+02 0.  0.
         24    2    1    2    0    0 -0.13876406870E+02 -0.23365330471E+02 -0.30940181684E+03  0.32084544490E+03  0.80460064098E+02 0.  0.
        -13    1    4    4    0    0 -0.28902447927E+02 -0.40835905814E+02 -0.11948928129E+03  0.12953999785E+03  0.00000000000E+00 0.  1.
         14    1    4    4    0    0  0.15026041056E+02  0.17470575342E+02 -0.18991253555E+03  0.19130544705E+03  0.00000000000E+00 0. -1.
        -11    1    3    3    0    0  0.31942759018E+02 -0.14695504695E+02 -0.68277650660E+02  0.76799318302E+02  0.00000000000E+00 0.  1.
         11    1    3    3    0    0 -0.26886525299E+02  0.15003156800E+02  0.52662573767E+01  0.31236411819E+02  0.00000000000E+00 0. -1.
         21    1    1    2  502  501  0.88201731509E+01  0.23057678367E+02 -0.37867607851E+02  0.45204067410E+02  0.00000000000E+00 0. -1.
<scales pt_clust_5="13000.00000" pt_clust_6="13000.00000" pt_clust_7="13000.00000" pt_clust_8="13000.00000" pt_clust_9="24.68708"></scales>
<clustering>
<clus scale="   24.687">  1  9  2 -1</clus>
<clus scale="   80.460">  5  6 -1 -1</clus>
<clus scale="   83.483">  2  5  1 -1</clus>
<clus scale="   87.611">  7  8 -1 -1</clus>
<clus scale="   83.483">  2  5  1 -1</clus>
</clustering>
</event>
<event>
 9    2  0.5608219E-005  0.1067103E+03  0.7546771E-02  0.1271763E+00
          2   -1    0    0  502    0  0.00000000000E+00  0.00000000000E+00  0.67919065692E+03  0.67919065692E+03  0.00000000000E+00 0. -1.
         -1   -1    0    0    0  501 -0.00000000000E+00 -0.00000000000E+00 -0.26018279610E+03  0.26018279610E+03  0.00000000000E+00 0.  1.
         23    2    1    2    0    0  0.77528822661E+02 -0.63794957974E+00 -0.20049067103E+03  0.23353679363E+03  0.91278691323E+02 0.  0.
         24    2    1    2    0    0 -0.54714077483E+02 -0.47108928092E+01  0.65565642290E+03  0.66274935502E+03  0.79596104792E+02 0.  0.
        -13    1    4    4    0    0  0.10854257266E+02 -0.24890628311E+02  0.14693942083E+03  0.14942741272E+03  0.00000000000E+00 0.  1.
         14    1    4    4    0    0 -0.65568334749E+02  0.20179735502E+02  0.50871700208E+03  0.51332194230E+03  0.00000000000E+00 0. -1.
        -11    1    3    3    0    0  0.21444333767E+02 -0.36777600841E+02 -0.35035332256E+02  0.55135522856E+02  0.00000000000E+00 0. -1.
         11    1    3    3    0    0  0.56084488894E+02  0.36139651261E+02 -0.16545533877E+03  0.17840127078E+03  0.00000000000E+00 0.  1.
         21    1    1    2  502  501 -0.22814745178E+02  0.53488423889E+01 -0.36157891053E+02  0.43087304369E+02  0.00000000000E+00 0. -1.
<scales pt_clust_5="13000.00000" pt_clust_6="13000.00000" pt_clust_7="13000.00000" pt_clust_8="13000.00000" pt_clust_9="23.43337"></scales>
<clustering>
<clus scale="   23.433">  2  9  1 -1</clus>
<clus scale="   79.596">  5  6 -1 -1</clus>
<clus scale="   91.279">  7  8 -1 -1</clus>
<clus scale="   96.906">  1  5  2 -1</clus>
<clus scale="   96.906">  1  5  2 -1</clus>
</clustering>
</event>
<event>
 9    2  0.5608219E-005  0.9292934E+02  0.7546771E-02  0.1307032E+00
          2   -1    0    0  502    0  0.00000000000E+00  0.00000000000E+00  0.15263619258E+03  0.15263619258E+03  0.00000000000E+00 0. -1.
         -1   -1    0    0    0  501 -0.00000000000E+00 -0.00000000000E+00 -0.79162123215E+02  0.79162123215E+02  0.00000000000E+00 0.  1.
         24    2    1    2    0    0  0.19525262404E+02 -0.16475944344E+01 -0.16230238891E+02  0.76708026094E+02  0.72365393479E+02 0.  0.
         23    2    1    2    0    0 -0.30100054134E+02 -0.23700461022E+02  0.77920684143E+02  0.12520377212E+03  0.90203250637E+02 0.  0.
        -13    1    3    3    0    0  0.29520001075E+02 -0.22317747724E+02 -0.31943134384E+02  0.48886359664E+02  0.00000000000E+00 0.  1.
         14    1    3    3    0    0 -0.99947386712E+01  0.20670153290E+02  0.15712895493E+02  0.27821666429E+02  0.00000000000E+00 0. -1.
        -13    1    4    4    0    0  0.22083613284E+02  0.11250790526E+02  0.51328892327E+02  0.56999310966E+02  0.00000000000E+00 0.  1.
         13    1    4    4    0    0 -0.52183667418E+02 -0.34951251548E+02  0.26591791816E+02  0.68204461158E+02  0.00000000000E+00 0. -1.
         21    1    1    2  502  501  0.10574791730E+02  0.25348055456E+02  0.11783624111E+02  0.29886517574E+02  0.00000000000E+00 0.  1.
<scales pt_clust_5="13000.00000" pt_clust_6="13000.00000" pt_clust_7="13000.00000" pt_clust_8="13000.00000" pt_clust_9="27.46544"></scales>
<clustering>
<clus scale="   27.465">  1  9  2 -1</clus>
<clus scale="   72.365">  5  6 -1 -1</clus>
<clus scale="   75.736">  2  5  1 -1</clus>
<clus scale="   90.203">  7  8 -1 -1</clus>
<clus scale="   27.465">  1  5  2 -1</clus>
</clustering>
</event>
<event>
 9    2  0.5608219E-005  0.1540316E+03  0.7546771E-02  0.1196918E+00
         -1   -1    0    0    0  501 -0.00000000000E+00  0.00000000000E+00  0.28257460712E+02  0.28257460712E+02  0.00000000000E+00 0.  1.
          2   -1    0    0  502    0  0.00000000000E+00 -0.00000000000E+00 -0.12245102946E+04  0.12245102946E+04  0.00000000000E+00 0. -1.
         23    2    1    2    0    0 -0.48202874290E+02 -0.12831447227E+03 -0.33396190454E+03  0.37202464107E+03  0.89909170804E+02 0.  0.
         24    2    1    2    0    0  0.21910770622E+02  0.11935087604E+03 -0.78605148320E+03  0.79960080763E+03  0.82218026305E+02 0.  0.
        -11    1    4    4    0    0  0.30736220041E+02  0.13870965882E+02 -0.10255041322E+03  0.10795233285E+03  0.00000000000E+00 0.  1.
         12    1    4    4    0    0 -0.88254494185E+01  0.10547991015E+03 -0.68350106998E+03  0.69164847478E+03  0.00000000000E+00 0. -1.
        -13    1    3    3    0    0 -0.22014633255E+02 -0.41936115578E+02 -0.32759571414E+02  0.57588813031E+02  0.00000000000E+00 0.  1.
         13    1    3    3    0    0 -0.26188241035E+02 -0.86378356697E+02 -0.30120233313E+03  0.31443582804E+03  0.00000000000E+00 0. -1.
         21    1    1    2  502  501  0.26292103668E+02  0.89635962389E+01 -0.76239446170E+02  0.81142306629E+02  0.00000000000E+00 0.  1.
<scales pt_clust_5="13000.00000" pt_clust_6="13000.00000" pt_clust_7="13000.00000" pt_clust_8="13000.00000" pt_clust_9="27.77806"></scales>
<clustering>
<clus scale="   27.778">  1  9  2 -1</clus>
<clus scale="   82.218">  5  6 -1 -1</clus>
<clus scale="   89.909">  7  8 -1 -1</clus>
<clus scale="  149.673">  2  5  1 -1</clus>
<clus scale="  149.673">  2  5  1 -1</clus>
</clustering>
</event>
<event>
 9    2  0.5608219E-005  0.9268411E+02  0.7546771E-02  0.1304043E+00
          2   -1    0    0  502    0  0.00000000000E+00  0.00000000000E+00  0.36834684057E+03  0.36834684057E+03  0.00000000000E+00 0. -1.
         -1   -1    0    0    0  501 -0.00000000000E+00 -0.00000000000E+00 -0.12603847763E+03  0.12603847763E+03  0.00000000000E+00 0.  1.
         24    2    1    2    0    0 -0.21462975683E+02 -0.16597355228E+02 -0.76786326361E+02  0.11391324371E+03  0.79648952605E+02 0.  0.
         23    2    1    2    0    0 -0.30872096347E-01  0.12163410677E+02  0.33864073984E+03  0.35108341258E+03  0.91837151492E+02 0.  0.
        -13    1    3    3    0    0 -0.35231178843E+02  0.14263801915E+02 -0.69692670449E+02  0.79383627544E+02  0.00000000000E+00 0.  1.
         14    1    3    3    0    0  0.13768203160E+02 -0.30861157143E+02 -0.70936559119E+01  0.34529616167E+02  0.00000000000E+00 0. -1.
        -13    1    4    4    0    0 -0.44090009142E+02 -0.68049770874E+01  0.15696813485E+03  0.16318465607E+03  0.00000000000E+00 0.  1.
         13    1    4    4    0    0  0.44059137045E+02  0.18968387764E+02  0.18167260499E+03  0.18789875651E+03  0.00000000000E+00 0. -1.
         21    1    1    2  502  501  0.21493847779E+02  0.44339445508E+01 -0.19546050541E+02  0.29388661902E+02  0.00000000000E+00 0. -1.
<scales pt_clust_5="13000.00000" pt_clust_6="13000.00000" pt_clust_7="13000.00000" pt_clust_8="13000.00000" pt_clust_9="21.94642"></scales>
<clustering>
<clus scale="   21.946">  2  9  1 -1</clus>
<clus scale="   79.649">  5  6 -1 -1</clus>
<clus scale="   80.624">  2  5  1 -1</clus>
<clus scale="   91.837">  7  8 -1 -1</clus>
<clus scale="   92.684">  1  5  2 -1</clus>
</clustering>
</event>
<event>
 9    2  0.5608219E-005  0.1363201E+03  0.7546771E-02  0.1220592E+00
         -1   -1    0    0    0  501 -0.00000000000E+00  0.00000000000E+00  0.48869839579E+03  0.48869839579E+03  0.00000000000E+00 0.  1.
          2   -1    0    0  502    0  0.00000000000E+00 -0.00000000000E+00 -0.81524600412E+02  0.81524600412E+02  0.00000000000E+00 0. -1.
         24    2    1    2    0    0  0.55986009888E+02 -0.46469425005E+02  0.33466249190E+03  0.35192492165E+03  0.80983493548E+02 0.  0.
         23    2    1    2    0    0 -0.70954202616E+02  0.81710249962E+02  0.56834462777E+01  0.14127908316E+03  0.90644437005E+02 0.  0.
        -11    1    3    3    0    0  0.66448879855E+02 -0.56767428268E+01  0.21094512164E+03  0.22123635186E+03  0.00000000000E+00 0.  1.
         12    1    3    3    0    0 -0.10462869966E+02 -0.40792682178E+02  0.12371737026E+03  0.13068856978E+03  0.00000000000E+00 0. -1.
        -11    1    4    4    0    0 -0.21676242368E+02 -0.18107052519E+02  0.97686438439E+01  0.29885635959E+02  0.00000000000E+00 0.  1.
         11    1    4    4    0    0 -0.49277960248E+02  0.99817302481E+02 -0.40851975662E+01  0.11139344720E+03  0.00000000000E+00 0. -1.
         21    1    1    2  502  501  0.14968192727E+02 -0.35240824957E+02  0.66827857201E+02  0.77018991394E+02  0.00000000000E+00 0.  1.
<scales pt_clust_5="13000.00000" pt_clust_6="13000.00000" pt_clust_7="13000.00000" pt_clust_8="13000.00000" pt_clust_9="38.28789"></scales>
<clustering>
<clus scale="   38.288">  1  9  2 -1</clus>
<clus scale="   80.983">  5  6 -1 -1</clus>
<clus scale="   90.644">  7  8 -1 -1</clus>
<clus scale="  130.096">  1  5  2 -1</clus>
<clus scale="  136.320">  2  5  1 -1</clus>
</clustering>
</event>
<event>
 9    2  0.5608219E-005  0.1596990E+03  0.7546771E-02  0.1189477E+00
         -1   -1    0    0    0  501 -0.00000000000E+00  0.00000000000E+00  0.18815885251E+03  0.18815885251E+03  0.00000000000E+00 0.  1.
          2   -1    0    0  502    0  0.00000000000E+00 -0.00000000000E+00 -0.34468138014E+03  0.34468138014E+03  0.00000000000E+00 0. -1.
         23    2    1    2    0    0 -0.37092159146E+02 -0.11271453016E+03  0.11763633536E+03  0.18581258106E+03  0.81287233337E+02 0.  0.
         24    2    1    2    0    0  0.53610454335E+02  0.12730968002E+03 -0.28073341233E+03  0.32402553920E+03  0.84258327861E+02 0.  0.
        -11    1    4    4    0    0 -0.16681876229E+02  0.48654839673E+02 -0.13212646929E+03  0.14178498618E+03  0.00000000000E+00 0.  1.
         12    1    4    4    0    0  0.70292330564E+02  0.78654840351E+02 -0.14860694304E+03  0.18224055303E+03  0.00000000000E+00 0. -1.
        -11    1    3    3    0    0  0.25592391832E+02 -0.24695958412E+02  0.24882289244E+02  0.43404944415E+02  0.00000000000E+00 0. -1.
         11    1    3    3    0    0 -0.62684550978E+02 -0.88018571746E+02  0.92754046113E+02  0.14240763664E+03  0.00000000000E+00 0.  1.
         21    1    1    2  502  501 -0.16518295189E+02 -0.14595149866E+02  0.65745493501E+01  0.23002112397E+02  0.00000000000E+00 0.  1.
<scales pt_clust_5="13000.00000" pt_clust_6="13000.00000" pt_clust_7="13000.00000" pt_clust_8="13000.00000" pt_clust_9="22.04252"></scales>
<clustering>
<clus scale="   22.043">  1  9  2 -1</clus>
<clus scale="   81.287">  7  8 -1 -1</clus>
<clus scale="   84.258">  5  6 -1 -1</clus>
<clus scale="  158.152">  1  7  2 -1</clus>
<clus scale="  159.699">  2  5  1 -1</clus>
</clustering>
</event>
<event>
 9    2  0.5608219E-005  0.1080984E+03  0.7546771E-02  0.1266239E+00
         -1   -1    0    0    0  501 -0.00000000000E+00  0.00000000000E+00  0.12216397679E+03  0.12216397679E+03  0.00000000000E+00 0.  1.
          2   -1    0    0  502    0  0.00000000000E+00 -0.00000000000E+00 -0.14967604889E+03  0.14967604889E+03  0.00000000000E+00 0. -1.
         24    2    1    2    0    0  0.68521342485E+02  0.17071490914E+02 -0.31983527319E+02  0.11559279147E+03  0.85744604743E+02 0.  0.
         23    2    1    2    0    0 -0.46987403109E+02 -0.91517029222E+01 -0.36677442960E+02  0.10913390904E+03  0.90958262750E+02 0.  0.
        -11    1    3    3    0    0  0.66923910643E+02 -0.21787816808E+02 -0.10496016366E+02  0.71159575157E+02  0.00000000000E+00 0.  1.
         12    1    3    3    0    0  0.15974318413E+01  0.38859307722E+02 -0.21487510953E+02  0.44433216314E+02  0.00000000000E+00 0. -1.
        -11    1    4    4    0    0 -0.39170374511E+02 -0.48624083162E+02 -0.19851745117E+02  0.65518787282E+02  0.00000000000E+00 0.  1.
         11    1    4    4    0    0 -0.78170285982E+01  0.39472380240E+02 -0.16825697842E+02  0.43615121756E+02  0.00000000000E+00 0. -1.
         21    1    1    2  502  501 -0.21533939375E+02 -0.79197879916E+01  0.41148898180E+02  0.47113325167E+02  0.00000000000E+00 0. -1.
<scales pt_clust_5="13000.00000" pt_clust_6="13000.00000" pt_clust_7="13000.00000" pt_clust_8="13000.00000" pt_clust_9="22.94414"></scales>
<clustering>
<clus scale="   22.944">  1  9  2 -1</clus>
<clus scale="   85.745">  5  6 -1 -1</clus>
<clus scale="   90.958">  7  8 -1 -1</clus>
<clus scale="  103.750">  1  5  2 -1</clus>
<clus scale="  108.098">  2  5  1 -1</clus>
</clustering>
</event>
<event>
 9    2  0.5608219E-005  0.1020735E+03  0.7546771E-02  0.1286614E+00
          2   -1    0    0  502    0  0.00000000000E+00  0.00000000000E+00  0.99354850950E+02  0.99354850950E+02  0.00000000000E+00 0. -1.
         -1   -1    0    0    0  501 -0.00000000000E+00 -0.00000000000E+00 -0.29889450244E+03  0.29889450244E+03  0.00000000000E+00 0.  1.
         23    2    1    2    0    0 -0.17093340801E+01 -0.22008736084E+02 -0.17518954791E+03  0.20233177342E+03  0.98789992151E+02 0.  0.
         24    2    1    2    0    0 -0.91854923367E+01 -0.30193964367E+02  0.54059079383E+02  0.10109237684E+03  0.79380323992E+02 0.  0.
        -11    1    4    4    0    0  0.17174565882E+02  0.17929309069E+02  0.11284076574E+01  0.24853553887E+02  0.00000000000E+00 0.  1.
         12    1    4    4    0    0 -0.26360058219E+02 -0.48123273436E+02  0.52930671726E+02  0.76238822951E+02  0.00000000000E+00 0. -1.
        -11    1    3    3    0    0 -0.30801662138E+02 -0.76726440681E+01 -0.16545084952E+03  0.16846838120E+03  0.00000000000E+00 0.  1.
         11    1    3    3    0    0  0.29092328058E+02 -0.14336092016E+02 -0.97386983941E+01  0.33863392218E+02  0.00000000000E+00 0. -1.
         21    1    1    2  502  501  0.10894826417E+02  0.52202700451E+02 -0.78409182960E+02  0.94825203134E+02  0.00000000000E+00 0.  1.
<scales pt_clust_5="13000.00000" pt_clust_6="13000.00000" pt_clust_7="13000.00000" pt_clust_8="13000.00000" pt_clust_9="53.32747"></scales>
<clustering>
<clus scale="   53.327">  2  9  1 -1</clus>
<clus scale="   79.380">  5  6 -1 -1</clus>
<clus scale="   83.431">  1  5  2 -1</clus>
<clus scale="   98.790">  7  8 -1 -1</clus>
<clus scale="   83.431">  1  5  2 -1</clus>
</clustering>
</event>
<event>
 9    2  0.5608219E-005  0.1366257E+03  0.7546771E-02  0.1220425E+00
          2   -1    0    0  502    0  0.00000000000E+00  0.00000000000E+00  0.56888021922E+03  0.56888021922E+03  0.00000000000E+00 0. -1.
         -1   -1    0    0    0  501 -0.00000000000E+00 -0.00000000000E+00 -0.58967766829E+02  0.58967766829E+02  0.00000000000E+00 0.  1.
         23    2    1    2    0    0  0.69184914690E+02  0.18486070950E+02  0.46501915396E+02  0.12346366002E+03  0.89177126945E+02 0.  0.
         24    2    1    2    0    0 -0.11135624403E+03 -0.15972050544E+02  0.42761291983E+03  0.44901095056E+03  0.78119812005E+02 0.  0.
        -11    1    4    4    0    0 -0.17678636063E+02 -0.24794779624E+02  0.40757236017E+02  0.50876984555E+02  0.00000000000E+00 0.  1.
         12    1    4    4    0    0 -0.93677607968E+02  0.88227290799E+01  0.38685568382E+03  0.39813396600E+03  0.00000000000E+00 0. -1.
        -13    1    3    3    0    0 -0.21485079015E+02  0.15463439776E+01  0.40218646497E+01  0.21912900201E+02  0.00000000000E+00 0. -1.
         13    1    3    3    0    0  0.90669993705E+02  0.16939726972E+02  0.42480050746E+02  0.10155075982E+03  0.00000000000E+00 0.  1.
         21    1    1    2  502  501  0.42171329340E+02 -0.25140204057E+01  0.35797617164E+02  0.55373375476E+02  0.00000000000E+00 0.  1.
<scales pt_clust_5="13000.00000" pt_clust_6="13000.00000" pt_clust_7="13000.00000" pt_clust_8="13000.00000" pt_clust_9="42.24620"></scales>
<clustering>
<clus scale="   42.246">  2  9  1 -1</clus>
<clus scale="   78.120">  5  6 -1 -1</clus>
<clus scale="   89.177">  7  8 -1 -1</clus>
<clus scale="  129.679">  1  5  2 -1</clus>
<clus scale="  129.679">  1  5  2 -1</clus>
</clustering>
</event>
<event>
 9    2  0.5608219E-005  0.1255012E+03  0.7546771E-02  0.1237141E+00
         -1   -1    0    0    0  501 -0.00000000000E+00  0.00000000000E+00  0.27502499440E+02  0.27502499440E+02  0.00000000000E+00 0.  1.
          2   -1    0    0  502    0  0.00000000000E+00 -0.00000000000E+00 -0.15169316582E+04  0.15169316582E+04  0.00000000000E+00 0. -1.
         23    2    1    2    0    0  0.40714852391E+01 -0.69145461899E+02 -0.20537450379E+03  0.23522870780E+03  0.91412177933E+02 0.  0.
         24    2    1    2    0    0 -0.11370988382E+02  0.88465810525E+02 -0.12828481629E+04  0.12885169448E+04  0.81369582200E+02 0.  0.
        -13    1    4    4    0    0 -0.25443219625E+02  0.39485658027E+02 -0.24766903122E+03  0.25208415984E+03  0.00000000000E+00 0.  1.
         14    1    4    4    0    0  0.14072231243E+02  0.48980152498E+02 -0.10351791317E+04  0.10364327849E+04  0.00000000000E+00 0. -1.
        -11    1    3    3    0    0  0.27357345887E+02  0.12278621887E+02 -0.55414417864E+02  0.63007512541E+02  0.00000000000E+00 0. -1.
         11    1    3    3    0    0 -0.23285860648E+02 -0.81424083787E+02 -0.14996008593E+03  0.17222119526E+03  0.00000000000E+00 0.  1.
         21    1    1    2  502  501  0.72995031432E+01 -0.19320348626E+02 -0.12064920333E+01  0.20688505025E+02  0.00000000000E+00 0.  1.
<scales pt_clust_5="13000.00000" pt_clust_6="13000.00000" pt_clust_7="13000.00000" pt_clust_8="13000.00000" pt_clust_9="20.65330"></scales>
<clustering>
<clus scale="   20.653">  1  9  2 -1</clus>
<clus scale="   81.370">  5  6 -1 -1</clus>
<clus scale="   91.412">  7  8 -1 -1</clus>
<clus scale="  118.387">  2  5  1 -1</clus>
<clus scale="  118.387">  2  5  1 -1</clus>
</clustering>
</event>
<event>
 9    2  0.5608219E-005  0.1358289E+03  0.7546771E-02  0.1238990E+00
         -1   -1    0    0    0  501 -0.00000000000E+00  0.00000000000E+00  0.56978575531E+03  0.56978575531E+03  0.00000000000E+00 0.  1.
          2   -1    0    0  502    0  0.00000000000E+00 -0.00000000000E+00 -0.34985644587E+03  0.34985644587E+03  0.00000000000E+00 0. -1.
         23    2    1    2    0    0  0.23390666617E+02  0.87644581999E+02  0.29705227097E+03  0.32399640785E+03  0.92222147919E+02 0.  0.
         24    2    1    2    0    0  0.40561576357E+02  0.28101721132E+01 -0.31802357061E+03  0.33049478849E+03  0.80216427334E+02 0.  0.
        -13    1    4    4    0    0 -0.13361294910E+02  0.24258200049E+02 -0.60863319297E+02  0.66867990153E+02  0.00000000000E+00 0.  1.
         14    1    4    4    0    0  0.53922871267E+02 -0.21448027936E+02 -0.25716025131E+03  0.26362679834E+03  0.00000000000E+00 0. -1.
        -13    1    3    3    0    0  0.59047089244E+02  0.48544790756E+02  0.17624657354E+03  0.19210937026E+03  0.00000000000E+00 0. -1.
         13    1    3    3    0    0 -0.35656422628E+02  0.39099791243E+02  0.12080569744E+03  0.13188703759E+03  0.00000000000E+00 0.  1.
         21    1    1    2  502  501 -0.63952242974E+02 -0.90454754112E+02  0.24090060906E+03  0.26515100484E+03  0.00000000000E+00 0.  1.
<scales pt_clust_5="13000.00000" pt_clust_6="13000.00000" pt_clust_7="13000.00000" pt_clust_8="13000.00000" pt_clust_9="99.72240"></scales>
<clustering>
<clus scale="   80.216">  5  6 -1 -1</clus>
<clus scale="   89.932">  2  5  1 -1</clus>
<clus scale="   92.222">  7  8 -1 -1</clus>
<clus scale="   99.722">  2  9  1 -1</clus>
<clus scale="   89.932">  2  5  1 -1</clus>
</clustering>
</event>
<event>
 9    2  0.5608219E-005  0.1013784E+03  0.7546771E-02  0.1288290E+00
         -1   -1    0    0    0  501 -0.00000000000E+00  0.00000000000E+00  0.38306773665E+02  0.38306773665E+02  0.00000000000E+00 0.  1.
          2   -1    0    0  502    0  0.00000000000E+00 -0.00000000000E+00 -0.41058983896E+03  0.41058983896E+03  0.00000000000E+00 0. -1.
         23    2    1    2    0    0 -0.40700851210E+02  0.10352664482E+02 -0.10229284272E+03  0.14914144603E+03  0.10007801108E+03 0.  0.
         24    2    1    2    0    0  0.61283067637E+01  0.12852170300E+02 -0.21912553471E+03  0.23402129665E+03  0.80914973251E+02 0.  0.
        -13    1    4    4    0    0  0.31799309519E+02 -0.21429119086E+02 -0.12169260401E+03  0.12759111686E+03  0.00000000000E+00 0.  1.
         14    1    4    4    0    0 -0.25671002755E+02  0.34281289386E+02 -0.97432930702E+02  0.10643017979E+03  0.00000000000E+00 0. -1.
        -13    1    3    3    0    0 -0.10284815663E+02 -0.37831864226E+02 -0.77798310833E+02  0.87118336489E+02  0.00000000000E+00 0.  1.
         13    1    3    3    0    0 -0.30416035546E+02  0.48184528708E+02 -0.24494531890E+02  0.62023109545E+02  0.00000000000E+00 0. -1.
         21    1    1    2  502  501  0.34572544446E+02 -0.23204834782E+02 -0.50864687863E+02  0.65733869946E+02  0.00000000000E+00 0.  1.
<scales pt_clust_5="13000.00000" pt_clust_6="13000.00000" pt_clust_7="13000.00000" pt_clust_8="13000.00000" pt_clust_9="41.63803"></scales>
<clustering>
<clus scale="   41.638">  1  9  2 -1</clus>
<clus scale="   80.915">  5  6 -1 -1</clus>
<clus scale="   82.518">  2  5  1 -1</clus>
<clus scale="  100.078">  7  8 -1 -1</clus>
<clus scale="   82.518">  2  5  1 -1</clus>
</clustering>
</event>
<event>
 9    2  0.5608219E-005  0.1346984E+03  0.7546771E-02  0.1221396E+00
         -1   -1    0    0    0  501 -0.00000000000E+00  0.00000000000E+00  0.97466723818E+03  0.97466723818E+03  0.00000000000E+00 0.  1.
          2   -1    0    0  502    0  0.00000000000E+00 -0.00000000000E+00 -0.24093464627E+02  0.24093464627E+02  0.00000000000E+00 0. -1.
         23    2    1    2    0    0 -0.90748824276E+02  0.87067279657E+01  0.44015490898E+03  0.45697308519E+03  0.82321931906E+02 0.  0.
         24    2    1    2    0    0  0.11666603059E+03 -0.23978774442E+02  0.34079707531E+03  0.36951896585E+03  0.78839553955E+02 0.  0.
        -11    1    4    4    0    0  0.94138950813E+02 -0.92953708819E+01  0.32465512269E+03  0.33815602119E+03  0.00000000000E+00 0.  1.
         12    1    4    4    0    0  0.22527079777E+02 -0.14683403560E+02  0.16141952620E+02  0.31362944660E+02  0.00000000000E+00 0. -1.
        -13    1    3    3    0    0 -0.33836654823E+02  0.43453970347E+02  0.22953612864E+03  0.23605084431E+03  0.00000000000E+00 0.  1.
         13    1    3    3    0    0 -0.56912169453E+02 -0.34747242382E+02  0.21061878034E+03  0.22092224089E+03  0.00000000000E+00 0. -1.
         21    1    1    2  502  501 -0.25917206314E+02  0.15272046476E+02  0.16962178927E+03  0.17226865176E+03  0.00000000000E+00 0.  1.
<scales pt_clust_5="13000.00000" pt_clust_6="13000.00000" pt_clust_7="13000.00000" pt_clust_8="13000.00000" pt_clust_9="30.08217"></scales>
<clustering>
<clus scale="   30.082">  1  9  2 -1</clus>
<clus scale="   78.840">  5  6 -1 -1</clus>
<clus scale="   82.322">  7  8 -1 -1</clus>
<clus scale="  132.599">  2  5  1 -1</clus>
<clus scale="  132.599">  2  5  1 -1</clus>
</clustering>
</event>
<event>
 9    2  0.5608219E-005  0.2664030E+03  0.7546771E-02  0.1115975E+00
          2   -1    0    0  502    0  0.00000000000E+00  0.00000000000E+00  0.22639721626E+04  0.22639721626E+04  0.00000000000E+00 0. -1.
         -1   -1    0    0    0  501 -0.00000000000E+00 -0.00000000000E+00 -0.17882970825E+03  0.17882970825E+03  0.00000000000E+00 0.  1.
         23    2    1    2    0    0 -0.16679243992E+03 -0.41845710239E+02  0.11368496504E+03  0.22410636353E+03  0.87912510048E+02 0.  0.
         24    2    1    2    0    0  0.84574334180E+02 -0.24024364883E+03  0.18967994908E+04  0.19155321187E+04  0.80902168960E+02 0.  0.
        -11    1    4    4    0    0  0.62988548072E+02 -0.16267564259E+03  0.99779414141E+03  0.10129284627E+04  0.00000000000E+00 0.  1.
         12    1    4    4    0    0  0.21585786108E+02 -0.77568006235E+02  0.89900534935E+03  0.90260365605E+03  0.00000000000E+00 0. -1.
        -11    1    3    3    0    0 -0.10189249217E+03 -0.72952247715E+01  0.11054236985E+03  0.15051550019E+03  0.00000000000E+00 0.  1.
         11    1    3    3    0    0 -0.64899947747E+02 -0.34550485467E+02  0.31425951864E+01  0.73590863347E+02  0.00000000000E+00 0. -1.
         21    1    1    2  502  501  0.82218105736E+02  0.28208935907E+03  0.74657998519E+02  0.30316338854E+03  0.00000000000E+00 0.  1.
<scales pt_clust_5="13000.00000" pt_clust_6="13000.00000" pt_clust_7="13000.00000" pt_clust_8="13000.00000" pt_clust_9="253.82156"></scales>
<clustering>
<clus scale="   80.902">  5  6 -1 -1</clus>
<clus scale="   87.913">  7  8 -1 -1</clus>
<clus scale="  193.131">  2  7  1 -1</clus>
<clus scale="  253.822">  2  9  1 -1</clus>
<clus scale="  266.403">  1  5  2 -1</clus>
</clustering>
</event>
<event>
 9    2  0.5608219E-005  0.1012522E+03  0.7546771E-02  0.1282606E+00
          2   -1    0    0  502    0  0.00000000000E+00  0.00000000000E+00  0.81495148959E+03  0.81495148959E+03  0.00000000000E+00 0. -1.
         -1   -1    0    0    0  501 -0.00000000000E+00 -0.00000000000E+00 -0.26479327559E+02  0.26479327559E+02  0.00000000000E+00 0.  1.
         23    2    1    2    0    0 -0.21516622564E+02 -0.62639154018E+01  0.10292387588E+03  0.13750585844E+03  0.88387415365E+02 0.  0.
         24    2    1    2    0    0  0.54547830769E+02  0.64452302499E+01  0.64319422887E+03  0.65021313731E+03  0.77854357896E+02 0.  0.
        -11    1    4    4    0    0  0.56560462741E+02  0.26627472888E+02  0.30126061399E+03  0.30767851046E+03  0.00000000000E+00 0.  1.
         12    1    4    4    0    0 -0.20126319716E+01 -0.20182242638E+02  0.34193361487E+03  0.34253462684E+03  0.00000000000E+00 0. -1.
        -13    1    3    3    0    0 -0.44756021294E+02  0.24933501430E+02  0.48034434008E+02  0.70228824468E+02  0.00000000000E+00 0.  1.
         13    1    3    3    0    0  0.23239398731E+02 -0.31197416831E+02  0.54889441874E+02  0.67277033968E+02  0.00000000000E+00 0. -1.
         21    1    1    2  502  501 -0.33031208205E+02 -0.18131484817E+00  0.42354057284E+02  0.53711821408E+02  0.00000000000E+00 0. -1.
<scales pt_clust_5="13000.00000" pt_clust_6="13000.00000" pt_clust_7="13000.00000" pt_clust_8="13000.00000" pt_clust_9="33.03171"></scales>
<clustering>
<clus scale="   33.032">  2  9  1 -1</clus>
<clus scale="   77.854">  5  6 -1 -1</clus>
<clus scale="   88.387">  7  8 -1 -1</clus>
<clus scale="   92.201">  1  5  2 -1</clus>
<clus scale="   92.201">  1  5  2 -1</clus>
</clustering>
</event>
<event>
 9    2  0.5608219E-005  0.9992320E+02  0.7546771E-02  0.1284309E+00
          2   -1    0    0  502    0  0.00000000000E+00  0.00000000000E+00  0.15860705707E+03  0.15860705707E+03  0.00000000000E+00 0. -1.
         -1   -1    0    0    0  501 -0.00000000000E+00 -0.00000000000E+00 -0.14641783717E+03  0.14641783717E+03  0.00000000000E+00 0.  1.
         24    2    1    2    0    0 -0.19295730148E+02 -0.57156482863E+02 -0.78231577782E+02  0.12807403203E+03  0.81508215432E+02 0.  0.
         23    2    1    2    0    0 -0.68903453561E+01  0.42032130269E+02  0.10414905724E+03  0.14374059720E+03  0.89443592984E+02 0.  0.
        -11    1    3    3    0    0 -0.12559626650E+02 -0.65010429434E+02 -0.90429650061E+02  0.11207864099E+03  0.00000000000E+00 0.  1.
         12    1    3    3    0    0 -0.67361034986E+01  0.78539465709E+01  0.12198072279E+02  0.15995391036E+02  0.00000000000E+00 0. -1.
        -11    1    4    4    0    0  0.38822454459E+02  0.35803293222E+02  0.52043147790E+02  0.74145451700E+02  0.00000000000E+00 0. -1.
         11    1    4    4    0    0 -0.45712799815E+02  0.62288370466E+01  0.52105909448E+02  0.69595145501E+02  0.00000000000E+00 0.  1.
         21    1    1    2  502  501  0.26186075504E+02  0.15124352594E+02 -0.13728259549E+02  0.33210265009E+02  0.00000000000E+00 0. -1.
<scales pt_clust_5="13000.00000" pt_clust_6="13000.00000" pt_clust_7="13000.00000" pt_clust_8="13000.00000" pt_clust_9="30.23998"></scales>
<clustering>
<clus scale="   30.240">  2  9  1 -1</clus>
<clus scale="   81.508">  5  6 -1 -1</clus>
<clus scale="   89.444">  7  8 -1 -1</clus>
<clus scale="   92.887">  2  5  1 -1</clus>
<clus scale="   99.923">  1  5  2 -1</clus>
</clustering>
</event>
<event>
 9    2  0.5608219E-005  0.1128751E+03  0.7546771E-02  0.1260369E+00
          2   -1    0    0  502    0  0.00000000000E+00  0.00000000000E+00  0.29118804064E+03  0.29118804064E+03  0.00000000000E+00 0. -1.
         -1   -1    0    0    0  501 -0.00000000000E+00 -0.00000000000E+00 -0.74497822124E+02  0.74497822124E+02  0.00000000000E+00 0.  1.
         23    2    1    2    0    0 -0.41020803898E+02  0.58720537138E+02  0.51638378599E+02  0.12640403294E+03  0.90446943375E+02 0.  0.
         24    2    1    2    0    0  0.15368427504E+02 -0.65617451981E+02  0.18134412837E+03  0.20812014642E+03  0.76723294275E+02 0.  0.
        -13    1    4    4    0    0 -0.20546763408E+02 -0.11512117391E+02  0.11350319733E+02  0.26144370167E+02  0.00000000000E+00 0.  1.
         14    1    4    4    0    0  0.35915190911E+02 -0.54105334590E+02  0.16999380864E+03  0.18197577626E+03  0.00000000000E+00 0. -1.
        -11    1    3    3    0    0 -0.56770740484E+02  0.65205151120E+01  0.10498527293E+02  0.58100371494E+02  0.00000000000E+00 0. -1.
         11    1    3    3    0    0  0.15749936586E+02  0.52200022026E+02  0.41139851306E+02  0.68303661450E+02  0.00000000000E+00 0.  1.
         21    1    1    2  502  501  0.25652376395E+02  0.68969148437E+01 -0.16292288453E+02  0.31161683396E+02  0.00000000000E+00 0.  1.
<scales pt_clust_5="13000.00000" pt_clust_6="13000.00000" pt_clust_7="13000.00000" pt_clust_8="13000.00000" pt_clust_9="26.56336"></scales>
<clustering>
<clus scale="   26.563">  2  9  1 -1</clus>
<clus scale="   76.723">  5  6 -1 -1</clus>
<clus scale="   90.447">  7  8 -1 -1</clus>
<clus scale="  102.209">  1  5  2 -1</clus>
<clus scale="  102.209">  1  5  2 -1</clus>
</clustering>
</event>
<event>
 9    2  0.5608219E-005  0.1427352E+03  0.7546771E-02  0.1224018E+00
         -1   -1    0    0    0  501 -0.00000000000E+00  0.00000000000E+00  0.17145553521E+03  0.17145553521E+03  0.00000000000E+00 0.  1.
          2   -1    0    0  502    0  0.00000000000E+00 -0.00000000000E+00 -0.11699032501E+03  0.11699032501E+03  0.00000000000E+00 0. -1.
         23    2    1    2    0    0 -0.50272373560E+02 -0.49610594112E+02  0.72675108452E+02  0.16202096774E+03  0.12641439795E+03 0.  0.
         24    2    1    2    0    0  0.29489452186E+02  0.54290973295E+02 -0.21252082420E+02  0.10490535125E+03  0.82075234652E+02 0.  0.
        -11    1    4    4    0    0  0.46482578043E+02  0.17587869608E+02  0.13587829475E+02  0.51522736037E+02  0.00000000000E+00 0.  1.
         12    1    4    4    0    0 -0.16993125857E+02  0.36703103687E+02 -0.34839911895E+02  0.53382615218E+02  0.00000000000E+00 0. -1.
        -13    1    3    3    0    0  0.38245530412E+02 -0.37627028273E+02  0.39941607176E+02  0.66886813625E+02  0.00000000000E+00 0.  1.
         13    1    3    3    0    0 -0.88517903972E+02 -0.11983565839E+02  0.32733501277E+02  0.95134154118E+02  0.00000000000E+00 0. -1.
         21    1    1    2  502  501  0.20782921374E+02 -0.46803791832E+01  0.30421841704E+01  0.21519541228E+02  0.00000000000E+00 0.  1.
<scales pt_clust_5="13000.00000" pt_clust_6="13000.00000" pt_clust_7="13000.00000" pt_clust_8="13000.00000" pt_clust_9="21.30342"></scales>
<clustering>
<clus scale="   21.303">  2  9  1 -1</clus>
<clus scale="   82.075">  5  6 -1 -1</clus>
<clus scale="  105.494">  2  5  1 -1</clus>
<clus scale="  126.414">  7  8 -1 -1</clus>
<clus scale="   21.303">  2  5  1 -1</clus>
</clustering>
</event>
<event>
 9    2  0.5608219E-005  0.1024546E+03  0.7546771E-02  0.1283961E+00
         -1   -1    0    0    0  501 -0.00000000000E+00  0.00000000000E+00  0.13209692205E+03  0.13209692205E+03  0.00000000000E+00 0.  1.
          2   -1    0    0  502    0  0.00000000000E+00 -0.00000000000E+00 -0.11725949325E+03  0.11725949325E+03  0.00000000000E+00 0. -1.
         23    2    1    2    0    0  0.22663599566E+02 -0.14903762039E+02  0.66535195294E+02  0.11644013117E+03  0.91627567176E+02 0.  0.
         24    2    1    2    0    0 -0.46765560060E+02  0.20010358605E+02 -0.59029928719E+02  0.10721137349E+03  0.73636363715E+02 0.  0.
        -11    1    4    4    0    0 -0.32415835533E+02 -0.24065783738E+02 -0.40810786199E+02  0.57406172233E+02  0.00000000000E+00 0.  1.
         12    1    4    4    0    0 -0.14349724527E+02  0.44076142343E+02 -0.18219142519E+02  0.49805201254E+02  0.00000000000E+00 0. -1.
        -13    1    3    3    0    0 -0.30631763930E+02 -0.26386147603E+02  0.34893215957E+02  0.53404777564E+02  0.00000000000E+00 0.  1.
         13    1    3    3    0    0  0.53295363496E+02  0.11482385564E+02  0.31641979336E+02  0.63035353609E+02  0.00000000000E+00 0. -1.
         21    1    1    2  502  501  0.24101960494E+02 -0.51065965656E+01  0.73321622306E+01  0.25704910642E+02  0.00000000000E+00 0. -1.
<scales pt_clust_5="13000.00000" pt_clust_6="13000.00000" pt_clust_7="13000.00000" pt_clust_8="13000.00000" pt_clust_9="24.63700"></scales>
<clustering>
<clus scale="   24.637">  1  9  2 -1</clus>
<clus scale="   73.636">  5  6 -1 -1</clus>
<clus scale="   86.739">  2  5  1 -1</clus>
<clus scale="   91.628">  7  8 -1 -1</clus>
<clus scale="   86.739">  2  5  1 -1</clus>
</clustering>
</event>
<event>
 9    2  0.5608219E-005  0.1354567E+03  0.7546771E-02  0.1236647E+00
         -1   -1    0    0    0  501 -0.00000000000E+00  0.00000000000E+00  0.30183928614E+03  0.30183928614E+03  0.00000000000E+00 0.  1.
          2   -1    0    0  502    0  0.00000000000E+00 -0.00000000000E+00 -0.91505712039E+02  0.91505712039E+02  0.00000000000E+00 0. -1.
         23    2    1    2    0    0 -0.30333536111E+02 -0.45655289767E+02  0.49473321373E+02  0.14539383775E+03  0.12524867118E+03 0.  0.
         24    2    1    2    0    0  0.44273891376E+02  0.26646999035E+02  0.10477780933E+02  0.95732447894E+02  0.79904178059E+02 0.  0.
        -13    1    4    4    0    0 -0.12114358923E+02  0.36007638873E+02  0.36346982626E+01  0.38164365327E+02  0.00000000000E+00 0.  1.
         14    1    4    4    0    0  0.56388250299E+02 -0.93606398376E+01  0.68430826709E+01  0.57568082567E+02  0.00000000000E+00 0. -1.
        -13    1    3    3    0    0  0.15016455680E+02 -0.29177183154E+02 -0.35083963383E+02  0.48038385117E+02  0.00000000000E+00 0. -1.
         13    1    3    3    0    0 -0.45349991791E+02 -0.16478106613E+02  0.84557284756E+02  0.97355452638E+02  0.00000000000E+00 0.  1.
         21    1    1    2  502  501 -0.13940355265E+02  0.19008290732E+02  0.15038247180E+03  0.15221871253E+03  0.00000000000E+00 0.  1.
<scales pt_clust_5="13000.00000" pt_clust_6="13000.00000" pt_clust_7="13000.00000" pt_clust_8="13000.00000" pt_clust_9="23.57220"></scales>
<clustering>
<clus scale="   23.572">  1  9  2 -1</clus>
<clus scale="   79.904">  5  6 -1 -1</clus>
<clus scale="   95.110">  2  5  1 -1</clus>
<clus scale="  125.249">  7  8 -1 -1</clus>
<clus scale="   95.110">  2  5  1 -1</clus>
</clustering>
</event>
<event>
 9    2  0.5608219E-005  0.9173652E+02  0.7546771E-02  0.1306722E+00
          2   -1    0    0  502    0  0.00000000000E+00  0.00000000000E+00  0.12526266976E+03  0.12526266976E+03  0.00000000000E+00 0. -1.
         -1   -1    0    0    0  501 -0.00000000000E+00 -0.00000000000E+00 -0.14399385345E+03  0.14399385345E+03  0.00000000000E+00 0.  1.
         23    2    1    2    0    0  0.24036715922E+02 -0.10332525900E+01 -0.92275519233E+02  0.13211165990E+03  0.91432422626E+02 0.  0.
         24    2    1    2    0    0 -0.94214187969E+00 -0.74527879026E+01  0.79100583198E+02  0.11192098334E+03  0.78822411600E+02 0.  0.
        -11    1    4    4    0    0  0.78155588325E+01  0.34873599660E+02  0.39953393189E+02  0.53605265976E+02  0.00000000000E+00 0.  1.
         12    1    4    4    0    0 -0.87577007122E+01 -0.42326387562E+02  0.39147190009E+02  0.58315717362E+02  0.00000000000E+00 0. -1.
        -13    1    3    3    0    0 -0.75891803009E+01 -0.23127479425E+02  0.72277113208E+01  0.25391253871E+02  0.00000000000E+00 0. -1.
         13    1    3    3    0    0  0.31625896223E+02  0.22094226835E+02 -0.99503230554E+02  0.10672040602E+03  0.00000000000E+00 0.  1.
         21    1    1    2  502  501 -0.23094574043E+02  0.84860404926E+01 -0.55562476550E+01  0.25223879984E+02  0.00000000000E+00 0.  1.
<scales pt_clust_5="13000.00000" pt_clust_6="13000.00000" pt_clust_7="13000.00000" pt_clust_8="13000.00000" pt_clust_9="24.60431"></scales>
<clustering>
<clus scale="   24.604">  2  9  1 -1</clus>
<clus scale="   78.822">  5  6 -1 -1</clus>
<clus scale="   79.175">  1  5  2 -1</clus>
<clus scale="   91.432">  7  8 -1 -1</clus>
<clus scale="   79.175">  1  5  2 -1</clus>
</clustering>
</event>
<event>
 9    2  0.5608219E-005  0.9866039E+02  0.7546771E-02  0.1291981E+00
         -1   -1    0    0    0  501 -0.00000000000E+00  0.00000000000E+00  0.39808754032E+03  0.39808754032E+03  0.00000000000E+00 0.  1.
          2   -1    0    0  502    0  0.00000000000E+00 -0.00000000000E+00 -0.12883679766E+03  0.12883679766E+03  0.00000000000E+00 0. -1.
         24    2    1    2    0    0 -0.12139311340E+02 -0.21266477336E+02  0.40149597440E+02  0.90136206692E+02  0.76895511209E+02 0.  0.
         23    2    1    2    0    0 -0.42148363525E+02  0.18381895182E+02 -0.74859998414E+02  0.12800366067E+03  0.93094248825E+02 0.  0.
        -11    1    3    3    0    0  0.23426513951E+02 -0.32941966066E+02  0.89398414830E+01  0.41399220402E+02  0.00000000000E+00 0.  1.
         12    1    3    3    0    0 -0.35565825291E+02  0.11675488730E+02  0.31209755957E+02  0.48736986290E+02  0.00000000000E+00 0. -1.
        -11    1    4    4    0    0  0.14282253083E+02 -0.26559878012E+02 -0.12491629865E+02  0.32641242161E+02  0.00000000000E+00 0.  1.
         11    1    4    4    0    0 -0.56430616608E+02  0.44941773194E+02 -0.62368368549E+02  0.95362418510E+02  0.00000000000E+00 0. -1.
         21    1    1    2  502  501  0.54287674865E+02  0.28845821538E+01  0.30396114363E+03  0.30878447062E+03  0.00000000000E+00 0.  1.
<scales pt_clust_5="13000.00000" pt_clust_6="13000.00000" pt_clust_7="13000.00000" pt_clust_8="13000.00000" pt_clust_9="54.36426"></scales>
<clustering>
<clus scale="   54.364">  1  9  2 -1</clus>
<clus scale="   76.896">  5  6 -1 -1</clus>
<clus scale="   83.548">  1  5  2 -1</clus>
<clus scale="   93.094">  7  8 -1 -1</clus>
<clus scale="   98.660">  2  5  1 -1</clus>
</clustering>
</event>
<event>
 9    2  0.5608219E-005  0.1660698E+03  0.7546771E-02  0.1183813E+00
         -1   -1    0    0    0  501 -0.00000000000E+00  0.00000000000E+00  0.21726025995E+03  0.21726025995E+03  0.00000000000E+00 0.  1.
          2   -1    0    0  502    0  0.00000000000E+00 -0.00000000000E+00 -0.27834240842E+03  0.27834240842E+03  0.00000000000E+00 0. -1.
         23    2    1    2    0    0  0.49772233704E+02 -0.14715659113E+03  0.83860688987E+02  0.19896273097E+03  0.91767181486E+02 0.  0.
         24    2    1    2    0    0 -0.47733647491E+02  0.12635158065E+03 -0.19044365638E+03  0.24656670286E+03  0.79266194995E+02 0.  0.
        -11    1    4    4    0    0  0.20950958850E+02  0.15347408571E+02 -0.35007653317E+02  0.43589235108E+02  0.00000000000E+00 0.  1.
         12    1    4    4    0    0 -0.68684606341E+02  0.11100417208E+03 -0.15543600306E+03  0.20297746775E+03  0.00000000000E+00 0. -1.
        -13    1    3    3    0    0  0.14075938840E+01 -0.12121560633E+03  0.36855980492E+02  0.12670267494E+03  0.00000000000E+00 0.  1.
         13    1    3    3    0    0  0.48364639820E+02 -0.25940984799E+02  0.47004708495E+02  0.72260056034E+02  0.00000000000E+00 0. -1.
         21    1    1    2  502  501 -0.20385862130E+01  0.20805010475E+02  0.45500818923E+02  0.50073234539E+02  0.00000000000E+00 0. -1.
<scales pt_clust_5="13000.00000" pt_clust_6="13000.00000" pt_clust_7="13000.00000" pt_clust_8="13000.00000" pt_clust_9="20.90465"></scales>
<clustering>
<clus scale="   20.905">  1  9  2 -1</clus>
<clus scale="   79.266">  5  6 -1 -1</clus>
<clus scale="   91.767">  7  8 -1 -1</clus>
<clus scale="  159.503">  2  5  1 -1</clus>
<clus scale="  159.503">  2  5  1 -1</clus>
</clustering>
</event>
<event>
 9    2  0.5608219E-005  0.1598542E+03  0.7546771E-02  0.1191478E+00
         -1   -1    0    0    0  501 -0.00000000000E+00  0.00000000000E+00  0.26679009869E+03  0.26679009869E+03  0.00000000000E+00 0.  1.
          2   -1    0    0  502    0  0.00000000000E+00 -0.00000000000E+00 -0.11515988457E+03  0.11515988457E+03  0.00000000000E+00 0. -1.
         23    2    1    2    0    0 -0.84918677919E+02 -0.75262898996E+02  0.76478493946E+02  0.16393324623E+03  0.90274378192E+02 0.  0.
         24    2    1    2    0    0  0.10912237443E+03  0.10078322487E+03  0.44797612718E+02  0.17155731606E+03  0.73212946754E+02 0.  0.
        -13    1    4    4    0    0  0.46144117773E+02  0.86665768642E+01  0.36854004757E+02  0.59687576816E+02  0.00000000000E+00 0.  1.
         14    1    4    4    0    0  0.62978256661E+02  0.92116648003E+02  0.79436079611E+01  0.11186973925E+03  0.00000000000E+00 0. -1.
        -13    1    3    3    0    0 -0.32253955447E+02 -0.88849262974E+01 -0.17201060485E+02  0.37618293942E+02  0.00000000000E+00 0. -1.
         13    1    3    3    0    0 -0.52664722472E+02 -0.66377972699E+02  0.93679554432E+02  0.12631495229E+03  0.00000000000E+00 0.  1.
         21    1    1    2  502  501 -0.24203696515E+02 -0.25520325871E+02  0.30354107458E+02  0.46459420973E+02  0.00000000000E+00 0.  1.
<scales pt_clust_5="13000.00000" pt_clust_6="13000.00000" pt_clust_7="13000.00000" pt_clust_8="13000.00000" pt_clust_9="35.17252"></scales>
<clustering>
<clus scale="   35.173">  1  9  2 -1</clus>
<clus scale="   73.213">  5  6 -1 -1</clus>
<clus scale="   90.274">  7  8 -1 -1</clus>
<clus scale="  150.878">  2  5  1 -1</clus>
<clus scale="  150.878">  2  5  1 -1</clus>
</clustering>
</event>
<event>
 9    2  0.5608219E-005  0.1145022E+03  0.7546771E-02  0.1257759E+00
         -1   -1    0    0    0  501 -0.00000000000E+00  0.00000000000E+00  0.20609368692E+03  0.20609368692E+03  0.00000000000E+00 0.  1.
          2   -1    0    0  502    0  0.00000000000E+00 -0.00000000000E+00 -0.92761538241E+02  0.92761538241E+02  0.00000000000E+00 0. -1.
         24    2    1    2    0    0 -0.71982597878E+02  0.16681877193E+02  0.95943095887E+02  0.14494460835E+03  0.79649748386E+02 0.  0.
         23    2    1    2    0    0  0.50655913339E+02 -0.38502724940E+02 -0.86284152473E+01  0.11381216905E+03  0.93969563635E+02 0.  0.
        -13    1    3    3    0    0 -0.37745815161E+02  0.35626425208E+02  0.91982316910E+02  0.10561598061E+03  0.00000000000E+00 0.  1.
         14    1    3    3    0    0 -0.34236782717E+02 -0.18944548014E+02  0.39607789771E+01  0.39328627746E+02  0.00000000000E+00 0. -1.
        -13    1    4    4    0    0  0.52776501652E+01  0.24053098455E+02  0.19665578870E+02  0.31514125862E+02  0.00000000000E+00 0.  1.
         13    1    4    4    0    0  0.45378263174E+02 -0.62555823394E+02 -0.28293994117E+02  0.82298043187E+02  0.00000000000E+00 0. -1.
         21    1    1    2  502  501  0.21326684539E+02  0.21820847746E+02  0.26017468043E+02  0.40098447765E+02  0.00000000000E+00 0.  1.
<scales pt_clust_5="13000.00000" pt_clust_6="13000.00000" pt_clust_7="13000.00000" pt_clust_8="13000.00000" pt_clust_9="30.51191"></scales>
<clustering>
<clus scale="   30.512">  1  9  2 -1</clus>
<clus scale="   79.650">  5  6 -1 -1</clus>
<clus scale="   93.970">  7  8 -1 -1</clus>
<clus scale="  103.075">  1  5  2 -1</clus>
<clus scale="  114.502">  2  5  1 -1</clus>
</clustering>
</event>
<event>
 9    2  0.5608219E-005  0.9817757E+02  0.7546771E-02  0.1285774E+00
          2   -1    0    0  502    0  0.00000000000E+00  0.00000000000E+00  0.43767569206E+03  0.43767569206E+03  0.00000000000E+00 0. -1.
         -1   -1    0    0    0  501 -0.00000000000E+00 -0.00000000000E+00 -0.10073748002E+03  0.10073748002E+03  0.00000000000E+00 0.  1.
         23    2    1    2    0    0 -0.70098374707E+02  0.80747199130E+02 -0.62645938334E+01  0.13621707310E+03  0.84154343698E+02 0.  0.
         24    2    1    2    0    0  0.33702039628E+02 -0.30554371067E+02  0.32444792863E+03  0.33742142325E+03  0.80730176562E+02 0.  0.
        -11    1    4    4    0    0  0.50101119862E+02  0.30950444916E+01  0.12902048282E+03  0.13844127455E+03  0.00000000000E+00 0.  1.
         12    1    4    4    0    0 -0.16399080234E+02 -0.33649415559E+02  0.19542744581E+03  0.19898014870E+03  0.00000000000E+00 0. -1.
        -11    1    3    3    0    0 -0.60675385441E+02  0.64254840399E+01  0.27737976500E+00  0.61015294666E+02  0.00000000000E+00 0. -1.
         11    1    3    3    0    0 -0.94229892662E+01  0.74321715090E+02 -0.65419735984E+01  0.75201778431E+02  0.00000000000E+00 0.  1.
         21    1    1    2  502  501  0.36396335079E+02 -0.50192828063E+02  0.18754877238E+02  0.64774675733E+02  0.00000000000E+00 0.  1.
<scales pt_clust_5="13000.00000" pt_clust_6="13000.00000" pt_clust_7="13000.00000" pt_clust_8="13000.00000" pt_clust_9="62.00011"></scales>
<clustering>
<clus scale="   62.000">  2  9  1 -1</clus>
<clus scale="   80.730">  5  6 -1 -1</clus>
<clus scale="   84.154">  7  8 -1 -1</clus>
<clus scale="   95.259">  1  5  2 -1</clus>
<clus scale="   95.259">  1  5  2 -1</clus>
</clustering>
</event>
<event>
 9    2  0.5608219E-005  0.1768242E+03  0.7546771E-02  0.1201513E+00
          2   -1    0    0  502    0  0.00000000000E+00  0.00000000000E+00  0.91439216795E+02  0.91439216795E+02  0.00000000000E+00 0. -1.
         -1   -1    0    0    0  501 -0.00000000000E+00 -0.00000000000E+00 -0.11593802091E+04  0.11593802091E+04  0.00000000000E+00 0.  1.
         23    2    1    2    0    0 -0.71985215654E+02  0.12110783151E+03 -0.60750261804E+03  0.63015299515E+03  0.90467608821E+02 0.  0.
         24    2    1    2    0    0  0.11444741075E+02  0.33721728829E+02  0.36482681420E+02  0.96674181376E+02  0.82138749733E+02 0.  0.
        -11    1    4    4    0    0 -0.27212635699E+02  0.33227245913E+02 -0.81316048807E+00  0.42956241021E+02  0.00000000000E+00 0.  1.
         12    1    4    4    0    0  0.38657376774E+02  0.49448291648E+00  0.37295841908E+02  0.53717940355E+02  0.00000000000E+00 0. -1.
        -11    1    3    3    0    0 -0.87172489847E+02  0.67046686131E+02 -0.36347127124E+03  0.37974421144E+03  0.00000000000E+00 0.  1.
         11    1    3    3    0    0  0.15187274193E+02  0.54061145377E+02 -0.24403134680E+03  0.25040878371E+03  0.00000000000E+00 0. -1.
         21    1    1    2  502  501  0.60540474579E+02 -0.15482956034E+03 -0.49692105571E+03  0.52399224939E+03  0.00000000000E+00 0.  1.
<scales pt_clust_5="13000.00000" pt_clust_6="13000.00000" pt_clust_7="13000.00000" pt_clust_8="13000.00000" pt_clust_9="151.92891"></scales>
<clustering>
<clus scale="   82.139">  5  6 -1 -1</clus>
<clus scale="   89.526">  1  5  2 -1</clus>
<clus scale="   90.468">  7  8 -1 -1</clus>
<clus scale="  151.929">  1  9  2 -1</clus>
<clus scale="   89.526">  1  5  2 -1</clus>
</clustering>
</event>
<event>
 9    2  0.5608219E-005  0.1432180E+03  0.7546771E-02  0.1210218E+00
          2   -1    0    0  502    0  0.00000000000E+00  0.00000000000E+00  0.92595333101E+02  0.92595333101E+02  0.00000000000E+00 0. -1.
         -1   -1    0    0    0  501 -0.00000000000E+00 -0.00000000000E+00 -0.36799654271E+03  0.36799654271E+03  0.00000000000E+00 0.  1.
         23    2    1    2    0    0 -0.35148290382E+02 -0.11286957240E+03 -0.17172100730E+03  0.22706004540E+03  0.89962309778E+02 0.  0.
         24    2    1    2    0    0  0.64781036864E+01  0.10959119556E+03 -0.13758704874E+02  0.13909347453E+03  0.84294108485E+02 0.  0.
        -13    1    4    4    0    0  0.25596191610E+02  0.34569023641E+00  0.63622294209E+01  0.26377310133E+02  0.00000000000E+00 0.  1.
         14    1    4    4    0    0 -0.19118087923E+02  0.10924550532E+03 -0.20120934295E+02  0.11271616440E+03  0.00000000000E+00 0. -1.
        -11    1    3    3    0    0  0.11404262500E+02 -0.60079179275E+02 -0.28475785729E+02  0.67456914830E+02  0.00000000000E+00 0. -1.
         11    1    3    3    0    0 -0.46552552882E+02 -0.52790393121E+02 -0.14324522157E+03  0.15960313057E+03  0.00000000000E+00 0.  1.
         21    1    1    2  502  501  0.28670186696E+02  0.32783768357E+01 -0.89921497435E+02  0.94438355878E+02  0.00000000000E+00 0. -1.
<scales pt_clust_5="13000.00000" pt_clust_6="13000.00000" pt_clust_7="13000.00000" pt_clust_8="13000.00000" pt_clust_9="28.85702"></scales>
<clustering>
<clus scale="   28.857">  2  9  1 -1</clus>
<clus scale="   84.294">  5  6 -1 -1</clus>
<clus scale="   89.962">  7  8 -1 -1</clus>
<clus scale="  139.727">  1  5  2 -1</clus>
<clus scale="  139.727">  1  5  2 -1</clus>
</clustering>
</event>
<event>
 9    2  0.5608219E-005  0.1117179E+03  0.7546771E-02  0.1264105E+00
          2   -1    0    0  502    0  0.00000000000E+00  0.00000000000E+00  0.42285351145E+03  0.42285351145E+03  0.00000000000E+00 0. -1.
         -1   -1    0    0    0  501 -0.00000000000E+00 -0.00000000000E+00 -0.23574488207E+03  0.23574488207E+03  0.00000000000E+00 0.  1.
         23    2    1    2    0    0  0.47789924420E+02 -0.62828062439E+02 -0.19571977882E+03  0.23199416879E+03  0.96352582865E+02 0.  0.
         24    2    1    2    0    0 -0.42387167157E+02  0.36527840068E+02  0.38727017829E+03  0.39938987550E+03  0.80019539017E+02 0.  0.
        -11    1    4    4    0    0 -0.20337626086E+02 -0.21752636783E-01  0.16550842980E+02  0.26221172959E+02  0.00000000000E+00 0.  1.
         12    1    4    4    0    0 -0.22049541071E+02  0.36549592705E+02  0.37071933530E+03  0.37316870254E+03  0.00000000000E+00 0. -1.
        -11    1    3    3    0    0  0.27898883523E+02  0.13319684085E+02 -0.11568950753E+03  0.11974900350E+03  0.00000000000E+00 0.  1.
         11    1    3    3    0    0  0.19891040897E+02 -0.76147746525E+02 -0.80030271292E+02  0.11224516529E+03  0.00000000000E+00 0. -1.
         21    1    1    2  502  501 -0.54027572630E+01  0.26300222372E+02 -0.44417700846E+01  0.27214349236E+02  0.00000000000E+00 0. -1.
<scales pt_clust_5="13000.00000" pt_clust_6="13000.00000" pt_clust_7="13000.00000" pt_clust_8="13000.00000" pt_clust_9="26.84942"></scales>
<clustering>
<clus scale="   26.849">  2  9  1 -1</clus>
<clus scale="   80.020">  5  6 -1 -1</clus>
<clus scale="   96.353">  7  8 -1 -1</clus>
<clus scale="   97.981">  1  5  2 -1</clus>
<clus scale="   97.981">  1  5  2 -1</clus>
</clustering>
</event>
<event>
 9    2  0.5608219E-005  0.2057201E+03  0.7546771E-02  0.1145480E+00
          2   -1    0    0  502    0  0.00000000000E+00  0.00000000000E+00  0.10232378497E+03  0.10232378497E+03  0.00000000000E+00 0. -1.
         -1   -1    0    0    0  501 -0.00000000000E+00 -0.00000000000E+00 -0.87283255570E+03  0.87283255570E+03  0.00000000000E+00 0.  1.
         24    2    1    2    0    0  0.19208400028E+02 -0.20477981149E+03 -0.63140370779E+03  0.67047228196E+03  0.92513268490E+02 0.  0.
         23    2    1    2    0    0 -0.40772735474E+02  0.17511593126E+03 -0.46610980847E+02  0.20518470405E+03  0.87178976265E+02 0.  0.
        -13    1    3    3    0    0  0.27311090740E+02 -0.13969227820E+03 -0.29266852327E+03  0.32544537603E+03  0.00000000000E+00 0.  1.
         14    1    3    3    0    0 -0.81026907122E+01 -0.65087533286E+02 -0.33873518452E+03  0.34502690593E+03  0.00000000000E+00 0. -1.
        -13    1    4    4    0    0 -0.59820959265E+02  0.13526694862E+03 -0.10754572964E+02  0.14829482593E+03  0.00000000000E+00 0. -1.
         13    1    4    4    0    0  0.19048223791E+02  0.39848982633E+02 -0.35856407884E+02  0.56889878123E+02  0.00000000000E+00 0.  1.
         21    1    1    2  502  501  0.21564335446E+02  0.29663880234E+02 -0.92494082102E+02  0.99499354660E+02  0.00000000000E+00 0. -1.
<scales pt_clust_5="13000.00000" pt_clust_6="13000.00000" pt_clust_7="13000.00000" pt_clust_8="13000.00000" pt_clust_9="36.67378"></scales>
<clustering>
<clus scale="   36.674">  2  9  1 -1</clus>
<clus scale="   87.179">  7  8 -1 -1</clus>
<clus scale="   92.513">  5  6 -1 -1</clus>
<clus scale="  203.377">  1  7  2 -1</clus>
<clus scale="  203.377">  1  5  2 -1</clus>
</clustering>
</event>
<event>
 9    2  0.5608219E-005  0.1550860E+03  0.7546771E-02  0.1195492E+00
          2   -1    0    0  502    0  0.00000000000E+00  0.00000000000E+00  0.65243604587E+03  0.65243604587E+03  0.00000000000E+00 0. -1.
         -1   -1    0    0    0  501 -0.00000000000E+00 -0.00000000000E+00 -0.69052105619E+02  0.69052105619E+02  0.00000000000E+00 0.  1.
         23    2    1    2    0    0 -0.14311790070E+03  0.57739944031E+01  0.97985806426E+02  0.19411962714E+03  0.86977806758E+02 0.  0.
         24    2    1    2    0    0  0.12428826184E+03  0.15478008629E+02  0.47403284257E+03  0.49678465968E+03  0.80004509117E+02 0.  0.
        -13    1    4    4    0    0  0.72714523380E+01  0.24943317745E+02  0.44823409920E+02  0.51809084108E+02  0.00000000000E+00 0.  1.
         14    1    4    4    0    0  0.11701680950E+03 -0.94653091167E+01  0.42920943265E+03  0.44497557558E+03  0.00000000000E+00 0. -1.
        -11    1    3    3    0    0 -0.12905016010E+03  0.26522030390E+02  0.10456863417E+03  0.16820214378E+03  0.00000000000E+00 0.  1.
         11    1    3    3    0    0 -0.14067740596E+02 -0.20748035987E+02 -0.65828277455E+01  0.25917483364E+02  0.00000000000E+00 0. -1.
         21    1    1    2  502  501  0.18829638864E+02 -0.21252003032E+02  0.11365291259E+02  0.30583864668E+02  0.00000000000E+00 0.  1.
<scales pt_clust_5="13000.00000" pt_clust_6="13000.00000" pt_clust_7="13000.00000" pt_clust_8="13000.00000" pt_clust_9="28.39371"></scales>
<clustering>
<clus scale="   28.394">  2  9  1 -1</clus>
<clus scale="   80.005">  5  6 -1 -1</clus>
<clus scale="   86.978">  7  8 -1 -1</clus>
<clus scale="  151.285">  1  5  2 -1</clus>
<clus scale="  151.285">  1  5  2 -1</clus>
</clustering>
</event>
<event>
 9    2  0.5608219E-005  0.8746720E+02  0.7546771E-02  0.1313630E+00
         -1   -1    0    0    0  501 -0.00000000000E+00  0.00000000000E+00  0.39368126138E+03  0.39368126138E+03  0.00000000000E+00 0.  1.
          2   -1    0    0  502    0  0.00000000000E+00 -0.00000000000E+00 -0.91986839348E+02  0.91986839348E+02  0.00000000000E+00 0. -1.
         23    2    1    2    0    0 -0.46071005817E+02 -0.26883386140E+01  0.13757896136E+03  0.16877724691E+03  0.86185983332E+02 0.  0.
         24    2    1    2    0    0  0.96200244935E+01  0.52422753179E+01 -0.53521690852E+02  0.96207536927E+02  0.79191492271E+02 0.  0.
        -13    1    4    4    0    0 -0.47826067234E+01 -0.23445874289E+02 -0.58977268755E+02  0.63646685523E+02  0.00000000000E+00 0.  1.
         14    1    4    4    0    0  0.14402631217E+02  0.28688149607E+02  0.54555779036E+01  0.32560851403E+02  0.00000000000E+00 0. -1.
        -11    1    3    3    0    0 -0.32512096979E+02 -0.42342402726E+02  0.57936830971E+02  0.78781926237E+02  0.00000000000E+00 0.  1.
         11    1    3    3    0    0 -0.13558908838E+02  0.39654064112E+02  0.79642130392E+02  0.89995320672E+02  0.00000000000E+00 0. -1.
         21    1    1    2  502  501  0.36450981324E+02 -0.25539367039E+01  0.21763715152E+03  0.22068331689E+03  0.00000000000E+00 0.  1.
<scales pt_clust_5="13000.00000" pt_clust_6="13000.00000" pt_clust_7="13000.00000" pt_clust_8="13000.00000" pt_clust_9="36.54034"></scales>
<clustering>
<clus scale="   36.540">  1  9  2 -1</clus>
<clus scale="   79.191">  5  6 -1 -1</clus>
<clus scale="   80.584">  2  5  1 -1</clus>
<clus scale="   86.186">  7  8 -1 -1</clus>
<clus scale="   80.584">  2  5  1 -1</clus>
</clustering>
</event>
<event>
 9    2  0.5608219E-005  0.9808174E+02  0.7546771E-02  0.1291875E+00
         -1   -1    0    0    0  501 -0.00000000000E+00  0.00000000000E+00  0.57307291946E+02  0.57307291946E+02  0.00000000000E+00 0.  1.
          2   -1    0    0  502    0  0.00000000000E+00 -0.00000000000E+00 -0.84852731252E+03  0.84852731252E+03  0.00000000000E+00 0. -1.
         23    2    1    2    0    0  0.42061493651E+02  0.22586140186E+02 -0.71619553324E+02  0.12594950549E+03  0.91948977910E+02 0.  0.
         24    2    1    2    0    0  0.51555195712E+01 -0.35191960822E+02 -0.72559452713E+03  0.73064810267E+03  0.78065220461E+02 0.  0.
        -11    1    4    4    0    0 -0.25641055131E+02 -0.21128422177E+02 -0.13299479760E+03  0.13708205616E+03  0.00000000000E+00 0.  1.
         12    1    4    4    0    0  0.30796574702E+02 -0.14063538645E+02 -0.59259972952E+03  0.59356604650E+03  0.00000000000E+00 0. -1.
        -13    1    3    3    0    0  0.20325070784E+02  0.53513346330E+02 -0.17354961761E+02  0.59816230536E+02  0.00000000000E+00 0.  1.
         13    1    3    3    0    0  0.21736422867E+02 -0.30927206144E+02 -0.54264591563E+02  0.66133274956E+02  0.00000000000E+00 0. -1.
         21    1    1    2  502  501 -0.47217013222E+02  0.12605820636E+02  0.59940598775E+01  0.49236996307E+02  0.00000000000E+00 0.  1.
<scales pt_clust_5="13000.00000" pt_clust_6="13000.00000" pt_clust_7="13000.00000" pt_clust_8="13000.00000" pt_clust_9="48.87078"></scales>
<clustering>
<clus scale="   48.871">  1  9  2 -1</clus>
<clus scale="   78.065">  5  6 -1 -1</clus>
<clus scale="   85.203">  2  5  1 -1</clus>
<clus scale="   91.949">  7  8 -1 -1</clus>
<clus scale="   85.203">  2  5  1 -1</clus>
</clustering>
</event>
<event>
 9    2  0.5608219E-005  0.9165401E+02  0.7546771E-02  0.1305486E+00
          2   -1    0    0  502    0  0.00000000000E+00  0.00000000000E+00  0.60646364805E+02  0.60646364805E+02  0.00000000000E+00 0. -1.
         -1   -1    0    0    0  501 -0.00000000000E+00 -0.00000000000E+00 -0.20323724458E+03  0.20323724458E+03  0.00000000000E+00 0.  1.
         23    2    1    2    0    0 -0.11102230782E+02 -0.24306903066E+01 -0.11120211441E+03  0.14355132027E+03  0.90066106381E+02 0.  0.
         24    2    1    2    0    0  0.66004004666E+01 -0.20940661126E+02 -0.18593139313E+01  0.82405055547E+02  0.79404405146E+02 0.  0.
        -13    1    4    4    0    0 -0.14249213101E+02 -0.37324221307E+02  0.22965089187E+02  0.46081806514E+02  0.00000000000E+00 0.  1.
         14    1    4    4    0    0  0.20849613568E+02  0.16383560181E+02 -0.24824403119E+02  0.36323249033E+02  0.00000000000E+00 0. -1.
        -13    1    3    3    0    0  0.24925392306E+01 -0.20884636100E+02 -0.11782916194E+03  0.11969165460E+03  0.00000000000E+00 0.  1.
         13    1    3    3    0    0 -0.13594770012E+02  0.18453945793E+02  0.66270475313E+01  0.23859665673E+02  0.00000000000E+00 0. -1.
         21    1    1    2  502  501  0.45018303152E+01  0.23371351433E+02 -0.29529451435E+02  0.37927233567E+02  0.00000000000E+00 0. -1.
<scales pt_clust_5="13000.00000" pt_clust_6="13000.00000" pt_clust_7="13000.00000" pt_clust_8="13000.00000" pt_clust_9="23.80098"></scales>
<clustering>
<clus scale="   23.801">  2  9  1 -1</clus>
<clus scale="   79.404">  5  6 -1 -1</clus>
<clus scale="   81.201">  1  5  2 -1</clus>
<clus scale="   90.066">  7  8 -1 -1</clus>
<clus scale="   81.201">  1  5  2 -1</clus>
</clustering>
</event>
<event>
 9    2  0.5608219E-005  0.1565193E+03  0.7546771E-02  0.1194388E+00
          2   -1    0    0  502    0  0.00000000000E+00  0.00000000000E+00  0.25524924110E+03  0.25524924110E+03  0.00000000000E+00 0. -1.
         -1   -1    0    0    0  501 -0.00000000000E+00 -0.00000000000E+00 -0.41060437639E+03  0.41060437639E+03  0.00000000000E+00 0.  1.
         23    2    1    2    0    0 -0.10157133803E+03  0.22019253931E+02 -0.19844002127E+03  0.24119734593E+03  0.89421101485E+02 0.  0.
         24    2    1    2    0    0  0.81314087601E+02 -0.10696605446E+03  0.19488702715E+03  0.24952716153E+03  0.78924858837E+02 0.  0.
        -11    1    4    4    0    0  0.11122627539E+02 -0.76392963453E+02  0.77567250753E+02  0.10943617363E+03  0.00000000000E+00 0.  1.
         12    1    4    4    0    0  0.70191460062E+02 -0.30573091012E+02  0.11731977639E+03  0.14009098791E+03  0.00000000000E+00 0. -1.
        -11    1    3    3    0    0 -0.74175954942E+02 -0.16938565325E+02 -0.16865955802E+03  0.18502711639E+03  0.00000000000E+00 0.  1.
         11    1    3    3    0    0 -0.27395383087E+02  0.38957819256E+02 -0.29780463244E+02  0.56170229541E+02  0.00000000000E+00 0. -1.
         21    1    1    2  502  501  0.20257250428E+02  0.84946800533E+02 -0.15180214117E+03  0.17512911003E+03  0.00000000000E+00 0. -1.
<scales pt_clust_5="13000.00000" pt_clust_6="13000.00000" pt_clust_7="13000.00000" pt_clust_8="13000.00000" pt_clust_9="87.32878"></scales>
<clustering>
<clus scale="   78.925">  5  6 -1 -1</clus>
<clus scale="   87.329">  2  9  1 -1</clus>
<clus scale="   89.421">  7  8 -1 -1</clus>
<clus scale="  150.769">  1  5  2 -1</clus>
<clus scale="  150.769">  1  5  2 -1</clus>
</clustering>
</event>
<event>
 9    2  0.5608219E-005  0.1383135E+03  0.7546771E-02  0.1235476E+00
         -3   -1    0    0    0  501 -0.00000000000E+00  0.00000000000E+00  0.24276511668E+03  0.24276511668E+03  0.00000000000E+00 0.  1.
          4   -1    0    0  502    0  0.00000000000E+00 -0.00000000000E+00 -0.98753866030E+03  0.98753866030E+03  0.00000000000E+00 0. -1.
         23    2    1    2    0    0 -0.15411279876E+02 -0.72674918541E+01  0.13571376729E+03  0.16367858473E+03  0.89900658962E+02 0.  0.
         24    2    1    2    0    0  0.10899334056E+03 -0.26280064124E+02 -0.94036763533E+03  0.95057049030E+03  0.81992544704E+02 0.  0.
        -13    1    4    4    0    0  0.46405142545E+02  0.28807983783E+02 -0.32059792466E+03  0.32521741417E+03  0.00000000000E+00 0.  1.
         14    1    4    4    0    0  0.62588198015E+02 -0.55088047907E+02 -0.61976971067E+03  0.62535307612E+03  0.00000000000E+00 0. -1.
        -13    1    3    3    0    0  0.34856821227E+02  0.10046051311E+02  0.72581185217E+02  0.81141540412E+02  0.00000000000E+00 0. -1.
         13    1    3    3    0    0 -0.50268101103E+02 -0.17313543165E+02  0.63132582068E+02  0.82537044314E+02  0.00000000000E+00 0.  1.
         21    1    1    2  502  501 -0.93582060685E+02  0.33547555978E+02  0.59880324427E+02  0.11605470196E+03  0.00000000000E+00 0.  1.
<scales pt_clust_5="13000.00000" pt_clust_6="13000.00000" pt_clust_7="13000.00000" pt_clust_8="13000.00000" pt_clust_9="111.39056"></scales>
<clustering>
<clus scale="   81.993">  5  6 -1 -1</clus>
<clus scale="   89.901">  7  8 -1 -1</clus>
<clus scale="   91.501">  1  7  2 -1</clus>
<clus scale="  111.391">  1  9  2 -1</clus>
<clus scale="  138.314">  2  5  1 -1</clus>
</clustering>
</event>
<event>
 9    2  0.5608219E-005  0.2206546E+03  0.7546771E-02  0.1134225E+00
         -1   -1    0    0    0  501 -0.00000000000E+00  0.00000000000E+00  0.48811610398E+03  0.48811610398E+03  0.00000000000E+00 0.  1.
          2   -1    0    0  502    0  0.00000000000E+00 -0.00000000000E+00 -0.24992114750E+03  0.24992114750E+03  0.00000000000E+00 0. -1.
         24    2    1    2    0    0 -0.19534106201E+03  0.72550979453E+02  0.36510615526E+03  0.42788679361E+03  0.79767339218E+02 0.  0.
         23    2    1    2    0    0  0.17330155298E+03 -0.10040091342E+03 -0.15134258402E+03  0.26704301810E+03  0.91069336767E+02 0.  0.
        -13    1    3    3    0    0 -0.13559492669E+03  0.77932506004E+02  0.30611637850E+03  0.34375383172E+03  0.00000000000E+00 0.  1.
         14    1    3    3    0    0 -0.59746135314E+02 -0.53815265511E+01  0.58989776764E+02  0.84132961886E+02  0.00000000000E+00 0. -1.
        -11    1    4    4    0    0  0.47833879057E+02 -0.76970214308E+02 -0.79644369056E+02  0.12064708616E+03  0.00000000000E+00 0. -1.
         11    1    4    4    0    0  0.12546767392E+03 -0.23430699108E+02 -0.71698214959E+02  0.14639593194E+03  0.00000000000E+00 0.  1.
         21    1    1    2  502  501  0.22039509024E+02  0.27849933964E+02  0.24431385229E+02  0.43107439776E+02  0.00000000000E+00 0. -1.
<scales pt_clust_5="13000.00000" pt_clust_6="13000.00000" pt_clust_7="13000.00000" pt_clust_8="13000.00000" pt_clust_9="35.51561"></scales>
<clustering>
<clus scale="   35.516">  1  9  2 -1</clus>
<clus scale="   79.767">  5  6 -1 -1</clus>
<clus scale="   91.069">  7  8 -1 -1</clus>
<clus scale="  216.235">  1  5  2 -1</clus>
<clus scale="  220.655">  2  5  1 -1</clus>
</clustering>
</event>
<event>
 9    2  0.5608219E-005  0.9681691E+02  0.7546771E-02  0.1308468E+00
         -1   -1    0    0    0  501 -0.00000000000E+00  0.00000000000E+00  0.32503656388E+03  0.32503656388E+03  0.00000000000E+00 0.  1.
          2   -1    0    0  502    0  0.00000000000E+00 -0.00000000000E+00 -0.50212057642E+02  0.50212057642E+02  0.00000000000E+00 0. -1.
         24    2    1    2    0    0  0.49252792592E+02 -0.22568699947E+02  0.16854036672E+03  0.18584726665E+03  0.56552343128E+02 0.  0.
         23    2    1    2    0    0 -0.26653364874E+02 -0.20471461937E+01  0.20321376515E+02  0.97171909259E+02  0.91185683849E+02 0.  0.
        -13    1    3    3    0    0  0.95502359241E+01 -0.18739848857E+02  0.12516692047E+03  0.12692181420E+03  0.00000000000E+00 0.  1.
         14    1    3    3    0    0  0.39702556668E+02 -0.38288510897E+01  0.43373446250E+02  0.58925452448E+02  0.00000000000E+00 0. -1.
        -13    1    4    4    0    0  0.25541875964E+02  0.23352888100E+02 -0.27277652343E+01  0.34715781909E+02  0.00000000000E+00 0.  1.
         13    1    4    4    0    0 -0.52195240838E+02 -0.25400034293E+02  0.23049141750E+02  0.62456127351E+02  0.00000000000E+00 0. -1.
         21    1    1    2  502  501 -0.22599427718E+02  0.24615846141E+02  0.85962763009E+02  0.92229445615E+02  0.00000000000E+00 0. -1.
<scales pt_clust_5="13000.00000" pt_clust_6="13000.00000" pt_clust_7="13000.00000" pt_clust_8="13000.00000" pt_clust_9="33.41667"></scales>
<clustering>
<clus scale="   33.417">  1  9  2 -1</clus>
<clus scale="   56.552">  5  6 -1 -1</clus>
<clus scale="   65.245">  1  5  2 -1</clus>
<clus scale="   91.186">  7  8 -1 -1</clus>
<clus scale="   96.817">  2  5  1 -1</clus>
</clustering>
</event>
<event>
 9    2  0.5608219E-005  0.9295699E+02  0.7546771E-02  0.1299652E+00
         -1   -1    0    0    0  501 -0.00000000000E+00  0.00000000000E+00  0.30923509741E+02  0.30923509741E+02  0.00000000000E+00 0.  1.
          2   -1    0    0  502    0  0.00000000000E+00 -0.00000000000E+00 -0.10799425343E+04  0.10799425343E+04  0.00000000000E+00 0. -1.
         23    2    1    2    0    0  0.41875991366E+02  0.93913376112E+01 -0.11265814095E+03  0.15104669487E+03  0.91002480369E+02 0.  0.
         24    2    1    2    0    0  0.62053820120E+01 -0.19974400385E+02 -0.88274007509E+03  0.88702504453E+03  0.84533460860E+02 0.  0.
        -11    1    4    4    0    0  0.30129914945E+02 -0.28688888678E+02 -0.22637342214E+03  0.23016470268E+03  0.00000000000E+00 0.  1.
         12    1    4    4    0    0 -0.23924532933E+02  0.87144882928E+01 -0.65636665296E+03  0.65686034185E+03  0.00000000000E+00 0. -1.
        -11    1    3    3    0    0  0.69365642396E+02  0.14937492887E+02 -0.67777749617E+02  0.98125146532E+02  0.00000000000E+00 0.  1.
         11    1    3    3    0    0 -0.27489651030E+02 -0.55461552762E+01 -0.44880391334E+02  0.52921548337E+02  0.00000000000E+00 0. -1.
         21    1    1    2  502  501 -0.48081373378E+02  0.10583062774E+02 -0.53620808527E+02  0.72794304658E+02  0.00000000000E+00 0. -1.
<scales pt_clust_5="13000.00000" pt_clust_6="13000.00000" pt_clust_7="13000.00000" pt_clust_8="13000.00000" pt_clust_9="49.23230"></scales>
<clustering>
<clus scale="   49.232">  1  9  2 -1</clus>
<clus scale="   84.533">  5  6 -1 -1</clus>
<clus scale="   86.634">  2  5  1 -1</clus>
<clus scale="   91.002">  7  8 -1 -1</clus>
<clus scale="   86.634">  2  5  1 -1</clus>
</clustering>
</event>
<event>
 9    2  0.5608219E-005  0.1552212E+03  0.7546771E-02  0.1195663E+00
         -1   -1    0    0    0  501 -0.00000000000E+00  0.00000000000E+00  0.82117135822E+02  0.82117135822E+02  0.00000000000E+00 0.  1.
          2   -1    0    0  502    0  0.00000000000E+00 -0.00000000000E+00 -0.71964278463E+03  0.71964278463E+03  0.00000000000E+00 0. -1.
         23    2    1    2    0    0  0.11590686141E+03  0.52721711019E+02 -0.38201371267E+02  0.16069919150E+03  0.90282368428E+02 0.  0.
         24    2    1    2    0    0 -0.99243334012E+02 -0.78602321065E+02 -0.58996960721E+03  0.60888948436E+03  0.81576359948E+02 0.  0.
        -13    1    4    4    0    0  0.26851252106E+01 -0.28916297224E+02 -0.56781577634E+02  0.63777031141E+02  0.00000000000E+00 0.  1.
         14    1    4    4    0    0 -0.10192845922E+03 -0.49686023841E+02 -0.53318802958E+03  0.54511245322E+03  0.00000000000E+00 0. -1.
        -11    1    3    3    0    0  0.15855364082E+02  0.14630511395E+02 -0.48565191841E+02  0.53141530768E+02  0.00000000000E+00 0. -1.
         11    1    3    3    0    0  0.10005149733E+03  0.38091199624E+02  0.10363820574E+02  0.10755766074E+03  0.00000000000E+00 0.  1.
         21    1    1    2  502  501 -0.16663527397E+02  0.25880610046E+02 -0.93546703306E+01  0.32171244593E+02  0.00000000000E+00 0. -1.
<scales pt_clust_5="13000.00000" pt_clust_6="13000.00000" pt_clust_7="13000.00000" pt_clust_8="13000.00000" pt_clust_9="30.78115"></scales>
<clustering>
<clus scale="   30.781">  1  9  2 -1</clus>
<clus scale="   81.576">  5  6 -1 -1</clus>
<clus scale="   90.282">  7  8 -1 -1</clus>
<clus scale="  150.324">  2  5  1 -1</clus>
<clus scale="  150.324">  2  5  1 -1</clus>
</clustering>
</event>
<event>
 9    2  0.5608219E-005  0.9469521E+02  0.7546771E-02  0.1297912E+00
          2   -1    0    0  502    0  0.00000000000E+00  0.00000000000E+00  0.17321833359E+03  0.17321833359E+03  0.00000000000E+00 0. -1.
         -1   -1    0    0    0  501 -0.00000000000E+00 -0.00000000000E+00 -0.24828555534E+03  0.24828555534E+03  0.00000000000E+00 0.  1.
         23    2    1    2    0    0 -0.14194135464E+01  0.17436022515E+02 -0.15043879047E+03  0.16502050377E+03  0.65527912907E+02 0.  0.
         24    2    1    2    0    0 -0.17580088669E+02 -0.54229784657E+02  0.14570278964E+03  0.17486694899E+03  0.78097489580E+02 0.  0.
        -11    1    4    4    0    0 -0.33428141887E+02 -0.78100771044E+01  0.10704273588E+03  0.11241256726E+03  0.00000000000E+00 0.  1.
         12    1    4    4    0    0  0.15848053218E+02 -0.46419707553E+02  0.38660053761E+02  0.62454381726E+02  0.00000000000E+00 0. -1.
        -11    1    3    3    0    0 -0.21567720022E+02 -0.13267190250E+02 -0.30801871198E+02  0.39874053636E+02  0.00000000000E+00 0. -1.
         11    1    3    3    0    0  0.20148306475E+02  0.30703212764E+02 -0.11963691927E+03  0.12514645013E+03  0.00000000000E+00 0.  1.
         21    1    1    2  502  501  0.18999502215E+02  0.36793762142E+02 -0.70331220918E+02  0.81616436168E+02  0.00000000000E+00 0.  1.
<scales pt_clust_5="13000.00000" pt_clust_6="13000.00000" pt_clust_7="13000.00000" pt_clust_8="13000.00000" pt_clust_9="41.40969"></scales>
<clustering>
<clus scale="   41.410">  2  9  1 -1</clus>
<clus scale="   65.528">  7  8 -1 -1</clus>
<clus scale="   78.097">  5  6 -1 -1</clus>
<clus scale="   84.628">  2  7  1 -1</clus>
<clus scale="   94.695">  1  5  2 -1</clus>
</clustering>
</event>
<event>
 9    2  0.5608219E-005  0.9745994E+02  0.7546771E-02  0.1285862E+00
         -3   -1    0    0    0  501 -0.00000000000E+00  0.00000000000E+00  0.58330062423E+02  0.58330062423E+02  0.00000000000E+00 0.  1.
          4   -1    0    0  502    0  0.00000000000E+00 -0.00000000000E+00 -0.54812706798E+03  0.54812706798E+03  0.00000000000E+00 0. -1.
         23    2    1    2    0    0  0.19435605639E+00 -0.64242107674E+02 -0.88723147165E+02  0.14249992060E+03  0.91144634263E+02 0.  0.
         24    2    1    2    0    0 -0.22925326811E+02  0.20350050058E+02 -0.40311852225E+03  0.41448610305E+03  0.91402907456E+02 0.  0.
        -11    1    4    4    0    0 -0.21826041186E+02  0.50344951141E+02 -0.15240559949E+03  0.16198289087E+03  0.00000000000E+00 0.  1.
         12    1    4    4    0    0 -0.10992856252E+01 -0.29994901084E+02 -0.25071292276E+03  0.25250321218E+03  0.00000000000E+00 0. -1.
        -11    1    3    3    0    0 -0.27360908712E+02 -0.73287434963E+02 -0.45652106793E+02  0.90574733252E+02  0.00000000000E+00 0.  1.
         11    1    3    3    0    0  0.27555264769E+02  0.90453272890E+01 -0.43071040371E+02  0.51925187346E+02  0.00000000000E+00 0. -1.
         21    1    1    2  502  501  0.22730970755E+02  0.43892057616E+02  0.20446638602E+01  0.49471106755E+02  0.00000000000E+00 0.  1.
<scales pt_clust_5="13000.00000" pt_clust_6="13000.00000" pt_clust_7="13000.00000" pt_clust_8="13000.00000" pt_clust_9="49.42884"></scales>
<clustering>
<clus scale="   49.429">  1  9  2 -1</clus>
<clus scale="   91.145">  7  8 -1 -1</clus>
<clus scale="   91.403">  5  6 -1 -1</clus>
<clus scale="   97.218">  1  7  2 -1</clus>
<clus scale="   97.460">  2  5  1 -1</clus>
</clustering>
</event>
<event>
 9    2  0.5608219E-005  0.1608156E+03  0.7546771E-02  0.1190145E+00
         -1   -1    0    0    0  501 -0.00000000000E+00  0.00000000000E+00  0.30697709199E+03  0.30697709199E+03  0.00000000000E+00 0.  1.
          2   -1    0    0  502    0  0.00000000000E+00 -0.00000000000E+00 -0.77410051150E+03  0.77410051150E+03  0.00000000000E+00 0. -1.
         24    2    1    2    0    0 -0.91421550816E+02 -0.71030615991E+01  0.20239368705E+03  0.23632139454E+03  0.80475111191E+02 0.  0.
         23    2    1    2    0    0  0.11599291732E+03  0.61948344158E+02 -0.73684555203E+03  0.75450723865E+03  0.95120194579E+02 0.  0.
        -13    1    3    3    0    0 -0.10047691890E+03 -0.22560661291E+02  0.18250838491E+03  0.20955644879E+03  0.00000000000E+00 0.  1.
         14    1    3    3    0    0  0.90553680854E+01  0.15457599692E+02  0.19885302147E+02  0.26764945748E+02  0.00000000000E+00 0. -1.
        -13    1    4    4    0    0  0.34991884374E+02 -0.25233123481E+02 -0.21076297095E+03  0.21513291802E+03  0.00000000000E+00 0.  1.
         13    1    4    4    0    0  0.81001032949E+02  0.87181467639E+02 -0.52608258108E+03  0.53937432063E+03  0.00000000000E+00 0. -1.
         21    1    1    2  502  501 -0.24571366507E+02 -0.54845282559E+02  0.67328445460E+02  0.90248970294E+02  0.00000000000E+00 0.  1.
<scales pt_clust_5="13000.00000" pt_clust_6="13000.00000" pt_clust_7="13000.00000" pt_clust_8="13000.00000" pt_clust_9="60.09790"></scales>
<clustering>
<clus scale="   60.098">  1  9  2 -1</clus>
<clus scale="   80.475">  5  6 -1 -1</clus>
<clus scale="   95.120">  7  8 -1 -1</clus>
<clus scale="  152.611">  1  5  2 -1</clus>
<clus scale="  160.816">  2  5  1 -1</clus>
</clustering>
</event>
<event>
 9    2  0.5608219E-005  0.9887842E+02  0.7546771E-02  0.1287137E+00
          2   -1    0    0  502    0  0.00000000000E+00  0.00000000000E+00  0.16216646953E+03  0.16216646953E+03  0.00000000000E+00 0. -1.
         -1   -1    0    0    0  501 -0.00000000000E+00 -0.00000000000E+00 -0.19390754332E+03  0.19390754332E+03  0.00000000000E+00 0.  1.
         23    2    1    2    0    0 -0.18558907480E+02  0.16545470111E+02 -0.71987164404E+02  0.11648046827E+03  0.88132638802E+02 0.  0.
         24    2    1    2    0    0  0.44120518468E+02 -0.19662003242E+02  0.12239358851E+03  0.15350452004E+03  0.79058412857E+02 0.  0.
        -11    1    4    4    0    0  0.36264026759E+02  0.23909954511E+02  0.85388550190E+02  0.95801722662E+02  0.00000000000E+00 0.  1.
         12    1    4    4    0    0  0.78564917098E+01 -0.43571957753E+02  0.37005038320E+02  0.57702797380E+02  0.00000000000E+00 0. -1.
        -13    1    3    3    0    0  0.12242304045E+02  0.20228049436E+02 -0.80835610217E+02  0.84222585281E+02  0.00000000000E+00 0.  1.
         13    1    3    3    0    0 -0.30801211525E+02 -0.36825793246E+01  0.88484458125E+01  0.32257882993E+02  0.00000000000E+00 0. -1.
         21    1    1    2  502  501 -0.25561610988E+02  0.31165331304E+01 -0.82147497891E+02  0.86089024532E+02  0.00000000000E+00 0.  1.
<scales pt_clust_5="13000.00000" pt_clust_6="13000.00000" pt_clust_7="13000.00000" pt_clust_8="13000.00000" pt_clust_9="25.75090"></scales>
<clustering>
<clus scale="   25.751">  2  9  1 -1</clus>
<clus scale="   79.058">  5  6 -1 -1</clus>
<clus scale="   88.133">  7  8 -1 -1</clus>
<clus scale="   90.884">  1  5  2 -1</clus>
<clus scale="   90.884">  1  5  2 -1</clus>
</clustering>
</event>
<event>
 9    2  0.5608219E-005  0.2037431E+03  0.7546771E-02  0.1147691E+00
         -1   -1    0    0    0  501 -0.00000000000E+00  0.00000000000E+00  0.16110477187E+03  0.16110477187E+03  0.00000000000E+00 0.  1.
          2   -1    0    0  502    0  0.00000000000E+00 -0.00000000000E+00 -0.28294418305E+03  0.28294418305E+03  0.00000000000E+00 0. -1.
         23    2    1    2    0    0 -0.18185161838E+03 -0.21321038931E+02 -0.60113845995E+02  0.21377818670E+03  0.92535619205E+02 0.  0.
         24    2    1    2    0    0  0.18066221504E+03 -0.34906651652E+00 -0.65199114009E+02  0.20829183076E+03  0.80595313147E+02 0.  0.
        -11    1    4    4    0    0  0.49526412336E+02  0.33942864378E+02 -0.34735839555E+02  0.69365424461E+02  0.00000000000E+00 0.  1.
         12    1    4    4    0    0  0.13113580271E+03 -0.34291930895E+02 -0.30463274455E+02  0.13892640630E+03  0.00000000000E+00 0. -1.
        -13    1    3    3    0    0 -0.14851408168E+03 -0.54161464353E+02 -0.41699409571E+02  0.16348925786E+03  0.00000000000E+00 0. -1.
         13    1    3    3    0    0 -0.33337536700E+02  0.32840425422E+02 -0.18414436424E+02  0.50288928841E+02  0.00000000000E+00 0.  1.
         21    1    1    2  502  501  0.11894033359E+01  0.21670105448E+02  0.34735488307E+01  0.21978937460E+02  0.00000000000E+00 0. -1.
<scales pt_clust_5="13000.00000" pt_clust_6="13000.00000" pt_clust_7="13000.00000" pt_clust_8="13000.00000" pt_clust_9="21.70272"></scales>
<clustering>
<clus scale="   21.703">  1  9  2 -1</clus>
<clus scale="   80.595">  5  6 -1 -1</clus>
<clus scale="   92.536">  7  8 -1 -1</clus>
<clus scale="  198.605">  2  5  1 -1</clus>
<clus scale="  198.605">  2  5  1 -1</clus>
</clustering>
</event>
<event>
 9    2  0.5608219E-005  0.1018279E+03  0.7546771E-02  0.1280821E+00
          2   -1    0    0  502    0  0.00000000000E+00  0.00000000000E+00  0.42320779506E+03  0.42320779506E+03  0.00000000000E+00 0. -1.
         -1   -1    0    0    0  501 -0.00000000000E+00 -0.00000000000E+00 -0.65934864937E+02  0.65934864937E+02  0.00000000000E+00 0.  1.
         24    2    1    2    0    0 -0.16340808459E+02  0.11964006230E+02  0.16783731828E+01  0.84646886829E+02  0.82171278724E+02 0.  0.
         23    2    1    2    0    0  0.83325057446E+01 -0.50062721990E+02  0.34990124498E+03  0.36515039407E+03  0.91259094140E+02 0.  0.
        -11    1    3    3    0    0  0.25196489114E+02 -0.10948515828E+02  0.19801815635E+02  0.33865099512E+02  0.00000000000E+00 0.  1.
         12    1    3    3    0    0 -0.41537297573E+02  0.22912522058E+02 -0.18123442453E+02  0.50781787317E+02  0.00000000000E+00 0. -1.
        -13    1    4    4    0    0 -0.12409659780E+02 -0.64285458578E+02  0.31725280772E+03  0.32393820992E+03  0.00000000000E+00 0. -1.
         13    1    4    4    0    0  0.20742165524E+02  0.14222736588E+02  0.32648437270E+02  0.41212184155E+02  0.00000000000E+00 0.  1.
         21    1    1    2  502  501  0.80083027146E+01  0.38098715760E+02  0.56933119504E+01  0.39345379092E+02  0.00000000000E+00 0.  1.
<scales pt_clust_5="13000.00000" pt_clust_6="13000.00000" pt_clust_7="13000.00000" pt_clust_8="13000.00000" pt_clust_9="38.93129"></scales>
<clustering>
<clus scale="   38.931">  2  9  1 -1</clus>
<clus scale="   82.171">  5  6 -1 -1</clus>
<clus scale="   91.259">  7  8 -1 -1</clus>
<clus scale="   93.770">  2  5  1 -1</clus>
<clus scale="  101.828">  1  5  2 -1</clus>
</clustering>
</event>
<event>
 9    2  0.5608219E-005  0.1060218E+03  0.7546771E-02  0.1271496E+00
          2   -1    0    0  502    0  0.00000000000E+00  0.00000000000E+00  0.36192807941E+03  0.36192807941E+03  0.00000000000E+00 0. -1.
         -1   -1    0    0    0  501 -0.00000000000E+00 -0.00000000000E+00 -0.95023565356E+02  0.95023565356E+02  0.00000000000E+00 0.  1.
         23    2    1    2    0    0  0.21023817794E+01  0.23386290397E+00  0.11738724109E+02  0.90579077400E+02  0.89790294118E+02 0.  0.
         24    2    1    2    0    0 -0.25445031446E+02 -0.66146616015E+02  0.27346453046E+03  0.29409384144E+03  0.81764990778E+02 0.  0.
        -13    1    4    4    0    0  0.27392916269E+02 -0.66182279736E+01  0.83520368435E+02  0.88146609389E+02  0.00000000000E+00 0.  1.
         14    1    4    4    0    0 -0.52837947715E+02 -0.59528388042E+02  0.18994416203E+03  0.20594723205E+03  0.00000000000E+00 0. -1.
        -13    1    3    3    0    0  0.17906571678E+02  0.38468041492E+02 -0.10356016935E+02  0.43677026138E+02  0.00000000000E+00 0.  1.
         13    1    3    3    0    0 -0.15804189898E+02 -0.38234178589E+02  0.22094741045E+02  0.46902051261E+02  0.00000000000E+00 0. -1.
         21    1    1    2  502  501  0.23342649667E+02  0.65912753111E+02 -0.18298740522E+02  0.72278725922E+02  0.00000000000E+00 0.  1.
<scales pt_clust_5="13000.00000" pt_clust_6="13000.00000" pt_clust_7="13000.00000" pt_clust_8="13000.00000" pt_clust_9="69.92403"></scales>
<clustering>
<clus scale="   69.924">  2  9  1 -1</clus>
<clus scale="   81.765">  5  6 -1 -1</clus>
<clus scale="   89.790">  7  8 -1 -1</clus>
<clus scale="   99.317">  1  5  2 -1</clus>
<clus scale="   99.317">  1  5  2 -1</clus>
</clustering>
</event>
<event>
 9    2  0.5608219E-005  0.1276695E+03  0.7546771E-02  0.1234769E+00
          2   -1    0    0  502    0  0.00000000000E+00  0.00000000000E+00  0.13318683995E+04  0.13318683995E+04  0.00000000000E+00 0. -1.
         -1   -1    0    0    0  501 -0.00000000000E+00 -0.00000000000E+00 -0.15556519584E+02  0.15556519584E+02  0.00000000000E+00 0.  1.
         23    2    1    2    0    0 -0.38765516897E+02  0.92858413151E+02  0.47056424840E+03  0.48992868822E+03  0.92054100839E+02 0.  0.
         24    2    1    2    0    0  0.12478362178E+02 -0.73135452198E+02  0.60616750096E+03  0.61567264092E+03  0.78161740454E+02 0.  0.
        -11    1    4    4    0    0  0.14459733149E+01 -0.20292845396E+02  0.26068964388E+02  0.33067829039E+02  0.00000000000E+00 0.  1.
         12    1    4    4    0    0  0.11032388863E+02 -0.52842606802E+02  0.58009853657E+03  0.58260481188E+03  0.00000000000E+00 0. -1.
        -11    1    3    3    0    0 -0.54300529651E+02  0.25753831749E+02  0.30039574397E+03  0.30634851128E+03  0.00000000000E+00 0. -1.
         11    1    3    3    0    0  0.15535012753E+02  0.67104581402E+02  0.17016850443E+03  0.18358017694E+03  0.00000000000E+00 0.  1.
         21    1    1    2  502  501  0.26287154720E+02 -0.19722960953E+02  0.23958013055E+03  0.24182358992E+03  0.00000000000E+00 0.  1.
<scales pt_clust_5="13000.00000" pt_clust_6="13000.00000" pt_clust_7="13000.00000" pt_clust_8="13000.00000" pt_clust_9="32.86350"></scales>
<clustering>
<clus scale="   32.864">  1  9  2 -1</clus>
<clus scale="   78.162">  5  6 -1 -1</clus>
<clus scale="   92.054">  7  8 -1 -1</clus>
<clus scale="  118.046">  1  5  2 -1</clus>
<clus scale="   32.864">  1  5  2 -1</clus>
</clustering>
</event>
<event>
 9    2  0.5608219E-005  0.1066092E+03  0.7546771E-02  0.1280655E+00
         -1   -1    0    0    0  501 -0.00000000000E+00  0.00000000000E+00  0.26050087804E+03  0.26050087804E+03  0.00000000000E+00 0.  1.
          2   -1    0    0  502    0  0.00000000000E+00 -0.00000000000E+00 -0.15727293080E+03  0.15727293080E+03  0.00000000000E+00 0. -1.
         23    2    1    2    0    0 -0.13318061480E+02  0.40488896977E+01  0.16027304894E+03  0.19185420615E+03  0.10453143991E+03 0.  0.
         24    2    1    2    0    0 -0.22358558258E+02 -0.63623718775E+01 -0.12460174829E+03  0.14948614212E+03  0.79247246688E+02 0.  0.
        -11    1    4    4    0    0 -0.23034334375E+02  0.12051904058E+01  0.15386838014E+01  0.23117106045E+02  0.00000000000E+00 0.  1.
         12    1    4    4    0    0  0.67577611741E+00 -0.75675622833E+01 -0.12614043209E+03  0.12636903608E+03  0.00000000000E+00 0. -1.
        -11    1    3    3    0    0 -0.37096385105E+02  0.44216132891E+02  0.10193187842E+03  0.11713802130E+03  0.00000000000E+00 0.  1.
         11    1    3    3    0    0  0.23778323625E+02 -0.40167243194E+02  0.58341170523E+02  0.74716184847E+02  0.00000000000E+00 0. -1.
         21    1    1    2  502  501  0.35676619738E+02  0.23134821799E+01  0.67556646589E+02  0.76433460566E+02  0.00000000000E+00 0.  1.
<scales pt_clust_5="13000.00000" pt_clust_6="13000.00000" pt_clust_7="13000.00000" pt_clust_8="13000.00000" pt_clust_9="35.75155"></scales>
<clustering>
<clus scale="   35.752">  1  9  2 -1</clus>
<clus scale="   79.247">  5  6 -1 -1</clus>
<clus scale="   81.969">  2  5  1 -1</clus>
<clus scale="  104.531">  7  8 -1 -1</clus>
<clus scale="   81.969">  2  5  1 -1</clus>
</clustering>
</event>
<event>
 9    2  0.5608219E-005  0.2189191E+03  0.7546771E-02  0.1135290E+00
         -1   -1    0    0    0  501 -0.00000000000E+00  0.00000000000E+00  0.20678245386E+03  0.20678245386E+03  0.00000000000E+00 0.  1.
          2   -1    0    0  502    0  0.00000000000E+00 -0.00000000000E+00 -0.74953918875E+03  0.74953918875E+03  0.00000000000E+00 0. -1.
         23    2    1    2    0    0 -0.12007203032E+03 -0.13678562742E+03  0.40634441686E+02  0.20627758460E+03  0.88157153540E+02 0.  0.
         24    2    1    2    0    0  0.14910577237E+03  0.13802579036E+03 -0.64552226368E+03  0.68145274539E+03  0.79970001473E+02 0.  0.
        -11    1    4    4    0    0 -0.18154454434E+01  0.34711996519E+02 -0.12451402170E+03  0.12927474674E+03  0.00000000000E+00 0.  1.
         12    1    4    4    0    0  0.15092121781E+03  0.10331379385E+03 -0.52100824198E+03  0.55217799865E+03  0.00000000000E+00 0. -1.
        -11    1    3    3    0    0 -0.10895275587E+03 -0.72017687130E+02  0.50101753444E+02  0.13988365154E+03  0.00000000000E+00 0.  1.
         11    1    3    3    0    0 -0.11119274453E+02 -0.64767940293E+02 -0.94673117582E+01  0.66393933052E+02  0.00000000000E+00 0. -1.
         21    1    1    2  502  501 -0.29033742047E+02 -0.12401629415E+01  0.62131087106E+02  0.68591312616E+02  0.00000000000E+00 0.  1.
<scales pt_clust_5="13000.00000" pt_clust_6="13000.00000" pt_clust_7="13000.00000" pt_clust_8="13000.00000" pt_clust_9="29.06022"></scales>
<clustering>
<clus scale="   29.060">  1  9  2 -1</clus>
<clus scale="   79.970">  5  6 -1 -1</clus>
<clus scale="   88.157">  7  8 -1 -1</clus>
<clus scale="  215.752">  2  5  1 -1</clus>
<clus scale="  215.752">  2  5  1 -1</clus>
</clustering>
</event>
<event>
 9    2  0.5608219E-005  0.9118860E+02  0.7546771E-02  0.1305234E+00
         -1   -1    0    0    0  501 -0.00000000000E+00  0.00000000000E+00  0.27007055103E+02  0.27007055103E+02  0.00000000000E+00 0.  1.
          2   -1    0    0  502    0  0.00000000000E+00 -0.00000000000E+00 -0.50532696220E+03  0.50532696220E+03  0.00000000000E+00 0. -1.
         23    2    1    2    0    0  0.14210968296E+02  0.21294830305E+02 -0.17893166919E+03  0.20210307821E+03  0.90408465117E+02 0.  0.
         24    2    1    2    0    0 -0.66868541885E+01 -0.10486692996E+01 -0.29737263038E+03  0.30853803698E+03  0.81972100355E+02 0.  0.
        -11    1    4    4    0    0  0.15848814430E+02 -0.31905069763E+02 -0.21243969788E+03  0.21540599721E+03  0.00000000000E+00 0.  1.
         12    1    4    4    0    0 -0.22535668619E+02  0.30856400463E+02 -0.84932932498E+02  0.93132039773E+02  0.00000000000E+00 0. -1.
        -11    1    3    3    0    0 -0.20427445546E+02  0.32125678298E+02 -0.29043720526E+02  0.47883999829E+02  0.00000000000E+00 0. -1.
         11    1    3    3    0    0  0.34638413842E+02 -0.10830847993E+02 -0.14988794866E+03  0.15421907838E+03  0.00000000000E+00 0.  1.
         21    1    1    2  502  501 -0.75241141073E+01 -0.20246161006E+02 -0.20156075280E+01  0.21692902117E+02  0.00000000000E+00 0.  1.
<scales pt_clust_5="13000.00000" pt_clust_6="13000.00000" pt_clust_7="13000.00000" pt_clust_8="13000.00000" pt_clust_9="21.59906"></scales>
<clustering>
<clus scale="   21.599">  1  9  2 -1</clus>
<clus scale="   81.972">  5  6 -1 -1</clus>
<clus scale="   82.832">  2  5  1 -1</clus>
<clus scale="   90.408">  7  8 -1 -1</clus>
<clus scale="   82.832">  2  5  1 -1</clus>
</clustering>
</event>
<event>
 9    2  0.5608219E-005  0.1238929E+03  0.7546771E-02  0.1252555E+00
         -1   -1    0    0    0  501 -0.00000000000E+00  0.00000000000E+00  0.49676308701E+02  0.49676308701E+02  0.00000000000E+00 0.  1.
          2   -1    0    0  502    0  0.00000000000E+00 -0.00000000000E+00 -0.54894736924E+03  0.54894736924E+03  0.00000000000E+00 0. -1.
         23    2    1    2    0    0 -0.82690018944E+02  0.16956466561E+02 -0.12307104229E+03  0.19050032915E+03  0.11840073042E+03 0.  0.
         24    2    1    2    0    0  0.26046501146E+02 -0.99943465343E+01 -0.30321982476E+03  0.31547850077E+03  0.82499182623E+02 0.  0.
        -11    1    4    4    0    0  0.50213482363E+02  0.54068381734E+01 -0.24983228699E+03  0.25488585550E+03  0.00000000000E+00 0.  1.
         12    1    4    4    0    0 -0.24166981216E+02 -0.15401184708E+02 -0.53387537770E+02  0.60592645269E+02  0.00000000000E+00 0. -1.
        -13    1    3    3    0    0 -0.69227653505E+02  0.50949945997E+02 -0.12739749895E+03  0.15368307566E+03  0.00000000000E+00 0. -1.
         13    1    3    3    0    0 -0.13462365439E+02 -0.33993479436E+02  0.43264566534E+01  0.36817253490E+02  0.00000000000E+00 0.  1.
         21    1    1    2  502  501  0.56643517798E+02 -0.69621200269E+01 -0.72980193482E+02  0.92644848019E+02  0.00000000000E+00 0. -1.
<scales pt_clust_5="13000.00000" pt_clust_6="13000.00000" pt_clust_7="13000.00000" pt_clust_8="13000.00000" pt_clust_9="57.06978"></scales>
<clustering>
<clus scale="   57.070">  1  9  2 -1</clus>
<clus scale="   82.499">  5  6 -1 -1</clus>
<clus scale="   90.204">  2  5  1 -1</clus>
<clus scale="  118.401">  7  8 -1 -1</clus>
<clus scale="   90.204">  2  5  1 -1</clus>
</clustering>
</event>
<event>
 9    2  0.5608219E-005  0.1290807E+03  0.7546771E-02  0.1231292E+00
         -1   -1    0    0    0  501 -0.00000000000E+00  0.00000000000E+00  0.35138266664E+02  0.35138266664E+02  0.00000000000E+00 0.  1.
          2   -1    0    0  502    0  0.00000000000E+00 -0.00000000000E+00 -0.77937393089E+03  0.77937393089E+03  0.00000000000E+00 0. -1.
         23    2    1    2    0    0 -0.63156678099E+02  0.34981226341E+02 -0.16711095401E+03  0.20318873452E+03  0.90261501762E+02 0.  0.
         24    2    1    2    0    0  0.85352675893E+02 -0.52782427320E+02 -0.56646976490E+03  0.58094134767E+03  0.80831868525E+02 0.  0.
        -13    1    4    4    0    0  0.31953265431E+02 -0.27669265880E+02 -0.76242039269E+02  0.87174812864E+02  0.00000000000E+00 0.  1.
         14    1    4    4    0    0  0.53399410462E+02 -0.25113161441E+02 -0.49022772563E+03  0.49376653481E+03  0.00000000000E+00 0. -1.
        -11    1    3    3    0    0 -0.32027642590E+02 -0.16861330289E+02 -0.14423602315E+02  0.38962990808E+02  0.00000000000E+00 0.  1.
         11    1    3    3    0    0 -0.31129035509E+02  0.51842556630E+02 -0.15268735170E+03  0.16422574371E+03  0.00000000000E+00 0. -1.
         21    1    1    2  502  501 -0.22195997794E+02  0.17801200979E+02 -0.10654945312E+02  0.30382115364E+02  0.00000000000E+00 0.  1.
<scales pt_clust_5="13000.00000" pt_clust_6="13000.00000" pt_clust_7="13000.00000" pt_clust_8="13000.00000" pt_clust_9="28.45251"></scales>
<clustering>
<clus scale="   28.453">  1  9  2 -1</clus>
<clus scale="   80.832">  5  6 -1 -1</clus>
<clus scale="   90.262">  7  8 -1 -1</clus>
<clus scale="  122.672">  2  5  1 -1</clus>
<clus scale="  122.672">  2  5  1 -1</clus>
</clustering>
</event>
<event>
 9    2  0.5608219E-005  0.1451760E+03  0.7546771E-02  0.1208676E+00
         -1   -1    0    0    0  501 -0.00000000000E+00  0.00000000000E+00  0.77664617168E+02  0.77664617168E+02  0.00000000000E+00 0.  1.
          2   -1    0    0  502    0  0.00000000000E+00 -0.00000000000E+00 -0.60359851420E+03  0.60359851420E+03  0.00000000000E+00 0. -1.
         23    2    1    2    0    0  0.29009405708E+02 -0.11784593942E+03 -0.32559691962E+02  0.15536829892E+03  0.91378135843E+02 0.  0.
         24    2    1    2    0    0  0.58724514840E+01  0.76892739820E+02 -0.42213861614E+03  0.43662883865E+03  0.80602434097E+02 0.  0.
        -13    1    4    4    0    0 -0.11847342811E+02  0.22349908557E+02 -0.25689125233E+02  0.36052865343E+02  0.00000000000E+00 0.  1.
         14    1    4    4    0    0  0.17719794295E+02  0.54542831263E+02 -0.39644949091E+03  0.40057597331E+03  0.00000000000E+00 0. -1.
        -11    1    3    3    0    0  0.74578280739E+01 -0.79731894002E+02  0.24224171816E+02  0.83663639778E+02  0.00000000000E+00 0.  1.
         11    1    3    3    0    0  0.21551577634E+02 -0.38114045418E+02 -0.56783863778E+02  0.71704659139E+02  0.00000000000E+00 0. -1.
         21    1    1    2  502  501 -0.34881857192E+02  0.40953199601E+02 -0.71235588932E+02  0.89265993800E+02  0.00000000000E+00 0. -1.
<scales pt_clust_5="13000.00000" pt_clust_6="13000.00000" pt_clust_7="13000.00000" pt_clust_8="13000.00000" pt_clust_9="53.79506"></scales>
<clustering>
<clus scale="   53.795">  2  9  1 -1</clus>
<clus scale="   80.602">  5  6 -1 -1</clus>
<clus scale="   91.378">  7  8 -1 -1</clus>
<clus scale="  138.647">  2  5  1 -1</clus>
<clus scale="   53.795">  2  5  1 -1</clus>
</clustering>
</event>
<event>
 9    2  0.5608219E-005  0.9537756E+02  0.7546771E-02  0.1300284E+00
         -1   -1    0    0    0  501 -0.00000000000E+00  0.00000000000E+00  0.35654163723E+02  0.35654163723E+02  0.00000000000E+00 0.  1.
          2   -1    0    0  502    0  0.00000000000E+00 -0.00000000000E+00 -0.74070122743E+03  0.74070122743E+03  0.00000000000E+00 0. -1.
         23    2    1    2    0    0 -0.58378573058E+02 -0.32330717823E+01 -0.29405092003E+03  0.31449363817E+03  0.94983126578E+02 0.  0.
         24    2    1    2    0    0 -0.11794443491E+02 -0.16371352360E+00 -0.37413174553E+03  0.38252213959E+03  0.78800308178E+02 0.  0.
        -11    1    4    4    0    0 -0.19451582591E+02  0.16945481918E+02 -0.38360806981E+02  0.46228399658E+02  0.00000000000E+00 0.  1.
         12    1    4    4    0    0  0.76571390997E+01 -0.17109195441E+02 -0.33577093855E+03  0.33629373994E+03  0.00000000000E+00 0. -1.
        -11    1    3    3    0    0 -0.83342511163E+02 -0.13485282939E+02 -0.22897397810E+03  0.24404284393E+03  0.00000000000E+00 0. -1.
         11    1    3    3    0    0  0.24963938105E+02  0.10252211157E+02 -0.65076941925E+02  0.70450794244E+02  0.00000000000E+00 0.  1.
         21    1    1    2  502  501  0.70173016549E+02  0.33967853059E+01 -0.36864398154E+02  0.79339613392E+02  0.00000000000E+00 0.  1.
<scales pt_clust_5="13000.00000" pt_clust_6="13000.00000" pt_clust_7="13000.00000" pt_clust_8="13000.00000" pt_clust_9="70.25518"></scales>
<clustering>
<clus scale="   70.255">  1  9  2 -1</clus>
<clus scale="   78.800">  5  6 -1 -1</clus>
<clus scale="   79.275">  2  5  1 -1</clus>
<clus scale="   94.983">  7  8 -1 -1</clus>
<clus scale="   79.275">  2  5  1 -1</clus>
</clustering>
</event>
<event>
 9    2  0.5608219E-005  0.1681215E+03  0.7546771E-02  0.1200582E+00
         -1   -1    0    0    0  501 -0.00000000000E+00  0.00000000000E+00  0.17456815047E+03  0.17456815047E+03  0.00000000000E+00 0.  1.
          2   -1    0    0  502    0  0.00000000000E+00 -0.00000000000E+00 -0.48112792995E+03  0.48112792995E+03  0.00000000000E+00 0. -1.
         23    2    1    2    0    0 -0.82353470761E+01  0.52454465952E+02  0.73291854610E+02  0.12910462153E+03  0.92070708748E+02 0.  0.
         24    2    1    2    0    0  0.59753666264E+02 -0.15073313406E+03 -0.37392652503E+03  0.41547017048E+03  0.80643896847E+02 0.  0.
        -11    1    4    4    0    0  0.45284023135E+02 -0.48432710101E+02 -0.22238528836E+03  0.23205944635E+03  0.00000000000E+00 0.  1.
         12    1    4    4    0    0  0.14469643128E+02 -0.10230042396E+03 -0.15154123667E+03  0.18341072414E+03  0.00000000000E+00 0. -1.
        -11    1    3    3    0    0  0.31394661368E+02  0.27483477878E+02 -0.46903774954E+00  0.41727524670E+02  0.00000000000E+00 0. -1.
         11    1    3    3    0    0 -0.39630008444E+02  0.24970988074E+02  0.73760892359E+02  0.87377096864E+02  0.00000000000E+00 0.  1.
         21    1    1    2  502  501 -0.51518319188E+02  0.98278668111E+02 -0.59251090560E+01  0.11112128840E+03  0.00000000000E+00 0. -1.
<scales pt_clust_5="13000.00000" pt_clust_6="13000.00000" pt_clust_7="13000.00000" pt_clust_8="13000.00000" pt_clust_9="147.51750"></scales>
<clustering>
<clus scale="   80.644">  5  6 -1 -1</clus>
<clus scale="   92.071">  7  8 -1 -1</clus>
<clus scale="  106.284">  1  7  2 -1</clus>
<clus scale="  147.517">  1  9  2 -1</clus>
<clus scale="  168.122">  2  5  1 -1</clus>
</clustering>
</event>
<event>
 9    2  0.5608219E-005  0.1316757E+03  0.7546771E-02  0.1226911E+00
          2   -1    0    0  502    0  0.00000000000E+00  0.00000000000E+00  0.75180057245E+03  0.75180057245E+03  0.00000000000E+00 0. -1.
         -1   -1    0    0    0  501 -0.00000000000E+00 -0.00000000000E+00 -0.43412216585E+02  0.43412216585E+02  0.00000000000E+00 0.  1.
         24    2    1    2    0    0  0.99222495200E+01  0.75365239466E+02  0.15262762045E+03  0.18915162229E+03  0.81882692522E+02 0.  0.
         23    2    1    2    0    0  0.46320840355E+02 -0.10226081644E+03  0.50686450368E+03  0.52683049909E+03  0.89642929732E+02 0.  0.
        -11    1    3    3    0    0 -0.15697902724E+02  0.64265036499E+02  0.50362331136E+02  0.83143150431E+02  0.00000000000E+00 0.  1.
         12    1    3    3    0    0  0.25620152244E+02  0.11100202966E+02  0.10226528931E+03  0.10600847186E+03  0.00000000000E+00 0. -1.
        -13    1    4    4    0    0  0.31602938328E+02 -0.78100471991E+02  0.48155944608E+03  0.48887414490E+03  0.00000000000E+00 0. -1.
         13    1    4    4    0    0  0.14717902026E+02 -0.24160344445E+02  0.25305057601E+02  0.37956354198E+02  0.00000000000E+00 0.  1.
         21    1    1    2  502  501 -0.56243089875E+02  0.26895576971E+02  0.48896231729E+02  0.79230667652E+02  0.00000000000E+00 0.  1.
<scales pt_clust_5="13000.00000" pt_clust_6="13000.00000" pt_clust_7="13000.00000" pt_clust_8="13000.00000" pt_clust_9="62.34306"></scales>
<clustering>
<clus scale="   62.343">  2  9  1 -1</clus>
<clus scale="   81.883">  5  6 -1 -1</clus>
<clus scale="   89.643">  7  8 -1 -1</clus>
<clus scale="  126.520">  2  5  1 -1</clus>
<clus scale="  131.676">  1  5  2 -1</clus>
</clustering>
</event>
<event>
 9    2  0.5608219E-005  0.1681082E+03  0.7546771E-02  0.1181848E+00
         -1   -1    0    0    0  501 -0.00000000000E+00  0.00000000000E+00  0.24629586879E+02  0.24629586879E+02  0.00000000000E+00 0.  1.
          2   -1    0    0  502    0  0.00000000000E+00 -0.00000000000E+00 -0.21040247080E+04  0.21040247080E+04  0.00000000000E+00 0. -1.
         23    2    1    2    0    0  0.36367754478E+02  0.15968175164E+03 -0.57727320184E+03  0.60741899166E+03  0.94300617697E+02 0.  0.
         24    2    1    2    0    0 -0.47536810201E+02 -0.12391582454E+03 -0.14424951522E+04  0.14508130006E+04  0.80319479882E+02 0.  0.
        -13    1    4    4    0    0 -0.27365424878E+02 -0.64913701324E+02 -0.37900185298E+03  0.38549326798E+03  0.00000000000E+00 0.  1.
         14    1    4    4    0    0 -0.20171385323E+02 -0.59002123215E+02 -0.10634932992E+04  0.10653197326E+04  0.00000000000E+00 0. -1.
        -13    1    3    3    0    0 -0.32043457152E+02  0.43396373985E+02 -0.17478984875E+03  0.18292490166E+03  0.00000000000E+00 0.  1.
         13    1    3    3    0    0  0.68411211630E+02  0.11628537765E+03 -0.40248335309E+03  0.42449409000E+03  0.00000000000E+00 0. -1.
         21    1    1    2  502  501  0.11169055723E+02 -0.35765927099E+02 -0.59626767143E+02  0.70422302625E+02  0.00000000000E+00 0.  1.
<scales pt_clust_5="13000.00000" pt_clust_6="13000.00000" pt_clust_7="13000.00000" pt_clust_8="13000.00000" pt_clust_9="37.46931"></scales>
<clustering>
<clus scale="   37.469">  1  9  2 -1</clus>
<clus scale="   80.319">  5  6 -1 -1</clus>
<clus scale="   94.301">  7  8 -1 -1</clus>
<clus scale="  160.683">  2  5  1 -1</clus>
<clus scale="  160.683">  2  5  1 -1</clus>
</clustering>
</event>
<event>
 9    2  0.5608219E-005  0.1128721E+03  0.7546771E-02  0.1259852E+00
          2   -1    0    0  502    0  0.00000000000E+00  0.00000000000E+00  0.36532708993E+03  0.36532708993E+03  0.00000000000E+00 0. -1.
         -1   -1    0    0    0  501 -0.00000000000E+00 -0.00000000000E+00 -0.38736130747E+03  0.38736130747E+03  0.00000000000E+00 0.  1.
         24    2    1    2    0    0 -0.49684265397E+02  0.12233059200E+03 -0.22568497010E+03  0.27341364582E+03  0.79925065052E+02 0.  0.
         23    2    1    2    0    0 -0.23655611216E+02 -0.49637576945E+02  0.31082566681E+03  0.33044775745E+03  0.97773453823E+02 0.  0.
        -11    1    3    3    0    0 -0.44411797091E+02  0.93701782439E+02 -0.22074549979E+03  0.24388728428E+03  0.00000000000E+00 0.  1.
         12    1    3    3    0    0 -0.52724683063E+01  0.28628809566E+02 -0.49394703092E+01  0.29526361546E+02  0.00000000000E+00 0. -1.
        -11    1    4    4    0    0  0.34168768984E+02 -0.38956557911E+02  0.17322224196E+03  0.18080670145E+03  0.00000000000E+00 0.  1.
         11    1    4    4    0    0 -0.57824380200E+02 -0.10681019035E+02  0.13760342484E+03  0.14964105600E+03  0.00000000000E+00 0. -1.
         21    1    1    2  502  501  0.73339876612E+02 -0.72693015059E+02 -0.10717491425E+03  0.14882699414E+03  0.00000000000E+00 0. -1.
<scales pt_clust_5="13000.00000" pt_clust_6="13000.00000" pt_clust_7="13000.00000" pt_clust_8="13000.00000" pt_clust_9="103.26186"></scales>
<clustering>
<clus scale="   79.925">  5  6 -1 -1</clus>
<clus scale="   97.773">  7  8 -1 -1</clus>
<clus scale="  103.262">  2  9  1 -1</clus>
<clus scale="  103.262">  2  5  1 -1</clus>
<clus scale="  112.872">  1  5  2 -1</clus>
</clustering>
</event>
<event>
 9    2  0.5608219E-005  0.2120892E+03  0.7546771E-02  0.1140943E+00
         -1   -1    0    0    0  501 -0.00000000000E+00  0.00000000000E+00  0.22698577624E+03  0.22698577624E+03  0.00000000000E+00 0.  1.
          2   -1    0    0  502    0  0.00000000000E+00 -0.00000000000E+00 -0.22237165940E+03  0.22237165940E+03  0.00000000000E+00 0. -1.
         23    2    1    2    0    0 -0.16506079670E+03 -0.64753598622E+02  0.29750630863E+02  0.20233438832E+03  0.92822462361E+02 0.  0.
         24    2    1    2    0    0  0.18648574339E+03  0.75569966594E+02 -0.37720882933E+02  0.21992344405E+03  0.80347395063E+02 0.  0.
        -11    1    4    4    0    0  0.17895321112E+02  0.10090703108E+02  0.21381286256E+02  0.29651715108E+02  0.00000000000E+00 0.  1.
         12    1    4    4    0    0  0.16859042228E+03  0.65479263486E+02 -0.59102169189E+02  0.19027172894E+03  0.00000000000E+00 0. -1.
        -13    1    3    3    0    0 -0.12091666680E+03 -0.86061665588E+02  0.77862123507E+01  0.14862057629E+03  0.00000000000E+00 0. -1.
         13    1    3    3    0    0 -0.44144129892E+02  0.21308066966E+02  0.21964418513E+02  0.53713812026E+02  0.00000000000E+00 0.  1.
         21    1    1    2  502  501 -0.21424946693E+02 -0.10816367971E+02  0.12584368916E+02  0.27099603279E+02  0.00000000000E+00 0.  1.
<scales pt_clust_5="13000.00000" pt_clust_6="13000.00000" pt_clust_7="13000.00000" pt_clust_8="13000.00000" pt_clust_9="24.00046"></scales>
<clustering>
<clus scale="   24.000">  1  9  2 -1</clus>
<clus scale="   80.347">  5  6 -1 -1</clus>
<clus scale="   92.822">  7  8 -1 -1</clus>
<clus scale="  206.934">  2  5  1 -1</clus>
<clus scale="  206.934">  2  5  1 -1</clus>
</clustering>
</event>
<event>
 9    2  0.5608219E-005  0.1016377E+03  0.7546771E-02  0.1282967E+00
         -1   -1    0    0    0  501 -0.00000000000E+00  0.00000000000E+00  0.95026556647E+02  0.95026556647E+02  0.00000000000E+00 0.  1.
          2   -1    0    0  502    0  0.00000000000E+00 -0.00000000000E+00 -0.37590080942E+03  0.37590080942E+03  0.00000000000E+00 0. -1.
         23    2    1    2    0    0  0.61896280441E+02 -0.28556396041E+02  0.10176831433E+02  0.11524987154E+03  0.92370708040E+02 0.  0.
         24    2    1    2    0    0 -0.40215177014E+02 -0.66627598813E+01 -0.30018506492E+03  0.31332317015E+03  0.79991767863E+02 0.  0.
        -11    1    4    4    0    0 -0.36035778612E+01  0.26200460854E+02 -0.36422693334E+02  0.45011804141E+02  0.00000000000E+00 0.  1.
         12    1    4    4    0    0 -0.36611599153E+02 -0.32863220735E+02 -0.26376237158E+03  0.26831136601E+03  0.00000000000E+00 0. -1.
        -13    1    3    3    0    0  0.37195076953E+02 -0.92813900791E+01  0.50992308253E+02  0.63795246315E+02  0.00000000000E+00 0.  1.
         13    1    3    3    0    0  0.24701203487E+02 -0.19275005962E+02 -0.40815476821E+02  0.51454625221E+02  0.00000000000E+00 0. -1.
         21    1    1    2  502  501 -0.21681103426E+02  0.35219155922E+02  0.91339807116E+01  0.42354324375E+02  0.00000000000E+00 0.  1.
<scales pt_clust_5="13000.00000" pt_clust_6="13000.00000" pt_clust_7="13000.00000" pt_clust_8="13000.00000" pt_clust_9="41.35770"></scales>
<clustering>
<clus scale="   41.358">  1  9  2 -1</clus>
<clus scale="   79.992">  5  6 -1 -1</clus>
<clus scale="   90.535">  2  5  1 -1</clus>
<clus scale="   92.371">  7  8 -1 -1</clus>
<clus scale="   90.535">  2  5  1 -1</clus>
</clustering>
</event>
<event>
 9    2  0.5608219E-005  0.4906504E+03  0.7546771E-02  0.1016484E+00
         -1   -1    0    0    0  501 -0.00000000000E+00  0.00000000000E+00  0.37664514511E+03  0.37664514511E+03  0.00000000000E+00 0.  1.
          2   -1    0    0  502    0  0.00000000000E+00 -0.00000000000E+00 -0.20244155747E+04  0.20244155747E+04  0.00000000000E+00 0. -1.
         24    2    1    2    0    0  0.44442077997E+03 -0.16838337035E+03 -0.11913385663E+03  0.49500420325E+03  0.70523020085E+02 0.  0.
         23    2    1    2    0    0 -0.46453676632E+03  0.13415744037E+03 -0.16794669870E+04  0.17500889526E+04  0.91702539105E+02 0.  0.
        -13    1    3    3    0    0  0.10461901427E+03 -0.68040929664E+02 -0.14915388922E+02  0.12568681348E+03  0.00000000000E+00 0.  1.
         14    1    3    3    0    0  0.33980176570E+03 -0.10034244069E+03 -0.10421846771E+03  0.36931738977E+03  0.00000000000E+00 0. -1.
        -11    1    4    4    0    0 -0.58572196349E+02  0.33406992121E+02 -0.15002692150E+03  0.16448345352E+03  0.00000000000E+00 0.  1.
         11    1    4    4    0    0 -0.40596456997E+03  0.10075044825E+03 -0.15294400655E+04  0.15856054991E+04  0.00000000000E+00 0. -1.
         21    1    1    2  502  501  0.20115986354E+02  0.34225929981E+02  0.15083041404E+03  0.15596756390E+03  0.00000000000E+00 0.  1.
<scales pt_clust_5="13000.00000" pt_clust_6="13000.00000" pt_clust_7="13000.00000" pt_clust_8="13000.00000" pt_clust_9="39.69971"></scales>
<clustering>
<clus scale="   39.700">  1  9  2 -1</clus>
<clus scale="   70.523">  5  6 -1 -1</clus>
<clus scale="   91.703">  7  8 -1 -1</clus>
<clus scale="  487.137">  1  5  2 -1</clus>
<clus scale="  490.650">  2  5  1 -1</clus>
</clustering>
</event>
<event>
 9    2  0.5608219E-005  0.9828449E+02  0.7546771E-02  0.1289691E+00
         -1   -1    0    0    0  501 -0.00000000000E+00  0.00000000000E+00  0.80055619526E+02  0.80055619526E+02  0.00000000000E+00 0.  1.
          2   -1    0    0  502    0  0.00000000000E+00 -0.00000000000E+00 -0.39590420581E+03  0.39590420581E+03  0.00000000000E+00 0. -1.
         23    2    1    2    0    0  0.90500059647E+01  0.35468504296E+02  0.35728438974E+02  0.10445183302E+03  0.91070009693E+02 0.  0.
         24    2    1    2    0    0 -0.32278758583E+02 -0.31495704271E+02 -0.23034906693E+03  0.24801072121E+03  0.80091994347E+02 0.  0.
        -11    1    4    4    0    0  0.14925751571E+00  0.24329168403E+02 -0.94801442344E+02  0.97873613316E+02  0.00000000000E+00 0.  1.
         12    1    4    4    0    0 -0.32428016098E+02 -0.55824872674E+02 -0.13554762458E+03  0.15013710789E+03  0.00000000000E+00 0. -1.
        -13    1    3    3    0    0  0.17461034364E+02 -0.23918576565E+02  0.33100853517E+02  0.44414553128E+02  0.00000000000E+00 0.  1.
         13    1    3    3    0    0 -0.84110283991E+01  0.59387080862E+02  0.26275854571E+01  0.60037279896E+02  0.00000000000E+00 0. -1.
         21    1    1    2  502  501  0.23228752618E+02 -0.39728000253E+01 -0.12122795833E+03  0.12349727110E+03  0.00000000000E+00 0. -1.
<scales pt_clust_5="13000.00000" pt_clust_6="13000.00000" pt_clust_7="13000.00000" pt_clust_8="13000.00000" pt_clust_9="23.56604"></scales>
<clustering>
<clus scale="   23.566">  2  9  1 -1</clus>
<clus scale="   80.092">  5  6 -1 -1</clus>
<clus scale="   88.209">  2  5  1 -1</clus>
<clus scale="   91.070">  7  8 -1 -1</clus>
<clus scale="   23.566">  2  5  1 -1</clus>
</clustering>
</event>
<event>
 9    2  0.5608219E-005  0.2103417E+03  0.7546771E-02  0.1162040E+00
         -1   -1    0    0    0  501 -0.00000000000E+00  0.00000000000E+00  0.15731716550E+03  0.15731716550E+03  0.00000000000E+00 0.  1.
          2   -1    0    0  502    0  0.00000000000E+00 -0.00000000000E+00 -0.18407923582E+04  0.18407923582E+04  0.00000000000E+00 0. -1.
         23    2    1    2    0    0 -0.19307958269E+02 -0.95646094929E+02 -0.26557190856E+02  0.13155455511E+03  0.84144779137E+02 0.  0.
         24    2    1    2    0    0 -0.17221393198E+03  0.92016607068E+02 -0.16614845013E+04  0.16749442681E+04  0.82358111656E+02 0.  0.
        -13    1    4    4    0    0 -0.26984755954E+02  0.39851583779E+02 -0.21882270501E+03  0.22405290003E+03  0.00000000000E+00 0.  1.
         14    1    4    4    0    0 -0.14522917603E+03  0.52165023289E+02 -0.14426617963E+04  0.14508913680E+04  0.00000000000E+00 0. -1.
        -13    1    3    3    0    0  0.22989490484E+02 -0.80474119944E+02 -0.13631993780E+02  0.84796414476E+02  0.00000000000E+00 0.  1.
         13    1    3    3    0    0 -0.42297448753E+02 -0.15171974985E+02 -0.12925197076E+02  0.46758140633E+02  0.00000000000E+00 0. -1.
         21    1    1    2  502  501  0.19152189025E+03  0.36294878607E+01  0.45664995325E+01  0.19161070050E+03  0.00000000000E+00 0.  1.
<scales pt_clust_5="13000.00000" pt_clust_6="13000.00000" pt_clust_7="13000.00000" pt_clust_8="13000.00000" pt_clust_9="193.54787"></scales>
<clustering>
<clus scale="   82.358">  5  6 -1 -1</clus>
<clus scale="   84.145">  7  8 -1 -1</clus>
<clus scale="  128.846">  1  7  2 -1</clus>
<clus scale="  193.548">  1  9  2 -1</clus>
<clus scale="  210.342">  2  5  1 -1</clus>
</clustering>
</event>
<event>
 9    2  0.5608219E-005  0.2718088E+03  0.7546771E-02  0.1100577E+00
         -1   -1    0    0    0  501 -0.00000000000E+00  0.00000000000E+00  0.51476066642E+03  0.51476066642E+03  0.00000000000E+00 0.  1.
          2   -1    0    0  502    0  0.00000000000E+00 -0.00000000000E+00 -0.35875556889E+03  0.35875556889E+03  0.00000000000E+00 0. -1.
         24    2    1    2    0    0 -0.22562629386E+03 -0.10369155471E+02  0.22213829818E+03  0.32806922083E+03  0.85259874915E+02 0.  0.
         23    2    1    2    0    0  0.26079957788E+03 -0.37356441922E+02 -0.23599036669E+03  0.36554051262E+03  0.92284828796E+02 0.  0.
        -11    1    3    3    0    0 -0.17995515494E+03  0.13916026489E+02  0.20599510804E+03  0.27388227055E+03  0.00000000000E+00 0.  1.
         12    1    3    3    0    0 -0.45671138917E+02 -0.24285181960E+02  0.16143190139E+02  0.54186950281E+02  0.00000000000E+00 0. -1.
        -13    1    4    4    0    0  0.17926208251E+03  0.18143673110E+02 -0.16110625422E+03  0.24170087350E+03  0.00000000000E+00 0. -1.
         13    1    4    4    0    0  0.81537495365E+02 -0.55500115032E+02 -0.74884112471E+02  0.12383963913E+03  0.00000000000E+00 0.  1.
         21    1    1    2  502  501 -0.35173284018E+02  0.47725597393E+02  0.16985716604E+03  0.17990650185E+03  0.00000000000E+00 0.  1.
<scales pt_clust_5="13000.00000" pt_clust_6="13000.00000" pt_clust_7="13000.00000" pt_clust_8="13000.00000" pt_clust_9="59.28653"></scales>
<clustering>
<clus scale="   59.287">  1  9  2 -1</clus>
<clus scale="   85.260">  5  6 -1 -1</clus>
<clus scale="   92.285">  7  8 -1 -1</clus>
<clus scale="  269.505">  1  5  2 -1</clus>
<clus scale="  271.809">  2  5  1 -1</clus>
</clustering>
</event>
<event>
 9    2  0.5608219E-005  0.1153165E+03  0.7546771E-02  0.1259092E+00
          2   -1    0    0  502    0  0.00000000000E+00  0.00000000000E+00  0.86483783613E+03  0.86483783613E+03  0.00000000000E+00 0. -1.
         -1   -1    0    0    0  501 -0.00000000000E+00 -0.00000000000E+00 -0.27355631505E+02  0.27355631505E+02  0.00000000000E+00 0.  1.
         23    2    1    2    0    0  0.34321362937E+02  0.33468560411E+01  0.14438802320E+03  0.17920365202E+03  0.10038371509E+03 0.  0.
         24    2    1    2    0    0 -0.61230964807E+02 -0.69045888149E+01  0.66926693157E+03  0.67687164884E+03  0.80250226884E+02 0.  0.
        -13    1    4    4    0    0 -0.30697042733E+02 -0.33583373941E+02  0.17073436165E+03  0.17669287955E+03  0.00000000000E+00 0.  1.
         14    1    4    4    0    0 -0.30533922074E+02  0.26678785126E+02  0.49853256993E+03  0.50017876929E+03  0.00000000000E+00 0. -1.
        -13    1    3    3    0    0  0.83498773107E+01  0.42276221148E+02  0.11767811263E+03  0.12532014011E+03  0.00000000000E+00 0. -1.
         13    1    3    3    0    0  0.25971485626E+02 -0.38929365106E+02  0.26709910578E+02  0.53883511915E+02  0.00000000000E+00 0.  1.
         21    1    1    2  502  501  0.26909601870E+02  0.35577327738E+01  0.23827249848E+02  0.36118166767E+02  0.00000000000E+00 0. -1.
<scales pt_clust_5="13000.00000" pt_clust_6="13000.00000" pt_clust_7="13000.00000" pt_clust_8="13000.00000" pt_clust_9="27.14377"></scales>
<clustering>
<clus scale="   27.144">  2  9  1 -1</clus>
<clus scale="   80.250">  5  6 -1 -1</clus>
<clus scale="   98.291">  1  5  2 -1</clus>
<clus scale="  100.384">  7  8 -1 -1</clus>
<clus scale="   98.291">  1  5  2 -1</clus>
</clustering>
</event>
<event>
 9    2  0.5608219E-005  0.9939969E+02  0.7546771E-02  0.1289297E+00
          2   -1    0    0  502    0  0.00000000000E+00  0.00000000000E+00  0.13250757133E+03  0.13250757133E+03  0.00000000000E+00 0. -1.
         -1   -1    0    0    0  501 -0.00000000000E+00 -0.00000000000E+00 -0.49931919970E+03  0.49931919970E+03  0.00000000000E+00 0.  1.
         24    2    1    2    0    0 -0.13174340148E+02 -0.29875166767E+02 -0.59173115424E+02  0.10559105851E+03  0.81129065207E+02 0.  0.
         23    2    1    2    0    0  0.33472809956E+01 -0.46231566480E+02  0.78919428405E+02  0.13213439564E+03  0.95302992091E+02 0.  0.
        -13    1    3    3    0    0  0.20762981275E+02 -0.33538767373E+02 -0.59579728590E+02  0.71454141708E+02  0.00000000000E+00 0.  1.
         14    1    3    3    0    0 -0.33937321423E+02  0.36636006051E+01  0.40661316653E+00  0.34136916806E+02  0.00000000000E+00 0. -1.
        -11    1    4    4    0    0  0.37970336266E+02 -0.43108395412E+02  0.14998829549E+02  0.59372090068E+02  0.00000000000E+00 0.  1.
         11    1    4    4    0    0 -0.34623055271E+02 -0.31231710679E+01  0.63920598855E+02  0.72762305570E+02  0.00000000000E+00 0. -1.
         21    1    1    2  502  501  0.98270591522E+01  0.76106733247E+02 -0.38655794136E+03  0.39410131688E+03  0.00000000000E+00 0.  1.
<scales pt_clust_5="13000.00000" pt_clust_6="13000.00000" pt_clust_7="13000.00000" pt_clust_8="13000.00000" pt_clust_9="76.73856"></scales>
<clustering>
<clus scale="   76.739">  2  9  1 -1</clus>
<clus scale="   81.129">  5  6 -1 -1</clus>
<clus scale="   85.904">  2  5  1 -1</clus>
<clus scale="   95.303">  7  8 -1 -1</clus>
<clus scale="   99.400">  1  5  2 -1</clus>
</clustering>
</event>
<event>
 9    2  0.5608219E-005  0.1118410E+03  0.7546771E-02  0.1267971E+00
         -1   -1    0    0    0  501 -0.00000000000E+00  0.00000000000E+00  0.34894648685E+02  0.34894648685E+02  0.00000000000E+00 0.  1.
          2   -1    0    0  502    0  0.00000000000E+00 -0.00000000000E+00 -0.14013340591E+04  0.14013340591E+04  0.00000000000E+00 0. -1.
         23    2    1    2    0    0 -0.35246417869E+00 -0.53287100993E+02 -0.84685041318E+02  0.13940804251E+03  0.97074233089E+02 0.  0.
         24    2    1    2    0    0  0.23128255282E+02  0.50932512096E+02 -0.12654661620E+04  0.12687210845E+04  0.71551003298E+02 0.  0.
        -13    1    4    4    0    0  0.22946146397E+02  0.20866496244E+02 -0.16774037553E+03  0.17058361551E+03  0.00000000000E+00 0.  1.
         14    1    4    4    0    0  0.18210888526E+00  0.30066015852E+02 -0.10977257865E+04  0.10981374690E+04  0.00000000000E+00 0. -1.
        -13    1    3    3    0    0  0.26172238943E+02 -0.32502019056E+02 -0.95334116223E+02  0.10406709879E+03  0.00000000000E+00 0. -1.
         13    1    3    3    0    0 -0.26524703121E+02 -0.20785081937E+02  0.10649074904E+02  0.35340943721E+02  0.00000000000E+00 0.  1.
         21    1    1    2  502  501 -0.22775791104E+02  0.23545888969E+01 -0.16288207062E+02  0.28099580754E+02  0.00000000000E+00 0. -1.
<scales pt_clust_5="13000.00000" pt_clust_6="13000.00000" pt_clust_7="13000.00000" pt_clust_8="13000.00000" pt_clust_9="22.89718"></scales>
<clustering>
<clus scale="   22.897">  1  9  2 -1</clus>
<clus scale="   71.551">  5  6 -1 -1</clus>
<clus scale="   90.579">  2  5  1 -1</clus>
<clus scale="   97.074">  7  8 -1 -1</clus>
<clus scale="   90.579">  2  5  1 -1</clus>
</clustering>
</event>
<event>
 9    2  0.5608219E-005  0.9041466E+02  0.7546771E-02  0.1309483E+00
         -1   -1    0    0    0  501 -0.00000000000E+00  0.00000000000E+00  0.52535135898E+03  0.52535135898E+03  0.00000000000E+00 0.  1.
          2   -1    0    0  502    0  0.00000000000E+00 -0.00000000000E+00 -0.60175598983E+02  0.60175598983E+02  0.00000000000E+00 0. -1.
         23    2    1    2    0    0  0.72855138440E+01  0.37843729393E+02  0.15495262026E+03  0.18347628888E+03  0.90377029650E+02 0.  0.
         24    2    1    2    0    0  0.33596168115E+01  0.52869755433E+01 -0.93511949294E+01  0.79403288975E+02  0.78601516002E+02 0.  0.
        -13    1    4    4    0    0  0.14721807560E+02 -0.34097767593E+02  0.89594651087E+00  0.37150936635E+02  0.00000000000E+00 0.  1.
         14    1    4    4    0    0 -0.11362190749E+02  0.39384743137E+02 -0.10247141440E+02  0.42252352340E+02  0.00000000000E+00 0. -1.
        -11    1    3    3    0    0 -0.26970976086E+02  0.46632617727E+02  0.53030861217E+02  0.75593034259E+02  0.00000000000E+00 0.  1.
         11    1    3    3    0    0  0.34256489930E+02 -0.87888883346E+01  0.10192175904E+03  0.10788325462E+03  0.00000000000E+00 0. -1.
         21    1    1    2  502  501 -0.10645130656E+02 -0.43130704936E+02  0.31957433467E+03  0.32264738011E+03  0.00000000000E+00 0.  1.
<scales pt_clust_5="13000.00000" pt_clust_6="13000.00000" pt_clust_7="13000.00000" pt_clust_8="13000.00000" pt_clust_9="44.42495"></scales>
<clustering>
<clus scale="   44.425">  1  9  2 -1</clus>
<clus scale="   78.602">  5  6 -1 -1</clus>
<clus scale="   78.645">  2  5  1 -1</clus>
<clus scale="   90.377">  7  8 -1 -1</clus>
<clus scale="   78.645">  2  5  1 -1</clus>
</clustering>
</event>
<event>
 9    2  0.5608219E-005  0.1945821E+03  0.7546771E-02  0.1155324E+00
          2   -1    0    0  502    0  0.00000000000E+00  0.00000000000E+00  0.85407695713E+03  0.85407695713E+03  0.00000000000E+00 0. -1.
         -1   -1    0    0    0  501 -0.00000000000E+00 -0.00000000000E+00 -0.12728393564E+03  0.12728393564E+03  0.00000000000E+00 0.  1.
         24    2    1    2    0    0 -0.20159012542E+03  0.16257873642E+02  0.22638328876E+02  0.21946846415E+03  0.82164564744E+02 0.  0.
         23    2    1    2    0    0  0.15522443410E+03 -0.65891295569E+02  0.64117991595E+03  0.66926912486E+03  0.91505131540E+02 0.  0.
        -11    1    3    3    0    0 -0.66523631331E+02  0.29468523504E+02 -0.22970783165E+02  0.76298389775E+02  0.00000000000E+00 0.  1.
         12    1    3    3    0    0 -0.13506649409E+03 -0.13210649862E+02  0.45609112041E+02  0.14317007437E+03  0.00000000000E+00 0. -1.
        -11    1    4    4    0    0  0.11104561862E+03  0.17243476164E+01  0.37702767172E+03  0.39304448607E+03  0.00000000000E+00 0. -1.
         11    1    4    4    0    0  0.44178815476E+02 -0.67615643185E+02  0.26415224423E+03  0.27622463879E+03  0.00000000000E+00 0.  1.
         21    1    1    2  502  501  0.46365691320E+02  0.49633421927E+02  0.62974776658E+02  0.92623303757E+02  0.00000000000E+00 0. -1.
<scales pt_clust_5="13000.00000" pt_clust_6="13000.00000" pt_clust_7="13000.00000" pt_clust_8="13000.00000" pt_clust_9="67.92094"></scales>
<clustering>
<clus scale="   67.921">  2  9  1 -1</clus>
<clus scale="   82.165">  5  6 -1 -1</clus>
<clus scale="   91.505">  7  8 -1 -1</clus>
<clus scale="  190.368">  2  5  1 -1</clus>
<clus scale="  194.582">  1  5  2 -1</clus>
</clustering>
</event>
<event>
 9    2  0.5608219E-005  0.1029999E+03  0.7546771E-02  0.1280199E+00
          2   -1    0    0  502    0  0.00000000000E+00  0.00000000000E+00  0.29391012165E+03  0.29391012165E+03  0.00000000000E+00 0. -1.
         -1   -1    0    0    0  501 -0.00000000000E+00 -0.00000000000E+00 -0.17449820397E+03  0.17449820397E+03  0.00000000000E+00 0.  1.
         24    2    1    2    0    0 -0.59234577954E+00 -0.66867996749E+02 -0.12372371245E+03  0.16123114416E+03  0.78843166861E+02 0.  0.
         23    2    1    2    0    0  0.19961528744E+02  0.41217364963E+02  0.25345768396E+03  0.27341825738E+03  0.91757354502E+02 0.  0.
        -11    1    3    3    0    0 -0.25470625463E+01 -0.71006136278E+02 -0.13305518925E+03  0.15083780131E+03  0.00000000000E+00 0.  1.
         12    1    3    3    0    0  0.19547167668E+01  0.41381395295E+01  0.93314767971E+01  0.10393342851E+02  0.00000000000E+00 0. -1.
        -13    1    4    4    0    0  0.31569435345E+02 -0.15495054003E+02  0.15727650184E+03  0.16116024317E+03  0.00000000000E+00 0.  1.
         13    1    4    4    0    0 -0.11607906600E+02  0.56712418966E+02  0.96181182116E+02  0.11225801421E+03  0.00000000000E+00 0. -1.
         21    1    1    2  502  501 -0.19369182965E+02  0.25650631786E+02 -0.10322053833E+02  0.33758924080E+02  0.00000000000E+00 0.  1.
<scales pt_clust_5="13000.00000" pt_clust_6="13000.00000" pt_clust_7="13000.00000" pt_clust_8="13000.00000" pt_clust_9="32.14219"></scales>
<clustering>
<clus scale="   32.142">  2  9  1 -1</clus>
<clus scale="   78.843">  5  6 -1 -1</clus>
<clus scale="   91.683">  2  5  1 -1</clus>
<clus scale="   91.757">  7  8 -1 -1</clus>
<clus scale="  103.000">  1  5  2 -1</clus>
</clustering>
</event>
<event>
 9    2  0.5608219E-005  0.2078903E+03  0.7546771E-02  0.1143626E+00
          2   -1    0    0  502    0  0.00000000000E+00  0.00000000000E+00  0.27174010475E+03  0.27174010475E+03  0.00000000000E+00 0. -1.
         -1   -1    0    0    0  501 -0.00000000000E+00 -0.00000000000E+00 -0.41350025815E+03  0.41350025815E+03  0.00000000000E+00 0.  1.
         24    2    1    2    0    0  0.18275380762E+03  0.25481033378E+02 -0.46262489187E+02  0.20836217651E+03  0.85007890423E+02 0.  0.
         23    2    1    2    0    0 -0.10789630534E+03 -0.21065762589E+03  0.54456913361E+01  0.25308458261E+03  0.89464531247E+02 0.  0.
        -11    1    3    3    0    0  0.18317751921E+03  0.59728041716E+01 -0.45480581114E+02  0.18883368659E+03  0.00000000000E+00 0.  1.
         12    1    3    3    0    0 -0.42371159260E+00  0.19508229207E+02 -0.78190807365E+00  0.19528489919E+02  0.00000000000E+00 0. -1.
        -11    1    4    4    0    0 -0.19546412710E+02 -0.21002018045E+02 -0.29284857145E+02  0.40996949518E+02  0.00000000000E+00 0.  1.
         11    1    4    4    0    0 -0.88349892632E+02 -0.18965560784E+03  0.34730548481E+02  0.21208763309E+03  0.00000000000E+00 0. -1.
         21    1    1    2  502  501 -0.74857502277E+02  0.18517659251E+03 -0.10094335555E+03  0.22379360377E+03  0.00000000000E+00 0. -1.
<scales pt_clust_5="13000.00000" pt_clust_6="13000.00000" pt_clust_7="13000.00000" pt_clust_8="13000.00000" pt_clust_9="199.73486"></scales>
<clustering>
<clus scale="   85.008">  5  6 -1 -1</clus>
<clus scale="   89.465">  7  8 -1 -1</clus>
<clus scale="  199.735">  2  9  1 -1</clus>
<clus scale="  206.012">  2  5  1 -1</clus>
<clus scale="  207.890">  1  5  2 -1</clus>
</clustering>
</event>
<event>
 9    2  0.5608219E-005  0.2319854E+03  0.7546771E-02  0.1152046E+00
         -1   -1    0    0    0  501 -0.00000000000E+00  0.00000000000E+00  0.40746450742E+03  0.40746450742E+03  0.00000000000E+00 0.  1.
          2   -1    0    0  502    0  0.00000000000E+00 -0.00000000000E+00 -0.62299075452E+03  0.62299075452E+03  0.00000000000E+00 0. -1.
         23    2    1    2    0    0  0.77548710191E+02 -0.23042142915E+02  0.73390582740E+02  0.14181622617E+03  0.90448447018E+02 0.  0.
         24    2    1    2    0    0  0.20866152219E+03 -0.30708440954E+02 -0.48676831782E+03  0.53657280097E+03  0.80525376847E+02 0.  0.
        -13    1    4    4    0    0  0.14227355800E+03 -0.58039753486E+02 -0.34457550129E+03  0.37728325484E+03  0.00000000000E+00 0.  1.
         14    1    4    4    0    0  0.66387964187E+02  0.27331312532E+02 -0.14219281653E+03  0.15928954613E+03  0.00000000000E+00 0. -1.
        -13    1    3    3    0    0 -0.42557785894E+01 -0.30150723975E+02 -0.17666986798E+01  0.30500803790E+02  0.00000000000E+00 0. -1.
         13    1    3    3    0    0  0.81804488781E+02  0.71085810600E+01  0.75157281419E+02  0.11131542238E+03  0.00000000000E+00 0.  1.
         21    1    1    2  502  501 -0.28621023238E+03  0.53750583869E+02  0.19785148798E+03  0.35206623480E+03  0.00000000000E+00 0.  1.
<scales pt_clust_5="13000.00000" pt_clust_6="13000.00000" pt_clust_7="13000.00000" pt_clust_8="13000.00000" pt_clust_9="217.56127"></scales>
<clustering>
<clus scale="   80.525">  5  6 -1 -1</clus>
<clus scale="   90.448">  7  8 -1 -1</clus>
<clus scale="  121.349">  1  7  2 -1</clus>
<clus scale="  217.561">  1  9  2 -1</clus>
<clus scale="  231.985">  2  5  1 -1</clus>
</clustering>
</event>
<event>
 9    2  0.5608219E-005  0.9285004E+02  0.7546771E-02  0.1302886E+00
         -1   -1    0    0    0  501 -0.00000000000E+00  0.00000000000E+00  0.76572339459E+02  0.76572339459E+02  0.00000000000E+00 0.  1.
          2   -1    0    0  502    0  0.00000000000E+00 -0.00000000000E+00 -0.39056057398E+03  0.39056057398E+03  0.00000000000E+00 0. -1.
         23    2    1    2    0    0 -0.21001838028E+02 -0.97863304081E+01  0.26404339138E+02  0.97700994957E+02  0.91167131286E+02 0.  0.
         24    2    1    2    0    0 -0.10030898279E+02 -0.34373802217E+02 -0.23907248168E+03  0.25463248871E+03  0.79999222582E+02 0.  0.
        -11    1    4    4    0    0  0.31918197834E+02 -0.28258278378E+02 -0.15077548672E+03  0.15668614822E+03  0.00000000000E+00 0.  1.
         12    1    4    4    0    0 -0.41949096113E+02 -0.61155238387E+01 -0.88296994959E+02  0.97946340489E+02  0.00000000000E+00 0. -1.
        -13    1    3    3    0    0 -0.55209164056E+02 -0.14766094455E+02  0.26821293187E+02  0.63130587748E+02  0.00000000000E+00 0.  1.
         13    1    3    3    0    0  0.34207326028E+02  0.49797640465E+01 -0.41695404980E+00  0.34570407209E+02  0.00000000000E+00 0. -1.
         21    1    1    2  502  501  0.31032736307E+02  0.44160132625E+02 -0.10132009198E+03  0.11479942976E+03  0.00000000000E+00 0. -1.
<scales pt_clust_5="13000.00000" pt_clust_6="13000.00000" pt_clust_7="13000.00000" pt_clust_8="13000.00000" pt_clust_9="53.97359"></scales>
<clustering>
<clus scale="   53.974">  2  9  1 -1</clus>
<clus scale="   79.999">  5  6 -1 -1</clus>
<clus scale="   81.912">  2  5  1 -1</clus>
<clus scale="   91.167">  7  8 -1 -1</clus>
<clus scale="   53.974">  2  5  1 -1</clus>
</clustering>
</event>
<event>
 9    2  0.5608219E-005  0.8711863E+02  0.7546771E-02  0.1310208E+00
         -1   -1    0    0    0  501 -0.00000000000E+00  0.00000000000E+00  0.39415762633E+02  0.39415762633E+02  0.00000000000E+00 0.  1.
          2   -1    0    0  502    0  0.00000000000E+00 -0.00000000000E+00 -0.46260424361E+03  0.46260424361E+03  0.00000000000E+00 0. -1.
         24    2    1    2    0    0 -0.14149405370E+02 -0.40576625771E+02 -0.12751671600E+03  0.15747783441E+03  0.81805178566E+02 0.  0.
         23    2    1    2    0    0 -0.86053212906E+01  0.24145196656E+02 -0.30344402204E+03  0.31541868598E+03  0.82180477486E+02 0.  0.
        -11    1    3    3    0    0  0.25893124046E+02 -0.14859950453E+02 -0.11346073329E+02  0.31937523077E+02  0.00000000000E+00 0.  1.
         12    1    3    3    0    0 -0.40042529416E+02 -0.25716675318E+02 -0.11617064267E+03  0.12554031133E+03  0.00000000000E+00 0. -1.
        -11    1    4    4    0    0 -0.33080361031E+02  0.36922220724E+02 -0.25396193641E+03  0.25875514645E+03  0.00000000000E+00 0. -1.
         11    1    4    4    0    0  0.24475039740E+02 -0.12777024067E+02 -0.49482085633E+02  0.56663539537E+02  0.00000000000E+00 0.  1.
         21    1    1    2  502  501  0.22754726661E+02  0.16431429115E+02  0.77722570610E+01  0.29123485849E+02  0.00000000000E+00 0.  1.
<scales pt_clust_5="13000.00000" pt_clust_6="13000.00000" pt_clust_7="13000.00000" pt_clust_8="13000.00000" pt_clust_9="28.06723"></scales>
<clustering>
<clus scale="   28.067">  1  9  2 -1</clus>
<clus scale="   81.805">  5  6 -1 -1</clus>
<clus scale="   82.180">  7  8 -1 -1</clus>
<clus scale="   86.765">  1  5  2 -1</clus>
<clus scale="   87.119">  2  5  1 -1</clus>
</clustering>
</event>
<event>
 9    2  0.5608219E-005  0.4131053E+03  0.7546771E-02  0.1039334E+00
         -3   -1    0    0    0  501 -0.00000000000E+00  0.00000000000E+00  0.26718635161E+03  0.26718635161E+03  0.00000000000E+00 0.  1.
          4   -1    0    0  502    0  0.00000000000E+00 -0.00000000000E+00 -0.57438871427E+03  0.57438871427E+03  0.00000000000E+00 0. -1.
         24    2    1    2    0    0 -0.78562381572E+02 -0.14597329871E+03 -0.56087260349E+02  0.19327152251E+03  0.82023465581E+02 0.  0.
         23    2    1    2    0    0 -0.15998649447E+03 -0.99903045795E+02 -0.22152637589E+03  0.30444858007E+03  0.89658829571E+02 0.  0.
        -13    1    3    3    0    0 -0.62192513518E+02 -0.68798676205E+02  0.59154644931E+01  0.92930938366E+02  0.00000000000E+00 0.  1.
         14    1    3    3    0    0 -0.16369868053E+02 -0.77174622508E+02 -0.62002724843E+02  0.10034058415E+03  0.00000000000E+00 0. -1.
        -13    1    4    4    0    0 -0.15394298267E+03 -0.54910638813E+02 -0.17274996885E+03  0.23781541562E+03  0.00000000000E+00 0.  1.
         13    1    4    4    0    0 -0.60435117959E+01 -0.44992406982E+02 -0.48776407039E+02  0.66633164449E+02  0.00000000000E+00 0. -1.
         21    1    1    2  502  501  0.23854887604E+03  0.24587634451E+03 -0.29588726422E+02  0.34385496329E+03  0.00000000000E+00 0. -1.
<scales pt_clust_5="13000.00000" pt_clust_6="13000.00000" pt_clust_7="13000.00000" pt_clust_8="13000.00000" pt_clust_9="342.57954"></scales>
<clustering>
<clus scale="   82.023">  5  6 -1 -1</clus>
<clus scale="   89.659">  7  8 -1 -1</clus>
<clus scale="  169.567">  5  7 -1 -1</clus>
<clus scale="  342.580">  1  9  2 -1</clus>
<clus scale="  413.105">  2  5  1 -1</clus>
</clustering>
</event>
<event>
 9    2  0.5608219E-005  0.1020252E+03  0.7546771E-02  0.1276196E+00
         -1   -1    0    0    0  501 -0.00000000000E+00  0.00000000000E+00  0.35151310410E+03  0.35151310410E+03  0.00000000000E+00 0.  1.
          2   -1    0    0  502    0  0.00000000000E+00 -0.00000000000E+00 -0.76513417813E+02  0.76513417813E+02  0.00000000000E+00 0. -1.
         23    2    1    2    0    0 -0.11767679701E+02 -0.35450976084E+02  0.17218595356E+03  0.19419935426E+03  0.81670904252E+02 0.  0.
         24    2    1    2    0    0  0.36683639058E+02  0.55727195963E+02 -0.19439367000E+02  0.10742404065E+03  0.81919629977E+02 0.  0.
        -11    1    4    4    0    0  0.39666058678E+02  0.14489727120E+02  0.23073181025E+02  0.48121929364E+02  0.00000000000E+00 0.  1.
         12    1    4    4    0    0 -0.29824196200E+01  0.41237468842E+02 -0.42512548025E+02  0.59302111285E+02  0.00000000000E+00 0. -1.
        -11    1    3    3    0    0 -0.58457953848E+01 -0.57422008284E+02  0.15582992495E+03  0.16617588835E+03  0.00000000000E+00 0.  1.
         11    1    3    3    0    0 -0.59218843165E+01  0.21971032200E+02  0.16356028609E+02  0.28023465910E+02  0.00000000000E+00 0. -1.
         21    1    1    2  502  501 -0.24915959357E+02 -0.20276219879E+02  0.12225309973E+03  0.12640312700E+03  0.00000000000E+00 0.  1.
<scales pt_clust_5="13000.00000" pt_clust_6="13000.00000" pt_clust_7="13000.00000" pt_clust_8="13000.00000" pt_clust_9="32.12367"></scales>
<clustering>
<clus scale="   32.124">  1  9  2 -1</clus>
<clus scale="   81.671">  7  8 -1 -1</clus>
<clus scale="   81.920">  5  6 -1 -1</clus>
<clus scale="  101.826">  1  7  2 -1</clus>
<clus scale="  102.025">  2  5  1 -1</clus>
</clustering>
</event>
<event>
 9    2  0.5608219E-005  0.9490904E+02  0.7546771E-02  0.1297790E+00
          2   -1    0    0  502    0  0.00000000000E+00  0.00000000000E+00  0.55861955087E+03  0.55861955087E+03  0.00000000000E+00 0. -1.
         -1   -1    0    0    0  501 -0.00000000000E+00 -0.00000000000E+00 -0.29108513278E+02  0.29108513278E+02  0.00000000000E+00 0.  1.
         23    2    1    2    0    0  0.34014733789E+02 -0.22123536046E+02  0.12675360981E+03  0.16126302125E+03  0.91064984823E+02 0.  0.
         24    2    1    2    0    0 -0.24333644688E+02  0.37096178893E+00  0.39116869080E+03  0.39998492209E+03  0.79891985602E+02 0.  0.
        -11    1    4    4    0    0  0.18826609099E+02  0.24458954153E+02  0.10014064964E+03  0.10478946206E+03  0.00000000000E+00 0.  1.
         12    1    4    4    0    0 -0.43160253787E+02 -0.24087992364E+02  0.29102804116E+03  0.29519546003E+03  0.00000000000E+00 0. -1.
        -11    1    3    3    0    0  0.40246357842E+02 -0.53235861388E+02  0.97172819491E+02  0.11788292118E+03  0.00000000000E+00 0.  1.
         11    1    3    3    0    0 -0.62316240537E+01  0.31112325341E+02  0.29580790322E+02  0.43380100076E+02  0.00000000000E+00 0. -1.
         21    1    1    2  502  501 -0.96810891007E+01  0.21752574257E+02  0.11588736980E+02  0.26480120804E+02  0.00000000000E+00 0. -1.
<scales pt_clust_5="13000.00000" pt_clust_6="13000.00000" pt_clust_7="13000.00000" pt_clust_8="13000.00000" pt_clust_9="23.80962"></scales>
<clustering>
<clus scale="   23.810">  2  9  1 -1</clus>
<clus scale="   79.892">  5  6 -1 -1</clus>
<clus scale="   84.247">  1  5  2 -1</clus>
<clus scale="   91.065">  7  8 -1 -1</clus>
<clus scale="   84.247">  1  5  2 -1</clus>
</clustering>
</event>
<event>
 9    2  0.5608219E-005  0.1550900E+03  0.7546771E-02  0.1196658E+00
         -1   -1    0    0    0  501 -0.00000000000E+00  0.00000000000E+00  0.41611891313E+03  0.41611891313E+03  0.00000000000E+00 0.  1.
          2   -1    0    0  502    0  0.00000000000E+00 -0.00000000000E+00 -0.43499792761E+03  0.43499792761E+03  0.00000000000E+00 0. -1.
         23    2    1    2    0    0 -0.10442418437E+03 -0.15604054453E+02  0.27918470579E+03  0.31238956464E+03  0.92169644433E+02 0.  0.
         24    2    1    2    0    0  0.12560986007E+03  0.18564900296E+01 -0.40373328010E+03  0.43008159392E+03  0.78665954937E+02 0.  0.
        -11    1    4    4    0    0  0.18925753415E+02  0.74093021812E+01 -0.11065615179E+02  0.23141515517E+02  0.00000000000E+00 0.  1.
         12    1    4    4    0    0  0.10668410666E+03 -0.55528121516E+01 -0.39266766492E+03  0.40694007840E+03  0.00000000000E+00 0. -1.
        -13    1    3    3    0    0 -0.27556536975E+01 -0.32132523917E+02  0.10692795901E+03  0.11168563532E+03  0.00000000000E+00 0. -1.
         13    1    3    3    0    0 -0.10166853067E+03  0.16528469464E+02  0.17225674678E+03  0.20070392932E+03  0.00000000000E+00 0.  1.
         21    1    1    2  502  501 -0.21185675705E+02  0.13747564423E+02  0.10566955983E+03  0.10864568218E+03  0.00000000000E+00 0.  1.
<scales pt_clust_5="13000.00000" pt_clust_6="13000.00000" pt_clust_7="13000.00000" pt_clust_8="13000.00000" pt_clust_9="25.25526"></scales>
<clustering>
<clus scale="   25.255">  1  9  2 -1</clus>
<clus scale="   78.666">  5  6 -1 -1</clus>
<clus scale="   92.170">  7  8 -1 -1</clus>
<clus scale="  147.465">  2  5  1 -1</clus>
<clus scale="  147.465">  2  5  1 -1</clus>
</clustering>
</event>
<event>
 9    2  0.5608219E-005  0.1066804E+03  0.7546771E-02  0.1274144E+00
         -1   -1    0    0    0  501 -0.00000000000E+00  0.00000000000E+00  0.35682285208E+03  0.35682285208E+03  0.00000000000E+00 0.  1.
          2   -1    0    0  502    0  0.00000000000E+00 -0.00000000000E+00 -0.24504086932E+03  0.24504086932E+03  0.00000000000E+00 0. -1.
         24    2    1    2    0    0 -0.87719922987E+02 -0.26102726141E+02  0.10415677748E+03  0.15925371726E+03  0.78338847097E+02 0.  0.
         23    2    1    2    0    0  0.38250387626E+02  0.24947156048E+02 -0.20177124252E+03  0.22744624645E+03  0.94523584177E+02 0.  0.
        -13    1    3    3    0    0 -0.34365230763E+02  0.15941904802E+02  0.77532596016E+02  0.86292623434E+02  0.00000000000E+00 0.  1.
         14    1    3    3    0    0 -0.53354692224E+02 -0.42044630943E+02  0.26624181467E+02  0.72961093826E+02  0.00000000000E+00 0. -1.
        -13    1    4    4    0    0  0.40248707213E+02  0.56240027306E+02 -0.10506807487E+03  0.12578632462E+03  0.00000000000E+00 0. -1.
         13    1    4    4    0    0 -0.19983195868E+01 -0.31292871257E+02 -0.96703167652E+02  0.10165992183E+03  0.00000000000E+00 0.  1.
         21    1    1    2  502  501  0.49469535361E+02  0.11555700923E+01  0.20939644780E+03  0.21516375769E+03  0.00000000000E+00 0.  1.
<scales pt_clust_5="13000.00000" pt_clust_6="13000.00000" pt_clust_7="13000.00000" pt_clust_8="13000.00000" pt_clust_9="49.48303"></scales>
<clustering>
<clus scale="   49.483">  1  9  2 -1</clus>
<clus scale="   78.339">  5  6 -1 -1</clus>
<clus scale="   92.644">  1  5  2 -1</clus>
<clus scale="   94.524">  7  8 -1 -1</clus>
<clus scale="  106.680">  2  5  1 -1</clus>
</clustering>
</event>
<event>
 9    2  0.5608219E-005  0.1368603E+03  0.7546771E-02  0.1220493E+00
         -1   -1    0    0    0  501 -0.00000000000E+00  0.00000000000E+00  0.55928224463E+03  0.55928224463E+03  0.00000000000E+00 0.  1.
          2   -1    0    0  502    0  0.00000000000E+00 -0.00000000000E+00 -0.48490689344E+02  0.48490689344E+02  0.00000000000E+00 0. -1.
         23    2    1    2    0    0  0.11292866405E+03  0.38628954573E+02  0.35419012913E+03  0.38444420751E+03  0.90009009661E+02 0.  0.
         24    2    1    2    0    0 -0.76918082597E+02 -0.70910227863E+01  0.91372555581E+02  0.14242008246E+03  0.77251938107E+02 0.  0.
        -11    1    4    4    0    0 -0.60404223444E+02 -0.10889907522E+01  0.12602997952E+02  0.61714598501E+02  0.00000000000E+00 0.  1.
         12    1    4    4    0    0 -0.16513859153E+02 -0.60020320341E+01  0.78769557629E+02  0.80705483963E+02  0.00000000000E+00 0. -1.
        -11    1    3    3    0    0  0.21440819539E+02 -0.94997507626E+01  0.10776146551E+02  0.25808512967E+02  0.00000000000E+00 0. -1.
         11    1    3    3    0    0  0.91487844506E+02  0.48128705336E+02  0.34341398258E+03  0.35863569454E+03  0.00000000000E+00 0.  1.
         21    1    1    2  502  501 -0.36010581448E+02 -0.31537931787E+02  0.65228870582E+02  0.80908644007E+02  0.00000000000E+00 0.  1.
<scales pt_clust_5="13000.00000" pt_clust_6="13000.00000" pt_clust_7="13000.00000" pt_clust_8="13000.00000" pt_clust_9="47.86860"></scales>
<clustering>
<clus scale="   47.869">  2  9  1 -1</clus>
<clus scale="   77.252">  5  6 -1 -1</clus>
<clus scale="   90.009">  7  8 -1 -1</clus>
<clus scale="  128.829">  2  5  1 -1</clus>
<clus scale="   47.869">  2  5  1 -1</clus>
</clustering>
</event>
<event>
 9    2  0.5608219E-005  0.1183399E+03  0.7546771E-02  0.1249944E+00
         -1   -1    0    0    0  501 -0.00000000000E+00  0.00000000000E+00  0.25690300270E+02  0.25690300270E+02  0.00000000000E+00 0.  1.
          2   -1    0    0  502    0  0.00000000000E+00 -0.00000000000E+00 -0.10447665243E+04  0.10447665243E+04  0.00000000000E+00 0. -1.
         23    2    1    2    0    0  0.20216189642E+01 -0.90088245501E+02 -0.20050686496E+03  0.23805976549E+03  0.91375435022E+02 0.  0.
         24    2    1    2    0    0 -0.19498409747E+02  0.70009252670E+02 -0.76591458905E+03  0.77339596608E+03  0.78959984770E+02 0.  0.
        -11    1    4    4    0    0 -0.10084675511E+02  0.38359070326E+02 -0.11505921523E+03  0.12170350022E+03  0.00000000000E+00 0.  1.
         12    1    4    4    0    0 -0.94137342358E+01  0.31650182344E+02 -0.65085537382E+03  0.65169246587E+03  0.00000000000E+00 0. -1.
        -11    1    3    3    0    0  0.30975104771E+02  0.15696624150E+01 -0.63839007086E+02  0.70974219132E+02  0.00000000000E+00 0. -1.
         11    1    3    3    0    0 -0.28953485807E+02 -0.91657907916E+02 -0.13666785788E+03  0.16708554636E+03  0.00000000000E+00 0.  1.
         21    1    1    2  502  501  0.17476790783E+02  0.20078992831E+02 -0.52654769996E+02  0.59001092977E+02  0.00000000000E+00 0.  1.
<scales pt_clust_5="13000.00000" pt_clust_6="13000.00000" pt_clust_7="13000.00000" pt_clust_8="13000.00000" pt_clust_9="26.61962"></scales>
<clustering>
<clus scale="   26.620">  1  9  2 -1</clus>
<clus scale="   78.960">  5  6 -1 -1</clus>
<clus scale="   91.375">  7  8 -1 -1</clus>
<clus scale="  109.039">  2  5  1 -1</clus>
<clus scale="  109.039">  2  5  1 -1</clus>
</clustering>
</event>
<event>
 9    2  0.5608219E-005  0.9143678E+02  0.7546771E-02  0.1305855E+00
         -1   -1    0    0    0  501 -0.00000000000E+00  0.00000000000E+00  0.23563573305E+02  0.23563573305E+02  0.00000000000E+00 0.  1.
          2   -1    0    0  502    0  0.00000000000E+00 -0.00000000000E+00 -0.72354004044E+03  0.72354004044E+03  0.00000000000E+00 0. -1.
         23    2    1    2    0    0 -0.98976542958E+01 -0.31338733570E+02 -0.17043503236E+03  0.19526799067E+03  0.89450590514E+02 0.  0.
         24    2    1    2    0    0  0.27057130493E+02 -0.30187133882E+02 -0.35626668843E+03  0.36716289171E+03  0.78989141015E+02 0.  0.
        -11    1    4    4    0    0 -0.18292950109E+02 -0.38019611803E+02 -0.14972673514E+03  0.15555776458E+03  0.00000000000E+00 0.  1.
         12    1    4    4    0    0  0.45350080602E+02  0.78324779212E+01 -0.20653995330E+03  0.21160512713E+03  0.00000000000E+00 0. -1.
        -13    1    3    3    0    0  0.88904959511E+01  0.21986652619E+02 -0.10992645345E+03  0.11245567563E+03  0.00000000000E+00 0. -1.
         13    1    3    3    0    0 -0.18788150247E+02 -0.53325386189E+02 -0.60508578903E+02  0.82812315043E+02  0.00000000000E+00 0.  1.
         21    1    1    2  502  501 -0.17159476197E+02  0.61525867452E+02 -0.17327474634E+03  0.18467273136E+03  0.00000000000E+00 0. -1.
<scales pt_clust_5="13000.00000" pt_clust_6="13000.00000" pt_clust_7="13000.00000" pt_clust_8="13000.00000" pt_clust_9="63.87394"></scales>
<clustering>
<clus scale="   63.874">  2  9  1 -1</clus>
<clus scale="   78.989">  5  6 -1 -1</clus>
<clus scale="   81.232">  2  5  1 -1</clus>
<clus scale="   89.451">  7  8 -1 -1</clus>
<clus scale="   63.874">  2  5  1 -1</clus>
</clustering>
</event>
<event>
 9    2  0.5608219E-005  0.1595882E+03  0.7546771E-02  0.1190903E+00
         -1   -1    0    0    0  501 -0.00000000000E+00  0.00000000000E+00  0.18111026286E+03  0.18111026286E+03  0.00000000000E+00 0.  1.
          2   -1    0    0  502    0  0.00000000000E+00 -0.00000000000E+00 -0.29573538465E+03  0.29573538465E+03  0.00000000000E+00 0. -1.
         23    2    1    2    0    0 -0.83114548342E+02 -0.11292361471E+03  0.69621121440E+02  0.18151036541E+03  0.91864799004E+02 0.  0.
         24    2    1    2    0    0  0.10691050350E+03  0.73578227857E+02 -0.19527244972E+03  0.24805014513E+03  0.80956367925E+02 0.  0.
        -13    1    4    4    0    0  0.26336204919E+02 -0.13264447378E+01 -0.30141796241E+01  0.26541296577E+02  0.00000000000E+00 0.  1.
         14    1    4    4    0    0  0.80574298583E+02  0.74904672595E+02 -0.19225827010E+03  0.22150884856E+03  0.00000000000E+00 0. -1.
        -13    1    3    3    0    0 -0.26545975775E+02 -0.17472769000E+02  0.62755599853E+02  0.70343811379E+02  0.00000000000E+00 0.  1.
         13    1    3    3    0    0 -0.56568572567E+02 -0.95450845706E+02  0.68655215868E+01  0.11116655403E+03  0.00000000000E+00 0. -1.
         21    1    1    2  502  501 -0.23795955161E+02  0.39345386849E+02  0.11026206498E+02  0.47285136967E+02  0.00000000000E+00 0.  1.
<scales pt_clust_5="13000.00000" pt_clust_6="13000.00000" pt_clust_7="13000.00000" pt_clust_8="13000.00000" pt_clust_9="45.98159"></scales>
<clustering>
<clus scale="   45.982">  1  9  2 -1</clus>
<clus scale="   80.956">  5  6 -1 -1</clus>
<clus scale="   91.865">  7  8 -1 -1</clus>
<clus scale="  153.568">  2  5  1 -1</clus>
<clus scale="  153.568">  2  5  1 -1</clus>
</clustering>
</event>
<event>
 9    2  0.5608219E-005  0.9517154E+02  0.7546771E-02  0.1296322E+00
          2   -1    0    0  502    0  0.00000000000E+00  0.00000000000E+00  0.13495768026E+03  0.13495768026E+03  0.00000000000E+00 0. -1.
         -1   -1    0    0    0  501 -0.00000000000E+00 -0.00000000000E+00 -0.29265359292E+03  0.29265359292E+03  0.00000000000E+00 0.  1.
         23    2    1    2    0    0 -0.46880980299E+02 -0.31162736247E+02 -0.20032277761E+03  0.22720537489E+03  0.91236641243E+02 0.  0.
         24    2    1    2    0    0  0.88145986258E+01  0.24064622334E+02  0.99799002910E+02  0.13135456960E+03  0.81470109707E+02 0.  0.
        -11    1    4    4    0    0  0.58311550599E+01 -0.30311196028E+02  0.38884635564E+02  0.49646609722E+02  0.00000000000E+00 0.  1.
         12    1    4    4    0    0  0.29834435659E+01  0.54375818362E+02  0.60914367346E+02  0.81707959877E+02  0.00000000000E+00 0. -1.
        -11    1    3    3    0    0  0.18903222946E+02 -0.30507432733E+02 -0.39085212154E+02  0.53063067183E+02  0.00000000000E+00 0.  1.
         11    1    3    3    0    0 -0.65784203246E+02 -0.65530351346E+00 -0.16123756546E+03  0.17414230771E+03  0.00000000000E+00 0. -1.
         21    1    1    2  502  501  0.38066381674E+02  0.70981139125E+01 -0.57172137955E+02  0.69051328685E+02  0.00000000000E+00 0.  1.
<scales pt_clust_5="13000.00000" pt_clust_6="13000.00000" pt_clust_7="13000.00000" pt_clust_8="13000.00000" pt_clust_9="38.72251"></scales>
<clustering>
<clus scale="   38.723">  2  9  1 -1</clus>
<clus scale="   81.470">  5  6 -1 -1</clus>
<clus scale="   85.854">  1  5  2 -1</clus>
<clus scale="   91.237">  7  8 -1 -1</clus>
<clus scale="   85.854">  1  5  2 -1</clus>
</clustering>
</event>
<event>
 9    2  0.5608219E-005  0.1689847E+03  0.7546771E-02  0.1181486E+00
         -1   -1    0    0    0  501 -0.00000000000E+00  0.00000000000E+00  0.11356771065E+03  0.11356771065E+03  0.00000000000E+00 0.  1.
          2   -1    0    0  502    0  0.00000000000E+00 -0.00000000000E+00 -0.30696326351E+03  0.30696326351E+03  0.00000000000E+00 0. -1.
         24    2    1    2    0    0 -0.46183434959E+02 -0.13776651316E+03 -0.45816996742E+02  0.17152904480E+03  0.78806688835E+02 0.  0.
         23    2    1    2    0    0  0.66421694365E+02  0.11820578605E+03 -0.14493819972E+03  0.22073214565E+03  0.96597872888E+02 0.  0.
        -13    1    3    3    0    0 -0.44534115239E+02 -0.74362259933E+02  0.97250851801E+01  0.87221616612E+02  0.00000000000E+00 0.  1.
         14    1    3    3    0    0 -0.16493197191E+01 -0.63404253229E+02 -0.55542081922E+02  0.84307428186E+02  0.00000000000E+00 0. -1.
        -13    1    4    4    0    0  0.71792344356E+02  0.93211147700E+02 -0.60079361511E+02  0.13210597429E+03  0.00000000000E+00 0.  1.
         13    1    4    4    0    0 -0.53706499905E+01  0.24994638353E+02 -0.84858838208E+02  0.88626171359E+02  0.00000000000E+00 0. -1.
         21    1    1    2  502  501 -0.20238259406E+02  0.19560727109E+02 -0.26403563971E+01  0.28269783705E+02  0.00000000000E+00 0.  1.
<scales pt_clust_5="13000.00000" pt_clust_6="13000.00000" pt_clust_7="13000.00000" pt_clust_8="13000.00000" pt_clust_9="28.14621"></scales>
<clustering>
<clus scale="   28.146">  1  9  2 -1</clus>
<clus scale="   78.807">  5  6 -1 -1</clus>
<clus scale="   96.598">  7  8 -1 -1</clus>
<clus scale="  159.484">  1  5  2 -1</clus>
<clus scale="  168.985">  2  5  1 -1</clus>
</clustering>
</event>
<event>
 9    2  0.5608219E-005  0.9439354E+02  0.7546771E-02  0.1300587E+00
         -1   -1    0    0    0  501 -0.00000000000E+00  0.00000000000E+00  0.10066272016E+03  0.10066272016E+03  0.00000000000E+00 0.  1.
          2   -1    0    0  502    0  0.00000000000E+00 -0.00000000000E+00 -0.31481251423E+03  0.31481251423E+03  0.00000000000E+00 0. -1.
         23    2    1    2    0    0 -0.39322342363E+02  0.72227909470E+01  0.53778742480E+02  0.11377966679E+03  0.91952401355E+02 0.  0.
         24    2    1    2    0    0  0.13571916465E+02 -0.15385354393E+02 -0.26168677571E+03  0.27397064281E+03  0.78479541876E+02 0.  0.
        -11    1    4    4    0    0 -0.19062386914E+02  0.18340757069E+02 -0.44478662945E+02  0.51750453352E+02  0.00000000000E+00 0.  1.
         12    1    4    4    0    0  0.32634303378E+02 -0.33726111462E+02 -0.21720811277E+03  0.22222018946E+03  0.00000000000E+00 0. -1.
        -11    1    3    3    0    0 -0.41477052740E+02  0.45555743136E+02  0.37123208216E+02  0.71929161158E+02  0.00000000000E+00 0.  1.
         11    1    3    3    0    0  0.21547103768E+01 -0.38332952189E+02  0.16655534264E+02  0.41850505635E+02  0.00000000000E+00 0. -1.
         21    1    1    2  502  501  0.25750425899E+02  0.81625634460E+01 -0.62417608413E+01  0.27724924786E+02  0.00000000000E+00 0.  1.
<scales pt_clust_5="13000.00000" pt_clust_6="13000.00000" pt_clust_7="13000.00000" pt_clust_8="13000.00000" pt_clust_9="27.01318"></scales>
<clustering>
<clus scale="   27.013">  1  9  2 -1</clus>
<clus scale="   78.480">  5  6 -1 -1</clus>
<clus scale="   81.326">  2  5  1 -1</clus>
<clus scale="   91.952">  7  8 -1 -1</clus>
<clus scale="   81.326">  2  5  1 -1</clus>
</clustering>
</event>
<event>
 9    2  0.5608219E-005  0.1613938E+03  0.7546771E-02  0.1188454E+00
         -1   -1    0    0    0  501 -0.00000000000E+00  0.00000000000E+00  0.13964000782E+03  0.13964000782E+03  0.00000000000E+00 0.  1.
          2   -1    0    0  502    0  0.00000000000E+00 -0.00000000000E+00 -0.70212106870E+03  0.70212106870E+03  0.00000000000E+00 0. -1.
         23    2    1    2    0    0 -0.66594042062E+02 -0.84123529474E+02  0.46187269422E+02  0.14757546886E+03  0.90187141558E+02 0.  0.
         24    2    1    2    0    0  0.76178645592E+02  0.11334419008E+03 -0.63443201320E+03  0.65406729529E+03  0.81547261889E+02 0.  0.
        -11    1    4    4    0    0  0.51859648183E+02  0.99031611348E+01 -0.21208322211E+03  0.21855614568E+03  0.00000000000E+00 0.  1.
         12    1    4    4    0    0  0.24318997409E+02  0.10344102895E+03 -0.42234879109E+03  0.43551114961E+03  0.00000000000E+00 0. -1.
        -11    1    3    3    0    0 -0.77408557134E+00 -0.73089763342E+02  0.19088519659E+02  0.75545246684E+02  0.00000000000E+00 0.  1.
         11    1    3    3    0    0 -0.65819956491E+02 -0.11033766132E+02  0.27098749762E+02  0.72030222172E+02  0.00000000000E+00 0. -1.
         21    1    1    2  502  501 -0.95846035300E+01 -0.29220660606E+02  0.25763682898E+02  0.40118312372E+02  0.00000000000E+00 0.  1.
<scales pt_clust_5="13000.00000" pt_clust_6="13000.00000" pt_clust_7="13000.00000" pt_clust_8="13000.00000" pt_clust_9="30.75242"></scales>
<clustering>
<clus scale="   30.752">  1  9  2 -1</clus>
<clus scale="   81.547">  5  6 -1 -1</clus>
<clus scale="   90.187">  7  8 -1 -1</clus>
<clus scale="  156.730">  2  5  1 -1</clus>
<clus scale="  156.730">  2  5  1 -1</clus>
</clustering>
</event>
<event>
 9    2  0.5608219E-005  0.1489897E+03  0.7546771E-02  0.1203984E+00
          2   -1    0    0  502    0  0.00000000000E+00  0.00000000000E+00  0.43506087556E+03  0.43506087556E+03  0.00000000000E+00 0. -1.
         -1   -1    0    0    0  501 -0.00000000000E+00 -0.00000000000E+00 -0.10896911727E+03  0.10896911727E+03  0.00000000000E+00 0.  1.
         24    2    1    2    0    0  0.13591711860E+03  0.55122667373E+02  0.82485352298E+02  0.18621758231E+03  0.79757024960E+02 0.  0.
         23    2    1    2    0    0 -0.51570414986E+02 -0.10260526766E+03  0.20790951611E+03  0.25464637112E+03  0.91820797114E+02 0.  0.
        -11    1    3    3    0    0  0.92113854961E+02  0.15474657110E+02  0.86087878766E+02  0.12702578541E+03  0.00000000000E+00 0.  1.
         12    1    3    3    0    0  0.43803263635E+02  0.39648010263E+02 -0.36025264682E+01  0.59191796896E+02  0.00000000000E+00 0. -1.
        -13    1    4    4    0    0  0.13284071685E+02 -0.54048812230E+02  0.13352494878E+03  0.14466047356E+03  0.00000000000E+00 0. -1.
         13    1    4    4    0    0 -0.64854486671E+02 -0.48556455427E+02  0.74384567327E+02  0.10998589756E+03  0.00000000000E+00 0.  1.
         21    1    1    2  502  501 -0.84346703610E+02  0.47482600283E+02  0.35696889885E+02  0.10316603941E+03  0.00000000000E+00 0.  1.
<scales pt_clust_5="13000.00000" pt_clust_6="13000.00000" pt_clust_7="13000.00000" pt_clust_8="13000.00000" pt_clust_9="96.79341"></scales>
<clustering>
<clus scale="   79.757">  5  6 -1 -1</clus>
<clus scale="   91.821">  7  8 -1 -1</clus>
<clus scale="   96.793">  2  9  1 -1</clus>
<clus scale="  141.873">  2  5  1 -1</clus>
<clus scale="  148.990">  1  5  2 -1</clus>
</clustering>
</event>
<event>
 9    2  0.5608219E-005  0.1143389E+03  0.7546771E-02  0.1256215E+00
          2   -1    0    0  502    0  0.00000000000E+00  0.00000000000E+00  0.73990798066E+03  0.73990798066E+03  0.00000000000E+00 0. -1.
         -1   -1    0    0    0  501 -0.00000000000E+00 -0.00000000000E+00 -0.34339083661E+02  0.34339083661E+02  0.00000000000E+00 0.  1.
         23    2    1    2    0    0  0.53267319263E+02  0.16016335048E+02  0.24560639332E+03  0.26770055595E+03  0.90813858679E+02 0.  0.
         24    2    1    2    0    0 -0.79149738001E+02  0.94450669854E+00  0.46185778265E+03  0.47554389824E+03  0.81017372447E+02 0.  0.
        -13    1    4    4    0    0 -0.45089527622E+01  0.23310345813E+02  0.39720470942E+02  0.46275465300E+02  0.00000000000E+00 0.  1.
         14    1    4    4    0    0 -0.74640785239E+02 -0.22365839114E+02  0.42213731171E+03  0.42926843294E+03  0.00000000000E+00 0. -1.
        -11    1    3    3    0    0 -0.66344286912E+01  0.31635908428E+02  0.15253184749E+03  0.15591924462E+03  0.00000000000E+00 0. -1.
         11    1    3    3    0    0  0.59901747954E+02 -0.15619573380E+02  0.93074545831E+02  0.11178131133E+03  0.00000000000E+00 0.  1.
         21    1    1    2  502  501  0.25882418738E+02 -0.16960841747E+02 -0.18952789707E+01  0.31002610130E+02  0.00000000000E+00 0.  1.
<scales pt_clust_5="13000.00000" pt_clust_6="13000.00000" pt_clust_7="13000.00000" pt_clust_8="13000.00000" pt_clust_9="30.94462"></scales>
<clustering>
<clus scale="   30.945">  2  9  1 -1</clus>
<clus scale="   81.017">  5  6 -1 -1</clus>
<clus scale="   90.814">  7  8 -1 -1</clus>
<clus scale="  106.724">  1  5  2 -1</clus>
<clus scale="  106.724">  1  5  2 -1</clus>
</clustering>
</event>
<event>
 9    2  0.5608219E-005  0.1421626E+03  0.7546771E-02  0.1214185E+00
         -1   -1    0    0    0  501 -0.00000000000E+00  0.00000000000E+00  0.38479113475E+03  0.38479113475E+03  0.00000000000E+00 0.  1.
          2   -1    0    0  502    0  0.00000000000E+00 -0.00000000000E+00 -0.24827957551E+03  0.24827957551E+03  0.00000000000E+00 0. -1.
         23    2    1    2    0    0  0.10179949201E+03  0.55301314530E+02  0.14949357119E+03  0.21144820718E+03  0.94554981517E+02 0.  0.
         24    2    1    2    0    0 -0.10216530956E+03 -0.26085000435E+02 -0.19638045724E+03  0.23591112333E+03  0.77269634405E+02 0.  0.
        -11    1    4    4    0    0 -0.22548075754E+02  0.25593005325E+02 -0.69875601180E+02  0.77756139835E+02  0.00000000000E+00 0.  1.
         12    1    4    4    0    0 -0.79617233809E+02 -0.51678005760E+02 -0.12650485606E+03  0.15815498350E+03  0.00000000000E+00 0. -1.
        -13    1    3    3    0    0  0.80439954233E+02  0.24236795094E+02  0.15199319123E+03  0.17366617015E+03  0.00000000000E+00 0.  1.
         13    1    3    3    0    0  0.21359537780E+02  0.31064519436E+02 -0.24996200404E+01  0.37782037032E+02  0.00000000000E+00 0. -1.
         21    1    1    2  502  501  0.36581754918E+00 -0.29216314095E+02  0.18339844530E+03  0.18571137975E+03  0.00000000000E+00 0.  1.
<scales pt_clust_5="13000.00000" pt_clust_6="13000.00000" pt_clust_7="13000.00000" pt_clust_8="13000.00000" pt_clust_9="29.21860"></scales>
<clustering>
<clus scale="   29.219">  1  9  2 -1</clus>
<clus scale="   77.270">  5  6 -1 -1</clus>
<clus scale="   94.555">  7  8 -1 -1</clus>
<clus scale="  131.302">  2  5  1 -1</clus>
<clus scale="  131.302">  2  5  1 -1</clus>
</clustering>
</event>
<event>
 9    2  0.5608219E-005  0.9949749E+02  0.7546771E-02  0.1288819E+00
          2   -1    0    0  502    0  0.00000000000E+00  0.00000000000E+00  0.45955237672E+03  0.45955237672E+03  0.00000000000E+00 0. -1.
         -1   -1    0    0    0  501 -0.00000000000E+00 -0.00000000000E+00 -0.11972473678E+03  0.11972473678E+03  0.00000000000E+00 0.  1.
         23    2    1    2    0    0 -0.19430220500E+01 -0.15930541389E+00  0.67453967456E+02  0.11160735812E+03  0.88895241429E+02 0.  0.
         24    2    1    2    0    0  0.51497417648E+02 -0.22792497957E+02  0.35591789330E+03  0.36785963448E+03  0.73970818035E+02 0.  0.
        -13    1    4    4    0    0  0.45993977448E+02  0.39800898195E+01  0.96161649852E+02  0.10666934882E+03  0.00000000000E+00 0.  1.
         14    1    4    4    0    0  0.55034402006E+01 -0.26772587776E+02  0.25975624345E+03  0.26119028565E+03  0.00000000000E+00 0. -1.
        -13    1    3    3    0    0  0.24947721371E+02 -0.29198422358E+02  0.60144727020E+02  0.71360527311E+02  0.00000000000E+00 0. -1.
         13    1    3    3    0    0 -0.26890743421E+02  0.29039116944E+02  0.73092404364E+01  0.40246830812E+02  0.00000000000E+00 0.  1.
         21    1    1    2  502  501 -0.49554395598E+02  0.22951803371E+02 -0.83544220819E+02  0.99810120896E+02  0.00000000000E+00 0.  1.
<scales pt_clust_5="13000.00000" pt_clust_6="13000.00000" pt_clust_7="13000.00000" pt_clust_8="13000.00000" pt_clust_9="54.61157"></scales>
<clustering>
<clus scale="   54.612">  2  9  1 -1</clus>
<clus scale="   73.971">  5  6 -1 -1</clus>
<clus scale="   86.424">  1  5  2 -1</clus>
<clus scale="   88.895">  7  8 -1 -1</clus>
<clus scale="   86.424">  1  5  2 -1</clus>
</clustering>
</event>
<event>
 9    2  0.5608219E-005  0.1813535E+03  0.7546771E-02  0.1167209E+00
          2   -1    0    0  502    0  0.00000000000E+00  0.00000000000E+00  0.53614572511E+03  0.53614572511E+03  0.00000000000E+00 0. -1.
         -1   -1    0    0    0  501 -0.00000000000E+00 -0.00000000000E+00 -0.23622474802E+03  0.23622474802E+03  0.00000000000E+00 0.  1.
         23    2    1    2    0    0 -0.30737969775E+02  0.10361631125E+03 -0.85565417783E+02  0.16514836989E+03  0.90947130868E+02 0.  0.
         24    2    1    2    0    0  0.11528142794E+03 -0.11890614036E+03  0.45826711185E+03  0.49462366651E+03  0.84943203545E+02 0.  0.
        -13    1    4    4    0    0  0.31847232302E+02 -0.76604838479E+02  0.13841591108E+03  0.16137382664E+03  0.00000000000E+00 0.  1.
         14    1    4    4    0    0  0.83434195635E+02 -0.42301301877E+02  0.31985120077E+03  0.33324983987E+03  0.00000000000E+00 0. -1.
        -13    1    3    3    0    0 -0.10752052666E+02  0.55152058599E+02  0.91137786634E+01  0.56924662192E+02  0.00000000000E+00 0. -1.
         13    1    3    3    0    0 -0.19985917109E+02  0.48464252656E+02 -0.94679196446E+02  0.10822370770E+03  0.00000000000E+00 0.  1.
         21    1    1    2  502  501 -0.84543458162E+02  0.15289829101E+02 -0.72780716968E+02  0.11259843673E+03  0.00000000000E+00 0.  1.
<scales pt_clust_5="13000.00000" pt_clust_6="13000.00000" pt_clust_7="13000.00000" pt_clust_8="13000.00000" pt_clust_9="85.91493"></scales>
<clustering>
<clus scale="   84.943">  5  6 -1 -1</clus>
<clus scale="   85.915">  2  9  1 -1</clus>
<clus scale="   90.947">  7  8 -1 -1</clus>
<clus scale="  178.418">  1  5  2 -1</clus>
<clus scale="  178.418">  1  5  2 -1</clus>
</clustering>
</event>
<event>
 9    2  0.5608219E-005  0.9877368E+02  0.7546771E-02  0.1289476E+00
         -1   -1    0    0    0  501 -0.00000000000E+00  0.00000000000E+00  0.13501415154E+03  0.13501415154E+03  0.00000000000E+00 0.  1.
          2   -1    0    0  502    0  0.00000000000E+00 -0.00000000000E+00 -0.61939512693E+03  0.61939512693E+03  0.00000000000E+00 0. -1.
         23    2    1    2    0    0  0.18913294234E+02 -0.93977214383E+00 -0.69890195321E+02  0.11619274414E+03  0.90870889285E+02 0.  0.
         24    2    1    2    0    0  0.35601302891E+02 -0.32275952407E+02 -0.51282780512E+03  0.52097619932E+03  0.78196244694E+02 0.  0.
        -11    1    4    4    0    0 -0.16121888601E+02 -0.36449848729E+02 -0.21576530161E+03  0.21941552394E+03  0.00000000000E+00 0.  1.
         12    1    4    4    0    0  0.51723191492E+02  0.41738963220E+01 -0.29706250350E+03  0.30156067538E+03  0.00000000000E+00 0. -1.
        -11    1    3    3    0    0  0.47306884171E+01  0.26771604081E+02  0.11146378365E+02  0.29382647066E+02  0.00000000000E+00 0.  1.
         11    1    3    3    0    0  0.14182605817E+02 -0.27711376224E+02 -0.81036573686E+02  0.86810097078E+02  0.00000000000E+00 0. -1.
         21    1    1    2  502  501 -0.54514597125E+02  0.33215724551E+02  0.98337025051E+02  0.11724033501E+03  0.00000000000E+00 0.  1.
<scales pt_clust_5="13000.00000" pt_clust_6="13000.00000" pt_clust_7="13000.00000" pt_clust_8="13000.00000" pt_clust_9="63.83671"></scales>
<clustering>
<clus scale="   63.837">  1  9  2 -1</clus>
<clus scale="   78.196">  5  6 -1 -1</clus>
<clus scale="   87.255">  2  5  1 -1</clus>
<clus scale="   90.871">  7  8 -1 -1</clus>
<clus scale="   87.255">  2  5  1 -1</clus>
</clustering>
</event>
<event>
 9    2  0.5608219E-005  0.9159023E+02  0.7546771E-02  0.1305745E+00
          2   -1    0    0  502    0  0.00000000000E+00  0.00000000000E+00  0.44591206953E+03  0.44591206953E+03  0.00000000000E+00 0. -1.
         -1   -1    0    0    0  501 -0.00000000000E+00 -0.00000000000E+00 -0.10467424116E+03  0.10467424116E+03  0.00000000000E+00 0.  1.
         23    2    1    2    0    0 -0.40054839049E+02 -0.36504703328E+02  0.57831269181E+02  0.12077470796E+03  0.91132271404E+02 0.  0.
         24    2    1    2    0    0 -0.15192704579E+02 -0.11965920494E+02  0.33170020720E+03  0.34186861616E+03  0.80468141094E+02 0.  0.
        -11    1    4    4    0    0 -0.10746580161E+02 -0.44063997098E+02  0.24802552896E+03  0.25213842992E+03  0.00000000000E+00 0.  1.
         12    1    4    4    0    0 -0.44461244183E+01  0.32098076604E+02  0.83674678238E+02  0.89730186238E+02  0.00000000000E+00 0. -1.
        -11    1    3    3    0    0 -0.18791309303E+02  0.22578195191E+02  0.49323627894E+02  0.57408261357E+02  0.00000000000E+00 0. -1.
         11    1    3    3    0    0 -0.21263529746E+02 -0.59082898520E+02  0.85076412865E+01  0.63366446602E+02  0.00000000000E+00 0.  1.
         21    1    1    2  502  501  0.55247543629E+02  0.48470623822E+02 -0.48293648010E+02  0.87942986581E+02  0.00000000000E+00 0.  1.
<scales pt_clust_5="13000.00000" pt_clust_6="13000.00000" pt_clust_7="13000.00000" pt_clust_8="13000.00000" pt_clust_9="73.49621"></scales>
<clustering>
<clus scale="   73.496">  2  9  1 -1</clus>
<clus scale="   80.468">  5  6 -1 -1</clus>
<clus scale="   80.986">  1  5  2 -1</clus>
<clus scale="   91.132">  7  8 -1 -1</clus>
<clus scale="   80.986">  1  5  2 -1</clus>
</clustering>
</event>
<event>
 9    2  0.5608219E-005  0.1877639E+03  0.7546771E-02  0.1184195E+00
         -1   -1    0    0    0  501 -0.00000000000E+00  0.00000000000E+00  0.12089125007E+03  0.12089125007E+03  0.00000000000E+00 0.  1.
          2   -1    0    0  502    0  0.00000000000E+00 -0.00000000000E+00 -0.70730447835E+03  0.70730447835E+03  0.00000000000E+00 0. -1.
         24    2    1    2    0    0 -0.18883785982E+03 -0.57969408899E+01 -0.14964561297E+03  0.25400527886E+03  0.80196822762E+02 0.  0.
         23    2    1    2    0    0  0.36500653648E+02 -0.51945241367E+02 -0.38947152820E+03  0.40455052546E+03  0.89120427243E+02 0.  0.
        -11    1    3    3    0    0 -0.42927572079E+02 -0.94246686043E+01  0.13876780618E+01  0.43971882758E+02  0.00000000000E+00 0.  1.
         12    1    3    3    0    0 -0.14591028774E+03  0.36277277144E+01 -0.15103329103E+03  0.21003339610E+03  0.00000000000E+00 0. -1.
        -11    1    4    4    0    0 -0.29317477700E+02 -0.11897383144E+02 -0.13580351015E+03  0.13944050916E+03  0.00000000000E+00 0.  1.
         11    1    4    4    0    0  0.65818131348E+02 -0.40047858223E+02 -0.25366801805E+03  0.26511001630E+03  0.00000000000E+00 0. -1.
         21    1    1    2  502  501  0.15233720617E+03  0.57742182256E+02 -0.47296087114E+02  0.16963992411E+03  0.00000000000E+00 0. -1.
<scales pt_clust_5="13000.00000" pt_clust_6="13000.00000" pt_clust_7="13000.00000" pt_clust_8="13000.00000" pt_clust_9="169.77564"></scales>
<clustering>
<clus scale="   80.197">  5  6 -1 -1</clus>
<clus scale="   89.120">  7  8 -1 -1</clus>
<clus scale="  109.421">  2  7  1 -1</clus>
<clus scale="  169.776">  1  9  2 -1</clus>
<clus scale="  109.421">  2  5  1 -1</clus>
</clustering>
</event>
<event>
 9    2  0.5608219E-005  0.1506224E+03  0.7546771E-02  0.1200130E+00
         -1   -1    0    0    0  501 -0.00000000000E+00  0.00000000000E+00  0.20082462785E+03  0.20082462785E+03  0.00000000000E+00 0.  1.
          2   -1    0    0  502    0  0.00000000000E+00 -0.00000000000E+00 -0.38692027798E+03  0.38692027798E+03  0.00000000000E+00 0. -1.
         23    2    1    2    0    0 -0.98523101079E+02 -0.11835378289E+02  0.13892176677E+03  0.19433211394E+03  0.92837684164E+02 0.  0.
         24    2    1    2    0    0  0.11743400340E+03 -0.19570638129E+02 -0.32250318552E+03  0.35666661584E+03  0.95021130051E+02 0.  0.
        -11    1    4    4    0    0  0.56742010550E+01 -0.27746237518E+02 -0.21729122568E+02  0.35696008483E+02  0.00000000000E+00 0.  1.
         12    1    4    4    0    0  0.11175980235E+03  0.81755993888E+01 -0.30077406295E+03  0.32097060736E+03  0.00000000000E+00 0. -1.
        -11    1    3    3    0    0 -0.37807949416E+02  0.20656142981E+02  0.45239805869E+01  0.43319553116E+02  0.00000000000E+00 0. -1.
         11    1    3    3    0    0 -0.60715151664E+02 -0.32491521270E+02  0.13439778618E+03  0.15101256083E+03  0.00000000000E+00 0.  1.
         21    1    1    2  502  501 -0.18910902325E+02  0.31406016419E+02 -0.25142313850E+01  0.36746176039E+02  0.00000000000E+00 0.  1.
<scales pt_clust_5="13000.00000" pt_clust_6="13000.00000" pt_clust_7="13000.00000" pt_clust_8="13000.00000" pt_clust_9="36.66006"></scales>
<clustering>
<clus scale="   36.660">  1  9  2 -1</clus>
<clus scale="   92.838">  7  8 -1 -1</clus>
<clus scale="   95.021">  5  6 -1 -1</clus>
<clus scale="  149.255">  1  7  2 -1</clus>
<clus scale="  150.622">  2  5  1 -1</clus>
</clustering>
</event>
<event>
 9    2  0.5608219E-005  0.9230399E+02  0.7546771E-02  0.1300818E+00
         -1   -1    0    0    0  501 -0.00000000000E+00  0.00000000000E+00  0.16281956722E+03  0.16281956722E+03  0.00000000000E+00 0.  1.
          2   -1    0    0  502    0  0.00000000000E+00 -0.00000000000E+00 -0.16001266165E+03  0.16001266165E+03  0.00000000000E+00 0. -1.
         24    2    1    2    0    0  0.36309515748E+02 -0.15258331340E+02  0.11190132477E+03  0.14338893524E+03  0.80543669249E+02 0.  0.
         23    2    1    2    0    0 -0.15276498430E+02  0.27922709969E+02 -0.12097590670E+03  0.15216795590E+03  0.86642181781E+02 0.  0.
        -13    1    3    3    0    0  0.29451343124E+02 -0.43695751870E+02  0.97396830327E+02  0.11073772122E+03  0.00000000000E+00 0.  1.
         14    1    3    3    0    0  0.68581726240E+01  0.28437420530E+02  0.14504494440E+02  0.32651214022E+02  0.00000000000E+00 0. -1.
        -13    1    4    4    0    0  0.35662118017E+02  0.37552079375E+01 -0.44305091481E+02  0.56998503307E+02  0.00000000000E+00 0.  1.
         13    1    4    4    0    0 -0.50938616447E+02  0.24167502032E+02 -0.76670815216E+02  0.95169452588E+02  0.00000000000E+00 0. -1.
         21    1    1    2  502  501 -0.21033017318E+02 -0.12664378629E+02  0.11881487502E+02  0.27275337740E+02  0.00000000000E+00 0.  1.
<scales pt_clust_5="13000.00000" pt_clust_6="13000.00000" pt_clust_7="13000.00000" pt_clust_8="13000.00000" pt_clust_9="24.55146"></scales>
<clustering>
<clus scale="   24.551">  1  9  2 -1</clus>
<clus scale="   80.544">  5  6 -1 -1</clus>
<clus scale="   86.605">  1  5  2 -1</clus>
<clus scale="   86.642">  7  8 -1 -1</clus>
<clus scale="   92.304">  2  5  1 -1</clus>
</clustering>
</event>
<event>
 9    2  0.5608219E-005  0.9363902E+02  0.7546771E-02  0.1297117E+00
         -1   -1    0    0    0  501 -0.00000000000E+00  0.00000000000E+00  0.25647085070E+02  0.25647085070E+02  0.00000000000E+00 0.  1.
          2   -1    0    0  502    0  0.00000000000E+00 -0.00000000000E+00 -0.53585286136E+03  0.53585286136E+03  0.00000000000E+00 0. -1.
         23    2    1    2    0    0  0.32362422325E+02 -0.35246394648E+02 -0.12063837634E+03  0.15566127530E+03  0.85948706020E+02 0.  0.
         24    2    1    2    0    0 -0.32629960195E+02  0.12388965090E+02 -0.34122033787E+03  0.35235996440E+03  0.80672329676E+02 0.  0.
        -11    1    4    4    0    0 -0.51537658502E+02  0.31759722521E+02 -0.24863174445E+03  0.25589559310E+03  0.00000000000E+00 0.  1.
         12    1    4    4    0    0  0.18907698307E+02 -0.19370757430E+02 -0.92588593414E+02  0.96464371293E+02  0.00000000000E+00 0. -1.
        -11    1    3    3    0    0 -0.25702379508E+02 -0.15363504364E+02 -0.69848947886E+02  0.75996875591E+02  0.00000000000E+00 0.  1.
         11    1    3    3    0    0  0.58064801832E+02 -0.19882890283E+02 -0.50789428457E+02  0.79664399708E+02  0.00000000000E+00 0. -1.
         21    1    1    2  502  501  0.26753787048E+00  0.22857429557E+02 -0.48347062078E+02  0.53478706735E+02  0.00000000000E+00 0.  1.
<scales pt_clust_5="13000.00000" pt_clust_6="13000.00000" pt_clust_7="13000.00000" pt_clust_8="13000.00000" pt_clust_9="22.85900"></scales>
<clustering>
<clus scale="   22.859">  1  9  2 -1</clus>
<clus scale="   80.672">  5  6 -1 -1</clus>
<clus scale="   85.949">  7  8 -1 -1</clus>
<clus scale="   88.821">  2  5  1 -1</clus>
<clus scale="   88.821">  2  5  1 -1</clus>
</clustering>
</event>
<event>
 9    2  0.5608219E-005  0.1359490E+03  0.7546771E-02  0.1223995E+00
          2   -1    0    0  502    0  0.00000000000E+00  0.00000000000E+00  0.20045963833E+03  0.20045963833E+03  0.00000000000E+00 0. -1.
         -1   -1    0    0    0  501 -0.00000000000E+00 -0.00000000000E+00 -0.18339726161E+03  0.18339726161E+03  0.00000000000E+00 0.  1.
         24    2    1    2    0    0  0.76415651918E+02  0.41994069086E+01 -0.42269308174E+02  0.11876505262E+03  0.80383185026E+02 0.  0.
         23    2    1    2    0    0 -0.97423210171E+02 -0.90562414711E+01  0.13010296646E+03  0.19110887197E+03  0.10011254505E+03 0.  0.
        -13    1    3    3    0    0  0.10067978843E+02  0.35445258086E+02 -0.74981692993E+01  0.37602567221E+02  0.00000000000E+00 0.  1.
         14    1    3    3    0    0  0.66347673075E+02 -0.31245851177E+02 -0.34771138874E+02  0.81162485403E+02  0.00000000000E+00 0. -1.
        -11    1    4    4    0    0 -0.48887333181E+02  0.29136844190E+02  0.11379178759E+03  0.12723009847E+03  0.00000000000E+00 0. -1.
         11    1    4    4    0    0 -0.48535876990E+02 -0.38193085661E+02  0.16311178868E+02  0.63878773498E+02  0.00000000000E+00 0.  1.
         21    1    1    2  502  501  0.21007558254E+02  0.48568345626E+01 -0.70771281566E+02  0.73982975341E+02  0.00000000000E+00 0.  1.
<scales pt_clust_5="13000.00000" pt_clust_6="13000.00000" pt_clust_7="13000.00000" pt_clust_8="13000.00000" pt_clust_9="21.56169"></scales>
<clustering>
<clus scale="   21.562">  2  9  1 -1</clus>
<clus scale="   80.383">  5  6 -1 -1</clus>
<clus scale="  100.113">  7  8 -1 -1</clus>
<clus scale="  122.152">  2  5  1 -1</clus>
<clus scale="  135.949">  1  5  2 -1</clus>
</clustering>
</event>
<event>
 9    2  0.5608219E-005  0.9140674E+02  0.7546771E-02  0.1301937E+00
          2   -1    0    0  502    0  0.00000000000E+00  0.00000000000E+00  0.76586251324E+03  0.76586251324E+03  0.00000000000E+00 0. -1.
         -1   -1    0    0    0  501 -0.00000000000E+00 -0.00000000000E+00 -0.12727658740E+03  0.12727658740E+03  0.00000000000E+00 0.  1.
         23    2    1    2    0    0 -0.23519333700E+02  0.52724034876E+02 -0.15166905884E+02  0.10787075582E+03  0.89850331195E+02 0.  0.
         24    2    1    2    0    0  0.12566835405E+02 -0.87838495922E+01  0.70871908358E+03  0.71405046824E+03  0.85733601372E+02 0.  0.
        -13    1    4    4    0    0  0.15594322243E+02 -0.41922230514E+02  0.23867751564E+03  0.24283247882E+03  0.00000000000E+00 0.  1.
         14    1    4    4    0    0 -0.30274868378E+01  0.33138380921E+02  0.47004156794E+03  0.47121798942E+03  0.00000000000E+00 0. -1.
        -11    1    3    3    0    0  0.50129600269E+01 -0.22197154170E+02 -0.15790431608E+02  0.27698035162E+02  0.00000000000E+00 0. -1.
         11    1    3    3    0    0 -0.28532293727E+02  0.74921189046E+02  0.62352572403E+00  0.80172720658E+02  0.00000000000E+00 0.  1.
         21    1    1    2  502  501  0.10952498295E+02 -0.43940185284E+02 -0.54966251855E+02  0.71217876581E+02  0.00000000000E+00 0.  1.
<scales pt_clust_5="13000.00000" pt_clust_6="13000.00000" pt_clust_7="13000.00000" pt_clust_8="13000.00000" pt_clust_9="45.28462"></scales>
<clustering>
<clus scale="   45.285">  2  9  1 -1</clus>
<clus scale="   85.734">  5  6 -1 -1</clus>
<clus scale="   87.363">  1  5  2 -1</clus>
<clus scale="   89.850">  7  8 -1 -1</clus>
<clus scale="   87.363">  1  5  2 -1</clus>
</clustering>
</event>
<event>
 9    2  0.5608219E-005  0.1075370E+03  0.7546771E-02  0.1269507E+00
         -1   -1    0    0    0  501 -0.00000000000E+00  0.00000000000E+00  0.27407384751E+03  0.27407384751E+03  0.00000000000E+00 0.  1.
          2   -1    0    0  502    0  0.00000000000E+00 -0.00000000000E+00 -0.31413281865E+03  0.31413281865E+03  0.00000000000E+00 0. -1.
         24    2    1    2    0    0 -0.31839733906E+02 -0.84599276441E+02  0.96215287251E+02  0.15479819214E+03  0.80834971138E+02 0.  0.
         23    2    1    2    0    0 -0.10081649281E+02  0.54303471551E+02 -0.26986143005E+03  0.29015774768E+03  0.91191120399E+02 0.  0.
        -13    1    3    3    0    0 -0.53130736580E+02 -0.72435273659E+02  0.94243500349E+02  0.13019823884E+03  0.00000000000E+00 0.  1.
         14    1    3    3    0    0  0.21291002674E+02 -0.12164002782E+02  0.19717869014E+01  0.24599953295E+02  0.00000000000E+00 0. -1.
        -13    1    4    4    0    0 -0.23159351820E+02 -0.13815490828E+02 -0.29411624787E+02  0.39903220874E+02  0.00000000000E+00 0.  1.
         13    1    4    4    0    0  0.13077702539E+02  0.68118962379E+02 -0.24044980526E+03  0.25025452681E+03  0.00000000000E+00 0. -1.
         21    1    1    2  502  501  0.41921383187E+02  0.30295804890E+02  0.13358717166E+03  0.14325072633E+03  0.00000000000E+00 0. -1.
<scales pt_clust_5="13000.00000" pt_clust_6="13000.00000" pt_clust_7="13000.00000" pt_clust_8="13000.00000" pt_clust_9="51.72270"></scales>
<clustering>
<clus scale="   51.723">  1  9  2 -1</clus>
<clus scale="   80.835">  5  6 -1 -1</clus>
<clus scale="   91.191">  7  8 -1 -1</clus>
<clus scale="   98.907">  1  5  2 -1</clus>
<clus scale="  107.537">  2  5  1 -1</clus>
</clustering>
</event>
<event>
 9    2  0.5608219E-005  0.1027881E+03  0.7546771E-02  0.1279500E+00
          2   -1    0    0  502    0  0.00000000000E+00  0.00000000000E+00  0.55169578117E+03  0.55169578117E+03  0.00000000000E+00 0. -1.
         -1   -1    0    0    0  501 -0.00000000000E+00 -0.00000000000E+00 -0.40979261236E+02  0.40979261236E+02  0.00000000000E+00 0.  1.
         23    2    1    2    0    0 -0.20087649409E+02  0.48465035619E+02  0.18434531763E+03  0.21217522019E+03  0.91009640120E+02 0.  0.
         24    2    1    2    0    0  0.37899244504E+02 -0.29131601158E+02  0.33876918416E+03  0.35143533252E+03  0.80356890692E+02 0.  0.
        -11    1    4    4    0    0  0.83927863425E+01  0.26262307184E+02  0.65780728612E+02  0.71324973873E+02  0.00000000000E+00 0.  1.
         12    1    4    4    0    0  0.29506458162E+02 -0.55393908343E+02  0.27298845555E+03  0.28011035864E+03  0.00000000000E+00 0. -1.
        -11    1    3    3    0    0  0.20786269680E+02  0.51544085546E+02  0.62583704574E+02  0.83699353881E+02  0.00000000000E+00 0. -1.
         11    1    3    3    0    0 -0.40873919088E+02 -0.30790499273E+01  0.12176161305E+03  0.12847586631E+03  0.00000000000E+00 0.  1.
         21    1    1    2  502  501 -0.17811595096E+02 -0.19333434461E+02 -0.12397981852E+02  0.29064489707E+02  0.00000000000E+00 0.  1.
<scales pt_clust_5="13000.00000" pt_clust_6="13000.00000" pt_clust_7="13000.00000" pt_clust_8="13000.00000" pt_clust_9="26.28754"></scales>
<clustering>
<clus scale="   26.288">  2  9  1 -1</clus>
<clus scale="   80.357">  5  6 -1 -1</clus>
<clus scale="   91.010">  7  8 -1 -1</clus>
<clus scale="   93.487">  1  5  2 -1</clus>
<clus scale="   93.487">  1  5  2 -1</clus>
</clustering>
</event>
<event>
 9    2  0.5608219E-005  0.1020331E+03  0.7546771E-02  0.1279189E+00
          2   -1    0    0  502    0  0.00000000000E+00  0.00000000000E+00  0.14592700093E+03  0.14592700093E+03  0.00000000000E+00 0. -1.
         -1   -1    0    0    0  501 -0.00000000000E+00 -0.00000000000E+00 -0.16237889833E+03  0.16237889833E+03  0.00000000000E+00 0.  1.
         23    2    1    2    0    0  0.91247978308E+01 -0.15989992627E+02 -0.30336725967E+02  0.94784174075E+02  0.87890732805E+02 0.  0.
         24    2    1    2    0    0 -0.33268842790E+02  0.56366668658E+02  0.80748478354E+02  0.13176624503E+03  0.80981537004E+02 0.  0.
        -13    1    4    4    0    0  0.20635368809E+02 -0.42086167010E+01  0.27985386399E+02  0.35024459344E+02  0.00000000000E+00 0.  1.
         14    1    4    4    0    0 -0.53904211598E+02  0.60575285359E+02  0.52763091955E+02  0.96741785682E+02  0.00000000000E+00 0. -1.
        -13    1    3    3    0    0 -0.37260979511E+02 -0.77218460414E+01  0.12261900218E+01  0.38072444660E+02  0.00000000000E+00 0.  1.
         13    1    3    3    0    0  0.46385777342E+02 -0.82681465852E+01 -0.31562915988E+02  0.56711729415E+02  0.00000000000E+00 0. -1.
         21    1    1    2  502  501  0.24144044959E+02 -0.40376676032E+02 -0.66863649780E+02  0.81755480160E+02  0.00000000000E+00 0.  1.
<scales pt_clust_5="13000.00000" pt_clust_6="13000.00000" pt_clust_7="13000.00000" pt_clust_8="13000.00000" pt_clust_9="47.04478"></scales>
<clustering>
<clus scale="   47.045">  2  9  1 -1</clus>
<clus scale="   80.982">  5  6 -1 -1</clus>
<clus scale="   87.891">  7  8 -1 -1</clus>
<clus scale="   96.146">  1  5  2 -1</clus>
<clus scale="   96.146">  1  5  2 -1</clus>
</clustering>
</event>
<event>
 9    2  0.5608219E-005  0.9641307E+02  0.7546771E-02  0.1294186E+00
         -3   -1    0    0    0  501 -0.00000000000E+00  0.00000000000E+00  0.40159760038E+02  0.40159760038E+02  0.00000000000E+00 0.  1.
          4   -1    0    0  502    0  0.00000000000E+00 -0.00000000000E+00 -0.39696705069E+03  0.39696705069E+03  0.00000000000E+00 0. -1.
         24    2    1    2    0    0 -0.14711802126E+02 -0.49745609819E+02 -0.61573355925E+02  0.11298666020E+03  0.79269441811E+02 0.  0.
         23    2    1    2    0    0  0.68894538777E+01  0.26607656112E+02 -0.27951675084E+03  0.29509563464E+03  0.90533903296E+02 0.  0.
        -11    1    3    3    0    0 -0.74321177770E+01 -0.71090835737E+02 -0.52455853653E+02  0.88660926472E+02  0.00000000000E+00 0.  1.
         12    1    3    3    0    0 -0.72796843491E+01  0.21345225918E+02 -0.91175022727E+01  0.24325733728E+02  0.00000000000E+00 0. -1.
        -13    1    4    4    0    0 -0.26391411663E+02  0.45479384787E+02 -0.20084706135E+03  0.20761604732E+03  0.00000000000E+00 0. -1.
         13    1    4    4    0    0  0.33280865540E+02 -0.18871728675E+02 -0.78669689491E+02  0.87479587327E+02  0.00000000000E+00 0.  1.
         21    1    1    2  502  501  0.78223482484E+01  0.23137953707E+02 -0.15717183890E+02  0.29044515890E+02  0.00000000000E+00 0. -1.
<scales pt_clust_5="13000.00000" pt_clust_6="13000.00000" pt_clust_7="13000.00000" pt_clust_8="13000.00000" pt_clust_9="24.42446"></scales>
<clustering>
<clus scale="   24.424">  1  9  2 -1</clus>
<clus scale="   79.269">  5  6 -1 -1</clus>
<clus scale="   85.923">  1  5  2 -1</clus>
<clus scale="   90.534">  7  8 -1 -1</clus>
<clus scale="   96.413">  2  5  1 -1</clus>
</clustering>
</event>
<event>
 9    2  0.5608219E-005  0.1469112E+03  0.7546771E-02  0.1206694E+00
          2   -1    0    0  502    0  0.00000000000E+00  0.00000000000E+00  0.34734368698E+03  0.34734368698E+03  0.00000000000E+00 0. -1.
         -1   -1    0    0    0  501 -0.00000000000E+00 -0.00000000000E+00 -0.16443270571E+03  0.16443270571E+03  0.00000000000E+00 0.  1.
         24    2    1    2    0    0 -0.14186122131E+03 -0.26346091399E+02 -0.22241802638E+02  0.16630715678E+03  0.79653311101E+02 0.  0.
         23    2    1    2    0    0  0.10906038362E+03 -0.74703673953E+01  0.24512641762E+03  0.28368461620E+03  0.91869620593E+02 0.  0.
        -11    1    3    3    0    0 -0.14171843401E+03 -0.13821457738E+02 -0.36832649831E+02  0.14707750108E+03  0.00000000000E+00 0.  1.
         12    1    3    3    0    0 -0.14278730306E+00 -0.12524633662E+02  0.14590847192E+02  0.19229655701E+02  0.00000000000E+00 0. -1.
        -11    1    4    4    0    0  0.32543165176E+02 -0.39697470389E+02  0.50135331477E+02  0.71753036293E+02  0.00000000000E+00 0.  1.
         11    1    4    4    0    0  0.76517218444E+02  0.32227102993E+02  0.19499108615E+03  0.21193157991E+03  0.00000000000E+00 0. -1.
         21    1    1    2  502  501  0.32800837689E+02  0.33816458795E+02 -0.39973633717E+02  0.61784619697E+02  0.00000000000E+00 0. -1.
<scales pt_clust_5="13000.00000" pt_clust_6="13000.00000" pt_clust_7="13000.00000" pt_clust_8="13000.00000" pt_clust_9="47.11102"></scales>
<clustering>
<clus scale="   47.111">  2  9  1 -1</clus>
<clus scale="   79.653">  5  6 -1 -1</clus>
<clus scale="   91.870">  7  8 -1 -1</clus>
<clus scale="  139.598">  2  5  1 -1</clus>
<clus scale="  146.911">  1  5  2 -1</clus>
</clustering>
</event>
<event>
 9    2  0.5608219E-005  0.9242661E+02  0.7546771E-02  0.1298800E+00
          2   -1    0    0  502    0  0.00000000000E+00  0.00000000000E+00  0.57839624084E+02  0.57839624084E+02  0.00000000000E+00 0. -1.
         -1   -1    0    0    0  501 -0.00000000000E+00 -0.00000000000E+00 -0.26449752199E+03  0.26449752199E+03  0.00000000000E+00 0.  1.
         24    2    1    2    0    0  0.65654082859E+02  0.24104586715E+02 -0.10324554342E+03  0.14413782735E+03  0.72281265470E+02 0.  0.
         23    2    1    2    0    0 -0.45011732353E+02 -0.68880303132E+01 -0.20175070125E+02  0.90729541344E+02  0.75837426162E+02 0.  0.
        -11    1    3    3    0    0  0.33394543550E+02  0.11419271842E+02 -0.10362653252E+03  0.10947170206E+03  0.00000000000E+00 0.  1.
         12    1    3    3    0    0  0.32259539308E+02  0.12685314873E+02  0.38098909896E+00  0.34666125288E+02  0.00000000000E+00 0. -1.
        -13    1    4    4    0    0 -0.59550348409E+02 -0.24304440801E+02 -0.21979248980E+02  0.67970855696E+02  0.00000000000E+00 0. -1.
         13    1    4    4    0    0  0.14538616056E+02  0.17416410487E+02  0.18041788559E+01  0.22758685648E+02  0.00000000000E+00 0.  1.
         21    1    1    2  502  501 -0.20642350505E+02 -0.17216556402E+02 -0.83237284357E+02  0.87469777385E+02  0.00000000000E+00 0.  1.
<scales pt_clust_5="13000.00000" pt_clust_6="13000.00000" pt_clust_7="13000.00000" pt_clust_8="13000.00000" pt_clust_9="26.87967"></scales>
<clustering>
<clus scale="   26.880">  2  9  1 -1</clus>
<clus scale="   72.281">  5  6 -1 -1</clus>
<clus scale="   75.837">  7  8 -1 -1</clus>
<clus scale="   89.532">  2  5  1 -1</clus>
<clus scale="   92.427">  1  5  2 -1</clus>
</clustering>
</event>
<event>
 9    2  0.5608219E-005  0.2784380E+03  0.7546771E-02  0.1097011E+00
         -1   -1    0    0    0  501 -0.00000000000E+00  0.00000000000E+00  0.14960758187E+03  0.14960758187E+03  0.00000000000E+00 0.  1.
          2   -1    0    0  502    0  0.00000000000E+00 -0.00000000000E+00 -0.93917807100E+03  0.93917807100E+03  0.00000000000E+00 0. -1.
         23    2    1    2    0    0 -0.22117395996E+03  0.15600760445E+03 -0.10736933295E+03  0.30514431268E+03  0.91261079844E+02 0.  0.
         24    2    1    2    0    0  0.20273880490E+03 -0.16471268555E+03 -0.70315554106E+03  0.75440575186E+03  0.80417857039E+02 0.  0.
        -11    1    4    4    0    0  0.67450060438E+02 -0.11411824923E+02 -0.15820663830E+03  0.17236322347E+03  0.00000000000E+00 0.  1.
         12    1    4    4    0    0  0.13528874446E+03 -0.15330086063E+03 -0.54494890276E+03  0.58204252840E+03  0.00000000000E+00 0. -1.
        -13    1    3    3    0    0 -0.17211756413E+03  0.14342691470E+03 -0.51789842479E+02  0.22995200266E+03  0.00000000000E+00 0.  1.
         13    1    3    3    0    0 -0.49056395830E+02  0.12580689753E+02 -0.55579490466E+02  0.75192310026E+02  0.00000000000E+00 0. -1.
         21    1    1    2  502  501  0.18435155060E+02  0.87050811003E+01  0.20954384880E+02  0.29235588326E+02  0.00000000000E+00 0. -1.
<scales pt_clust_5="13000.00000" pt_clust_6="13000.00000" pt_clust_7="13000.00000" pt_clust_8="13000.00000" pt_clust_9="20.38709"></scales>
<clustering>
<clus scale="   20.387">  1  9  2 -1</clus>
<clus scale="   80.418">  5  6 -1 -1</clus>
<clus scale="   91.261">  7  8 -1 -1</clus>
<clus scale="  275.075">  2  5  1 -1</clus>
<clus scale="  275.075">  2  5  1 -1</clus>
</clustering>
</event>
<event>
 9    2  0.5608219E-005  0.1511825E+03  0.7546771E-02  0.1200468E+00
          2   -1    0    0  502    0  0.00000000000E+00  0.00000000000E+00  0.35701909681E+03  0.35701909681E+03  0.00000000000E+00 0. -1.
         -1   -1    0    0    0  501 -0.00000000000E+00 -0.00000000000E+00 -0.33019586714E+03  0.33019586714E+03  0.00000000000E+00 0.  1.
         23    2    1    2    0    0  0.10167576375E+01  0.11680911197E+03 -0.19086030090E+03  0.24075222743E+03  0.88817667827E+02 0.  0.
         24    2    1    2    0    0 -0.33083143127E+02 -0.11851843661E+03  0.31301795983E+03  0.34586537934E+03  0.80631899889E+02 0.  0.
        -13    1    4    4    0    0 -0.50503315481E+02 -0.94008146116E+02  0.17798979413E+03  0.20752947556E+03  0.00000000000E+00 0.  1.
         14    1    4    4    0    0  0.17420172354E+02 -0.24510290490E+02  0.13502816570E+03  0.13833590379E+03  0.00000000000E+00 0. -1.
        -11    1    3    3    0    0 -0.33726360040E+02  0.40472850241E+02 -0.11962579726E+03  0.13071285453E+03  0.00000000000E+00 0.  1.
         11    1    3    3    0    0  0.34743117678E+02  0.76336261725E+02 -0.71234503639E+02  0.11003937290E+03  0.00000000000E+00 0. -1.
         21    1    1    2  502  501  0.32066385489E+02  0.17093246411E+01 -0.95334429259E+02  0.10059735718E+03  0.00000000000E+00 0. -1.
<scales pt_clust_5="13000.00000" pt_clust_6="13000.00000" pt_clust_7="13000.00000" pt_clust_8="13000.00000" pt_clust_9="32.11191"></scales>
<clustering>
<clus scale="   32.112">  2  9  1 -1</clus>
<clus scale="   80.632">  5  6 -1 -1</clus>
<clus scale="   88.818">  7  8 -1 -1</clus>
<clus scale="  146.523">  1  5  2 -1</clus>
<clus scale="  146.523">  1  5  2 -1</clus>
</clustering>
</event>
<event>
 9    2  0.5608219E-005  0.1004078E+03  0.7546771E-02  0.1282803E+00
         -1   -1    0    0    0  501 -0.00000000000E+00  0.00000000000E+00  0.10204038855E+03  0.10204038855E+03  0.00000000000E+00 0.  1.
          2   -1    0    0  502    0  0.00000000000E+00 -0.00000000000E+00 -0.12841245652E+03  0.12841245652E+03  0.00000000000E+00 0. -1.
         23    2    1    2    0    0  0.50880957612E+01 -0.36691129546E+02  0.19864671770E+02  0.98369170439E+02  0.88936836027E+02 0.  0.
         24    2    1    2    0    0 -0.27215434781E+02  0.45077342584E+02 -0.47667160604E+02  0.10837726611E+03  0.81858578684E+02 0.  0.
        -11    1    4    4    0    0 -0.45638106234E+02  0.21518462530E+02  0.18935145068E+01  0.50492240666E+02  0.00000000000E+00 0.  1.
         12    1    4    4    0    0  0.18422671454E+02  0.23558880053E+02 -0.49560675111E+02  0.57885025441E+02  0.00000000000E+00 0. -1.
        -11    1    3    3    0    0 -0.21470174692E+02 -0.12994798915E+02  0.47222436729E+02  0.53477020586E+02  0.00000000000E+00 0.  1.
         11    1    3    3    0    0  0.26558270453E+02 -0.23696330631E+02 -0.27357764959E+02  0.44892149853E+02  0.00000000000E+00 0. -1.
         21    1    1    2  502  501  0.22127339019E+02 -0.83862130378E+01  0.14304208704E+01  0.23706408523E+02  0.00000000000E+00 0.  1.
<scales pt_clust_5="13000.00000" pt_clust_6="13000.00000" pt_clust_7="13000.00000" pt_clust_8="13000.00000" pt_clust_9="23.66321"></scales>
<clustering>
<clus scale="   23.663">  1  9  2 -1</clus>
<clus scale="   81.859">  5  6 -1 -1</clus>
<clus scale="   88.937">  7  8 -1 -1</clus>
<clus scale="   94.196">  2  5  1 -1</clus>
<clus scale="   94.196">  2  5  1 -1</clus>
</clustering>
</event>
<event>
 9    2  0.5608219E-005  0.1237242E+03  0.7546771E-02  0.1238689E+00
         -1   -1    0    0    0  501 -0.00000000000E+00  0.00000000000E+00  0.30929131510E+02  0.30929131510E+02  0.00000000000E+00 0.  1.
          2   -1    0    0  502    0  0.00000000000E+00 -0.00000000000E+00 -0.76746188710E+03  0.76746188710E+03  0.00000000000E+00 0. -1.
         24    2    1    2    0    0  0.45186277437E+02 -0.50719895927E+02 -0.20128219311E+03  0.22874426214E+03  0.84823986501E+02 0.  0.
         23    2    1    2    0    0 -0.81848760057E+02  0.50052346256E+02 -0.50557539353E+03  0.52247474245E+03  0.90382083789E+02 0.  0.
        -13    1    3    3    0    0  0.43029309158E+02 -0.56789328281E+02 -0.79358196250E+02  0.10665023472E+03  0.00000000000E+00 0.  1.
         14    1    3    3    0    0  0.21569682796E+01  0.60694323542E+01 -0.12192399686E+03  0.12209402742E+03  0.00000000000E+00 0. -1.
        -11    1    4    4    0    0 -0.39601850534E+02  0.72249957062E+02 -0.35868854910E+03  0.36802967016E+03  0.00000000000E+00 0.  1.
         11    1    4    4    0    0 -0.42246909523E+02 -0.22197610805E+02 -0.14688684443E+03  0.15444507229E+03  0.00000000000E+00 0. -1.
         21    1    1    2  502  501  0.36662482620E+02  0.66754967041E+00 -0.29675168948E+02  0.47172014018E+02  0.00000000000E+00 0.  1.
<scales pt_clust_5="13000.00000" pt_clust_6="13000.00000" pt_clust_7="13000.00000" pt_clust_8="13000.00000" pt_clust_9="36.66856"></scales>
<clustering>
<clus scale="   36.669">  1  9  2 -1</clus>
<clus scale="   84.824">  5  6 -1 -1</clus>
<clus scale="   90.382">  7  8 -1 -1</clus>
<clus scale="  119.724">  1  5  2 -1</clus>
<clus scale="  123.724">  2  5  1 -1</clus>
</clustering>
</event>
<event>
 9    2  0.5608219E-005  0.9192435E+02  0.7546771E-02  0.1304809E+00
         -1   -1    0    0    0  501 -0.00000000000E+00  0.00000000000E+00  0.20772755352E+03  0.20772755352E+03  0.00000000000E+00 0.  1.
          2   -1    0    0  502    0  0.00000000000E+00 -0.00000000000E+00 -0.84485560262E+02  0.84485560262E+02  0.00000000000E+00 0. -1.
         23    2    1    2    0    0  0.18014530936E+02  0.11714252125E+02  0.15967537271E+03  0.18458344969E+03  0.90072627479E+02 0.  0.
         24    2    1    2    0    0  0.30451389925E+01 -0.10862102359E+02 -0.29368986838E+02  0.85400370355E+02  0.79394129064E+02 0.  0.
        -11    1    4    4    0    0  0.10388003387E+02  0.30734460971E+02  0.24236828444E+01  0.32532936297E+02  0.00000000000E+00 0.  1.
         12    1    4    4    0    0 -0.73428643947E+01 -0.41596563330E+02 -0.31792669682E+02  0.52867434058E+02  0.00000000000E+00 0. -1.
        -13    1    3    3    0    0  0.47796007540E+02  0.30303083485E+02  0.85689888649E+02  0.10269124706E+03  0.00000000000E+00 0.  1.
         13    1    3    3    0    0 -0.29781476603E+02 -0.18588831360E+02  0.73985484063E+02  0.81892202633E+02  0.00000000000E+00 0. -1.
         21    1    1    2  502  501 -0.21059669929E+02 -0.85214976602E+00 -0.70643926205E+01  0.22229293732E+02  0.00000000000E+00 0. -1.
<scales pt_clust_5="13000.00000" pt_clust_6="13000.00000" pt_clust_7="13000.00000" pt_clust_8="13000.00000" pt_clust_9="21.07690"></scales>
<clustering>
<clus scale="   21.077">  2  9  1 -1</clus>
<clus scale="   79.394">  5  6 -1 -1</clus>
<clus scale="   81.489">  2  5  1 -1</clus>
<clus scale="   90.073">  7  8 -1 -1</clus>
<clus scale="   21.077">  2  5  1 -1</clus>
</clustering>
</event>
<event>
 9    2  0.5608219E-005  0.8987096E+02  0.7546771E-02  0.1308964E+00
          4   -1    0    0  502    0  0.00000000000E+00  0.00000000000E+00  0.23437078503E+03  0.23437078503E+03  0.00000000000E+00 0. -1.
         -3   -1    0    0    0  501 -0.00000000000E+00 -0.00000000000E+00 -0.21528215718E+03  0.21528215718E+03  0.00000000000E+00 0.  1.
         24    2    1    2    0    0 -0.53422562694E+01 -0.21896912333E+02 -0.17600470117E+03  0.19462666158E+03  0.79961666394E+02 0.  0.
         23    2    1    2    0    0 -0.12593232780E+02  0.93057855808E+00  0.20643927831E+03  0.22519342148E+03  0.89081120126E+02 0.  0.
        -11    1    3    3    0    0  0.14551958082E+02  0.17309194946E+02 -0.12612819682E+03  0.12813933724E+03  0.00000000000E+00 0.  1.
         12    1    3    3    0    0 -0.19894214352E+02 -0.39206107279E+02 -0.49876504350E+02  0.66487324347E+02  0.00000000000E+00 0. -1.
        -11    1    4    4    0    0  0.15587840070E+02 -0.35058659761E+02  0.13529732251E+03  0.14063234287E+03  0.00000000000E+00 0.  1.
         11    1    4    4    0    0 -0.28181072850E+02  0.35989238320E+02  0.71141955798E+02  0.84561078615E+02  0.00000000000E+00 0. -1.
         21    1    1    2  502  501  0.17935489049E+02  0.20966333775E+02 -0.11345949286E+02  0.29832859142E+02  0.00000000000E+00 0. -1.
<scales pt_clust_5="13000.00000" pt_clust_6="13000.00000" pt_clust_7="13000.00000" pt_clust_8="13000.00000" pt_clust_9="27.59110"></scales>
<clustering>
<clus scale="   27.591">  2  9  1 -1</clus>
<clus scale="   79.962">  5  6 -1 -1</clus>
<clus scale="   80.841">  2  5  1 -1</clus>
<clus scale="   89.081">  7  8 -1 -1</clus>
<clus scale="   89.871">  1  5  2 -1</clus>
</clustering>
</event>
<event>
 9    2  0.5608219E-005  0.9333113E+02  0.7546771E-02  0.1301091E+00
         -1   -1    0    0    0  501 -0.00000000000E+00  0.00000000000E+00  0.14462385917E+03  0.14462385917E+03  0.00000000000E+00 0.  1.
          2   -1    0    0  502    0  0.00000000000E+00 -0.00000000000E+00 -0.24329391005E+03  0.24329391005E+03  0.00000000000E+00 0. -1.
         23    2    1    2    0    0  0.31943973399E+02 -0.22005242952E+02 -0.78134570259E+02  0.12581567437E+03  0.90663800350E+02 0.  0.
         24    2    1    2    0    0 -0.11190680680E+02  0.81836260758E+01 -0.12800738454E+03  0.15177555051E+03  0.80359966194E+02 0.  0.
        -11    1    4    4    0    0 -0.25423536185E+02  0.37472507635E+02 -0.51209956627E+02  0.68359378861E+02  0.00000000000E+00 0.  1.
         12    1    4    4    0    0  0.14232855505E+02 -0.29288881559E+02 -0.76797427914E+02  0.83416171651E+02  0.00000000000E+00 0. -1.
        -13    1    3    3    0    0  0.49602135272E+02 -0.41791955807E+02 -0.74928891191E+02  0.99102361873E+02  0.00000000000E+00 0. -1.
         13    1    3    3    0    0 -0.17658161873E+02  0.19786712855E+02 -0.32056790684E+01  0.26713312498E+02  0.00000000000E+00 0.  1.
         21    1    1    2  502  501 -0.20753292719E+02  0.13821616876E+02  0.10747190392E+03  0.11032654433E+03  0.00000000000E+00 0.  1.
<scales pt_clust_5="13000.00000" pt_clust_6="13000.00000" pt_clust_7="13000.00000" pt_clust_8="13000.00000" pt_clust_9="24.93464"></scales>
<clustering>
<clus scale="   24.935">  1  9  2 -1</clus>
<clus scale="   80.360">  5  6 -1 -1</clus>
<clus scale="   83.358">  2  5  1 -1</clus>
<clus scale="   90.664">  7  8 -1 -1</clus>
<clus scale="   83.358">  2  5  1 -1</clus>
</clustering>
</event>
<event>
 9    2  0.5608219E-005  0.9674626E+02  0.7546771E-02  0.1291472E+00
          2   -1    0    0  502    0  0.00000000000E+00  0.00000000000E+00  0.50062618767E+03  0.50062618767E+03  0.00000000000E+00 0. -1.
         -1   -1    0    0    0  501 -0.00000000000E+00 -0.00000000000E+00 -0.70577125929E+02  0.70577125929E+02  0.00000000000E+00 0.  1.
         23    2    1    2    0    0 -0.61136100061E+02 -0.39741009360E+02  0.10220830112E+03  0.15490507235E+03  0.90730777948E+02 0.  0.
         24    2    1    2    0    0  0.25564579700E+02  0.59108666364E+01  0.35129113120E+03  0.36189482684E+03  0.82909111416E+02 0.  0.
        -13    1    4    4    0    0  0.12630067541E+02  0.15749884473E+02  0.14851232343E+02  0.25062652874E+02  0.00000000000E+00 0.  1.
         14    1    4    4    0    0  0.12934512159E+02 -0.98390178367E+01  0.33643989886E+03  0.33683217397E+03  0.00000000000E+00 0. -1.
        -11    1    3    3    0    0 -0.68266189462E+02  0.74508022343E+01  0.59929790085E+02  0.91144757486E+02  0.00000000000E+00 0.  1.
         11    1    3    3    0    0  0.71300894013E+01 -0.47191811595E+02  0.42278511035E+02  0.63760314866E+02  0.00000000000E+00 0. -1.
         21    1    1    2  502  501  0.35571520361E+02  0.33830142724E+02 -0.23450370586E+02  0.54403414398E+02  0.00000000000E+00 0. -1.
<scales pt_clust_5="13000.00000" pt_clust_6="13000.00000" pt_clust_7="13000.00000" pt_clust_8="13000.00000" pt_clust_9="49.08983"></scales>
<clustering>
<clus scale="   49.090">  2  9  1 -1</clus>
<clus scale="   82.909">  5  6 -1 -1</clus>
<clus scale="   89.452">  1  5  2 -1</clus>
<clus scale="   90.731">  7  8 -1 -1</clus>
<clus scale="   89.452">  1  5  2 -1</clus>
</clustering>
</event>
<event>
 9    2  0.5608219E-005  0.9800020E+02  0.7546771E-02  0.1290601E+00
          2   -1    0    0  502    0  0.00000000000E+00  0.00000000000E+00  0.21365458340E+03  0.21365458340E+03  0.00000000000E+00 0. -1.
         -1   -1    0    0    0  501 -0.00000000000E+00 -0.00000000000E+00 -0.12652042021E+03  0.12652042021E+03  0.00000000000E+00 0.  1.
         24    2    1    2    0    0 -0.45235172973E+02 -0.62586316107E+02 -0.50645213761E+01  0.11131545187E+03  0.80013827627E+02 0.  0.
         23    2    1    2    0    0  0.25361991628E+02  0.77033171192E+01  0.12866384246E+03  0.16003517629E+03  0.91401868569E+02 0.  0.
        -11    1    3    3    0    0 -0.52782012470E+02 -0.66457281372E+02 -0.25972224700E+02  0.88752845271E+02  0.00000000000E+00 0.  1.
         12    1    3    3    0    0  0.75468394969E+01  0.38709652660E+01  0.20907703324E+02  0.22562606604E+02  0.00000000000E+00 0. -1.
        -13    1    4    4    0    0  0.58705529489E+02 -0.28649803947E+01  0.66873987496E+02  0.89031890403E+02  0.00000000000E+00 0.  1.
         13    1    4    4    0    0 -0.33343537861E+02  0.10568297514E+02  0.61789854967E+02  0.71003285883E+02  0.00000000000E+00 0. -1.
         21    1    1    2  502  501  0.19873181345E+02  0.54882998987E+02 -0.36465157895E+02  0.68824375442E+02  0.00000000000E+00 0.  1.
<scales pt_clust_5="13000.00000" pt_clust_6="13000.00000" pt_clust_7="13000.00000" pt_clust_8="13000.00000" pt_clust_9="58.37026"></scales>
<clustering>
<clus scale="   58.370">  2  9  1 -1</clus>
<clus scale="   80.014">  5  6 -1 -1</clus>
<clus scale="   87.475">  2  5  1 -1</clus>
<clus scale="   91.402">  7  8 -1 -1</clus>
<clus scale="   98.000">  1  5  2 -1</clus>
</clustering>
</event>
<event>
 9    2  0.5608219E-005  0.1014049E+03  0.7546771E-02  0.1282396E+00
          2   -1    0    0  502    0  0.00000000000E+00  0.00000000000E+00  0.81420477051E+03  0.81420477051E+03  0.00000000000E+00 0. -1.
         -1   -1    0    0    0  501 -0.00000000000E+00 -0.00000000000E+00 -0.58229539345E+02  0.58229539345E+02  0.00000000000E+00 0.  1.
         23    2    1    2    0    0  0.33530223364E+02 -0.26714534296E+02 -0.37524560554E+01  0.10074360820E+03  0.91089249889E+02 0.  0.
         24    2    1    2    0    0 -0.58926672296E+02  0.34711936089E+02  0.66232279869E+03  0.67071223680E+03  0.80660670217E+02 0.  0.
        -11    1    4    4    0    0 -0.17265924087E+02  0.38620913716E+02  0.12919739219E+03  0.13594724440E+03  0.00000000000E+00 0.  1.
         12    1    4    4    0    0 -0.41660748209E+02 -0.39089776276E+01  0.53312540649E+03  0.53476499240E+03  0.00000000000E+00 0. -1.
        -11    1    3    3    0    0  0.57972284868E+02 -0.23046794341E+02  0.20940772268E+02  0.65806204004E+02  0.00000000000E+00 0. -1.
         11    1    3    3    0    0 -0.24442061505E+02 -0.36677399554E+01 -0.24693228323E+02  0.34937404197E+02  0.00000000000E+00 0.  1.
         21    1    1    2  502  501  0.25396448932E+02 -0.79974017921E+01  0.97404888535E+02  0.10097846485E+03  0.00000000000E+00 0.  1.
<scales pt_clust_5="13000.00000" pt_clust_6="13000.00000" pt_clust_7="13000.00000" pt_clust_8="13000.00000" pt_clust_9="26.62589"></scales>
<clustering>
<clus scale="   26.626">  1  9  2 -1</clus>
<clus scale="   80.661">  5  6 -1 -1</clus>
<clus scale="   91.089">  7  8 -1 -1</clus>
<clus scale="   92.151">  1  5  2 -1</clus>
<clus scale="   26.626">  1  5  2 -1</clus>
</clustering>
</event>
<event>
 9    2  0.5608219E-005  0.1143631E+03  0.7546771E-02  0.1255912E+00
         -1   -1    0    0    0  501 -0.00000000000E+00  0.00000000000E+00  0.11891706342E+03  0.11891706342E+03  0.00000000000E+00 0.  1.
          2   -1    0    0  502    0  0.00000000000E+00 -0.00000000000E+00 -0.16806668133E+03  0.16806668133E+03  0.00000000000E+00 0. -1.
         23    2    1    2    0    0  0.50610454903E+02 -0.60680541930E+02  0.14780237826E+02  0.12457623938E+03  0.95169520717E+02 0.  0.
         24    2    1    2    0    0 -0.44474238294E+02  0.11717859304E+02 -0.54580667976E+02  0.11218395754E+03  0.86550129488E+02 0.  0.
        -11    1    4    4    0    0 -0.26132734219E+02 -0.11736763337E+02 -0.72138116929E+02  0.77618163631E+02  0.00000000000E+00 0.  1.
         12    1    4    4    0    0 -0.18341504075E+02  0.23454622641E+02  0.17557448952E+02  0.34565793911E+02  0.00000000000E+00 0. -1.
        -11    1    3    3    0    0  0.77940540556E+02 -0.51181579678E+02  0.19499163450E+02  0.95260166575E+02  0.00000000000E+00 0.  1.
         11    1    3    3    0    0 -0.27330085654E+02 -0.94989622522E+01 -0.47189256239E+01  0.29316072806E+02  0.00000000000E+00 0. -1.
         21    1    1    2  502  501 -0.61362166086E+01  0.48962682626E+02 -0.93491877639E+01  0.50223547824E+02  0.00000000000E+00 0. -1.
<scales pt_clust_5="13000.00000" pt_clust_6="13000.00000" pt_clust_7="13000.00000" pt_clust_8="13000.00000" pt_clust_9="49.34569"></scales>
<clustering>
<clus scale="   49.346">  2  9  1 -1</clus>
<clus scale="   86.550">  5  6 -1 -1</clus>
<clus scale="   95.170">  7  8 -1 -1</clus>
<clus scale="  107.297">  2  5  1 -1</clus>
<clus scale="   49.346">  2  5  1 -1</clus>
</clustering>
</event>
<event>
 9    2  0.5608219E-005  0.1083900E+03  0.7546771E-02  0.1266912E+00
         -1   -1    0    0    0  501 -0.00000000000E+00  0.00000000000E+00  0.27520684474E+03  0.27520684474E+03  0.00000000000E+00 0.  1.
          2   -1    0    0  502    0  0.00000000000E+00 -0.00000000000E+00 -0.17488887964E+03  0.17488887964E+03  0.00000000000E+00 0. -1.
         24    2    1    2    0    0  0.25238178123E+02  0.61589620456E+02  0.19710700665E+03  0.22401974853E+03  0.83086874287E+02 0.  0.
         23    2    1    2    0    0 -0.62379333025E+02  0.21163881085E+02 -0.42283906641E+02  0.12025340200E+03  0.91289982361E+02 0.  0.
        -13    1    3    3    0    0  0.15186539955E+02  0.80513528729E+02  0.13086151463E+03  0.15439493293E+03  0.00000000000E+00 0.  1.
         14    1    3    3    0    0  0.10051638168E+02 -0.18923908273E+02  0.66245492018E+02  0.69624815597E+02  0.00000000000E+00 0. -1.
        -13    1    4    4    0    0 -0.92947556216E+01 -0.34450585714E+02 -0.12692096250E+02  0.37872478732E+02  0.00000000000E+00 0. -1.
         13    1    4    4    0    0 -0.53084577403E+02  0.55614466799E+02 -0.29591810391E+02  0.82380923263E+02  0.00000000000E+00 0.  1.
         21    1    1    2  502  501  0.37141154901E+02 -0.82753501542E+02 -0.54505134911E+02  0.10582257385E+03  0.00000000000E+00 0. -1.
<scales pt_clust_5="13000.00000" pt_clust_6="13000.00000" pt_clust_7="13000.00000" pt_clust_8="13000.00000" pt_clust_9="90.70616"></scales>
<clustering>
<clus scale="   83.087">  5  6 -1 -1</clus>
<clus scale="   90.706">  2  9  1 -1</clus>
<clus scale="   91.290">  7  8 -1 -1</clus>
<clus scale="  101.577">  1  5  2 -1</clus>
<clus scale="   90.706">  2  5  1 -1</clus>
</clustering>
</event>
<event>
 9    2  0.5608219E-005  0.1670385E+03  0.7546771E-02  0.1182827E+00
         -1   -1    0    0    0  501 -0.00000000000E+00  0.00000000000E+00  0.80936250166E+02  0.80936250166E+02  0.00000000000E+00 0.  1.
          2   -1    0    0  502    0  0.00000000000E+00 -0.00000000000E+00 -0.59998734978E+03  0.59998734978E+03  0.00000000000E+00 0. -1.
         23    2    1    2    0    0  0.10868205266E+03 -0.91556072556E+02 -0.44955531109E+02  0.17548423320E+03  0.92625122582E+02 0.  0.
         24    2    1    2    0    0 -0.84997183199E+02  0.95490524071E+02 -0.42174380828E+03  0.44784457749E+03  0.79711758410E+02 0.  0.
        -13    1    4    4    0    0 -0.48756609396E+02  0.18598945398E+02 -0.78721756340E+02  0.94447036221E+02  0.00000000000E+00 0.  1.
         14    1    4    4    0    0 -0.36240573803E+02  0.76891578673E+02 -0.34302205194E+03  0.35339754127E+03  0.00000000000E+00 0. -1.
        -13    1    3    3    0    0  0.95968656940E+02 -0.10893512079E+03 -0.49671821004E+02  0.15344097712E+03  0.00000000000E+00 0.  1.
         13    1    3    3    0    0  0.12713395719E+02  0.17379048239E+02  0.47162898942E+01  0.22043256084E+02  0.00000000000E+00 0. -1.
         21    1    1    2  502  501 -0.23684869461E+02 -0.39344515152E+01 -0.52351760223E+02  0.57594789248E+02  0.00000000000E+00 0.  1.
<scales pt_clust_5="13000.00000" pt_clust_6="13000.00000" pt_clust_7="13000.00000" pt_clust_8="13000.00000" pt_clust_9="24.00943"></scales>
<clustering>
<clus scale="   24.009">  2  9  1 -1</clus>
<clus scale="   79.712">  5  6 -1 -1</clus>
<clus scale="   92.625">  7  8 -1 -1</clus>
<clus scale="  160.239">  2  5  1 -1</clus>
<clus scale="   24.009">  2  5  1 -1</clus>
</clustering>
</event>
<event>
 9    2  0.5608219E-005  0.1501031E+03  0.7546771E-02  0.1201937E+00
         -1   -1    0    0    0  501 -0.00000000000E+00  0.00000000000E+00  0.16219689057E+03  0.16219689057E+03  0.00000000000E+00 0.  1.
          2   -1    0    0  502    0  0.00000000000E+00 -0.00000000000E+00 -0.28351050091E+03  0.28351050091E+03  0.00000000000E+00 0. -1.
         24    2    1    2    0    0  0.27156952253E+02 -0.10060918747E+03  0.51008919457E+02  0.14293109252E+03  0.83472622377E+02 0.  0.
         23    2    1    2    0    0 -0.41436483400E+02  0.11512381747E+03 -0.21003900246E+03  0.25991475670E+03  0.92026206536E+02 0.  0.
        -13    1    3    3    0    0  0.40205140634E+02 -0.49658216375E+02  0.62187599826E+02  0.89161030496E+02  0.00000000000E+00 0.  1.
         14    1    3    3    0    0 -0.13048188381E+02 -0.50950971096E+02 -0.11178680369E+02  0.53770062028E+02  0.00000000000E+00 0. -1.
        -13    1    4    4    0    0  0.92071368239E+01  0.25780434396E+02 -0.14489650203E+01  0.27413530706E+02  0.00000000000E+00 0.  1.
         13    1    4    4    0    0 -0.50643620224E+02  0.89343383077E+02 -0.20859003744E+03  0.23250122600E+03  0.00000000000E+00 0. -1.
         21    1    1    2  502  501  0.14279531147E+02 -0.14514630002E+02  0.37716472670E+02  0.42861542256E+02  0.00000000000E+00 0.  1.
<scales pt_clust_5="13000.00000" pt_clust_6="13000.00000" pt_clust_7="13000.00000" pt_clust_8="13000.00000" pt_clust_9="20.36123"></scales>
<clustering>
<clus scale="   20.361">  1  9  2 -1</clus>
<clus scale="   83.473">  5  6 -1 -1</clus>
<clus scale="   92.026">  7  8 -1 -1</clus>
<clus scale="  145.016">  1  5  2 -1</clus>
<clus scale="  150.103">  2  5  1 -1</clus>
</clustering>
</event>
<event>
 9    2  0.5608219E-005  0.1243586E+03  0.7546771E-02  0.1248928E+00
          2   -1    0    0  502    0  0.00000000000E+00  0.00000000000E+00  0.69618301131E+02  0.69618301131E+02  0.00000000000E+00 0. -1.
         -1   -1    0    0    0  501 -0.00000000000E+00 -0.00000000000E+00 -0.60543674798E+03  0.60543674798E+03  0.00000000000E+00 0.  1.
         23    2    1    2    0    0  0.18627426631E+02  0.26017904609E+02 -0.26808104228E+03  0.28471447161E+03  0.90393432983E+02 0.  0.
         24    2    1    2    0    0  0.87376623197E+02 -0.13022556450E+02 -0.23866640007E+02  0.12411006186E+03  0.83841694235E+02 0.  0.
        -13    1    4    4    0    0  0.92636797703E+02 -0.66594413028E+01 -0.43688052603E+02  0.10263805526E+03  0.00000000000E+00 0.  1.
         14    1    4    4    0    0 -0.52601745060E+01 -0.63631151467E+01  0.19821412597E+02  0.21472006602E+02  0.00000000000E+00 0. -1.
        -11    1    3    3    0    0 -0.24422279032E+02  0.12601139068E+02 -0.23947623577E+02  0.36451681633E+02  0.00000000000E+00 0.  1.
         11    1    3    3    0    0  0.43049705663E+02  0.13416765541E+02 -0.24413341871E+03  0.24826278997E+03  0.00000000000E+00 0. -1.
         21    1    1    2  502  501 -0.10600404983E+03 -0.12995348159E+02 -0.24387076456E+03  0.26623051564E+03  0.00000000000E+00 0.  1.
<scales pt_clust_5="13000.00000" pt_clust_6="13000.00000" pt_clust_7="13000.00000" pt_clust_8="13000.00000" pt_clust_9="91.84568"></scales>
<clustering>
<clus scale="   83.842">  5  6 -1 -1</clus>
<clus scale="   90.393">  7  8 -1 -1</clus>
<clus scale="   95.890">  2  7  1 -1</clus>
<clus scale="   91.846">  2  9  1 -1</clus>
<clus scale="  124.359">  1  5  2 -1</clus>
</clustering>
</event>
<event>
 9    2  0.5608219E-005  0.1493747E+03  0.7546771E-02  0.1203418E+00
          2   -1    0    0  502    0  0.00000000000E+00  0.00000000000E+00  0.74353272465E+03  0.74353272465E+03  0.00000000000E+00 0. -1.
         -1   -1    0    0    0  501 -0.00000000000E+00 -0.00000000000E+00 -0.36716614058E+02  0.36716614058E+02  0.00000000000E+00 0.  1.
         23    2    1    2    0    0  0.25254082357E+02 -0.11426590392E+03  0.24795767462E+03  0.28987897698E+03  0.94086914176E+02 0.  0.
         24    2    1    2    0    0 -0.49280314296E+02  0.10552523823E+03  0.42186481914E+03  0.44540163099E+03  0.82756038929E+02 0.  0.
        -11    1    4    4    0    0 -0.39806558558E+02  0.10749397075E+03  0.27124512850E+03  0.29447145122E+03  0.00000000000E+00 0.  1.
         12    1    4    4    0    0 -0.94737557379E+01 -0.19687325137E+01  0.15061969065E+03  0.15093017977E+03  0.00000000000E+00 0. -1.
        -13    1    3    3    0    0 -0.31884707894E+02 -0.41086662324E+02  0.12819737421E+03  0.13834491380E+03  0.00000000000E+00 0. -1.
         13    1    3    3    0    0  0.57138790251E+02 -0.73179241593E+02  0.11976030040E+03  0.15153406318E+03  0.00000000000E+00 0.  1.
         21    1    1    2  502  501  0.24026231939E+02  0.87406656843E+01  0.36993616833E+02  0.44968730738E+02  0.00000000000E+00 0. -1.
<scales pt_clust_5="13000.00000" pt_clust_6="13000.00000" pt_clust_7="13000.00000" pt_clust_8="13000.00000" pt_clust_9="25.56676"></scales>
<clustering>
<clus scale="   25.567">  2  9  1 -1</clus>
<clus scale="   82.756">  5  6 -1 -1</clus>
<clus scale="   94.087">  7  8 -1 -1</clus>
<clus scale="  142.510">  1  5  2 -1</clus>
<clus scale="  142.510">  1  5  2 -1</clus>
</clustering>
</event>
<event>
 9    2  0.5608219E-005  0.1082711E+03  0.7546771E-02  0.1267947E+00
          2   -1    0    0  502    0  0.00000000000E+00  0.00000000000E+00  0.86028106106E+02  0.86028106106E+02  0.00000000000E+00 0. -1.
         -1   -1    0    0    0  501 -0.00000000000E+00 -0.00000000000E+00 -0.33410939212E+03  0.33410939212E+03  0.00000000000E+00 0.  1.
         24    2    1    2    0    0 -0.27785778476E+01 -0.59939325508E+02 -0.20006652896E+03  0.22377666207E+03  0.80305262844E+02 0.  0.
         23    2    1    2    0    0  0.29506089468E+02  0.52613602756E+02  0.30600262342E+02  0.11300408858E+03  0.90524844491E+02 0.  0.
        -13    1    3    3    0    0 -0.87320984122E+01 -0.51234911144E+02 -0.20546001727E+03  0.21193179176E+03  0.00000000000E+00 0.  1.
         14    1    3    3    0    0  0.59535205646E+01 -0.87044143632E+01  0.53934883096E+01  0.11844870310E+02  0.00000000000E+00 0. -1.
        -11    1    4    4    0    0  0.19760318339E+02  0.14111618265E+02  0.59250128243E+02  0.64032692023E+02  0.00000000000E+00 0. -1.
         11    1    4    4    0    0  0.97457711293E+01  0.38501984492E+02 -0.28649865902E+02  0.48971396559E+02  0.00000000000E+00 0.  1.
         21    1    1    2  502  501 -0.26727511621E+02  0.73257227511E+01 -0.78615019398E+02  0.83356747575E+02  0.00000000000E+00 0.  1.
<scales pt_clust_5="13000.00000" pt_clust_6="13000.00000" pt_clust_7="13000.00000" pt_clust_8="13000.00000" pt_clust_9="27.71328"></scales>
<clustering>
<clus scale="   27.713">  2  9  1 -1</clus>
<clus scale="   80.305">  5  6 -1 -1</clus>
<clus scale="   90.525">  7  8 -1 -1</clus>
<clus scale="   99.884">  2  5  1 -1</clus>
<clus scale="  108.271">  1  5  2 -1</clus>
</clustering>
</event>
<event>
 9    2  0.5608219E-005  0.1401825E+03  0.7546771E-02  0.1229646E+00
         -1   -1    0    0    0  501 -0.00000000000E+00  0.00000000000E+00  0.23376171819E+03  0.23376171819E+03  0.00000000000E+00 0.  1.
          2   -1    0    0  502    0  0.00000000000E+00 -0.00000000000E+00 -0.20796056101E+03  0.20796056101E+03  0.00000000000E+00 0. -1.
         23    2    1    2    0    0  0.10667439540E+03 -0.10756448354E+02  0.14709902591E+03  0.20377436568E+03  0.91600987266E+02 0.  0.
         24    2    1    2    0    0 -0.63176894733E+01 -0.16739331775E+02 -0.73893952293E+02  0.12360361920E+03  0.97454707767E+02 0.  0.
        -13    1    4    4    0    0  0.21317971999E+02  0.34573373682E+02 -0.34083574297E+02  0.53023241458E+02  0.00000000000E+00 0.  1.
         14    1    4    4    0    0 -0.27635661473E+02 -0.51312705457E+02 -0.39810377996E+02  0.70580377744E+02  0.00000000000E+00 0. -1.
        -11    1    3    3    0    0  0.36016523370E+02  0.34560822220E+02  0.87808895598E+02  0.10100516093E+03  0.00000000000E+00 0.  1.
         11    1    3    3    0    0  0.70657872032E+02 -0.45317270574E+02  0.59290130316E+02  0.10276920475E+03  0.00000000000E+00 0. -1.
         21    1    1    2  502  501 -0.10035670593E+03  0.27495780129E+02 -0.47403916441E+02  0.11434429432E+03  0.00000000000E+00 0. -1.
<scales pt_clust_5="13000.00000" pt_clust_6="13000.00000" pt_clust_7="13000.00000" pt_clust_8="13000.00000" pt_clust_9="106.11495"></scales>
<clustering>
<clus scale="   91.601">  7  8 -1 -1</clus>
<clus scale="   97.455">  5  6 -1 -1</clus>
<clus scale="   99.083">  2  5  1 -1</clus>
<clus scale="  106.115">  2  9  1 -1</clus>
<clus scale="   99.083">  2  5  1 -1</clus>
</clustering>
</event>
<event>
 9    2  0.5608219E-005  0.2259470E+03  0.7546771E-02  0.1131311E+00
          2   -1    0    0  502    0  0.00000000000E+00  0.00000000000E+00  0.37467490709E+03  0.37467490709E+03  0.00000000000E+00 0. -1.
         -1   -1    0    0    0  501 -0.00000000000E+00 -0.00000000000E+00 -0.68480517340E+03  0.68480517340E+03  0.00000000000E+00 0.  1.
         24    2    1    2    0    0  0.12775231685E+03 -0.18739446558E+03 -0.41026286865E+03  0.47343785785E+03  0.66260423025E+02 0.  0.
         23    2    1    2    0    0 -0.82001330534E+02  0.18723014749E+03  0.30350675962E+03  0.37758544631E+03  0.93140054712E+02 0.  0.
        -13    1    3    3    0    0  0.56664335749E+02 -0.12327331336E+03 -0.28622509857E+03  0.31675221197E+03  0.00000000000E+00 0.  1.
         14    1    3    3    0    0  0.71087981105E+02 -0.64121152220E+02 -0.12403777008E+03  0.15668564588E+03  0.00000000000E+00 0. -1.
        -11    1    4    4    0    0 -0.75347447247E+01  0.65664034637E+02  0.38036247844E+02  0.76258074805E+02  0.00000000000E+00 0.  1.
         11    1    4    4    0    0 -0.74466585809E+02  0.12156611286E+03  0.26547051177E+03  0.30132737150E+03  0.00000000000E+00 0. -1.
         21    1    1    2  502  501 -0.45750986321E+02  0.16431809052E+00 -0.20337415728E+03  0.20845677633E+03  0.00000000000E+00 0.  1.
<scales pt_clust_5="13000.00000" pt_clust_6="13000.00000" pt_clust_7="13000.00000" pt_clust_8="13000.00000" pt_clust_9="45.75128"></scales>
<clustering>
<clus scale="   45.751">  2  9  1 -1</clus>
<clus scale="   66.260">  5  6 -1 -1</clus>
<clus scale="   93.140">  7  8 -1 -1</clus>
<clus scale="  216.258">  2  5  1 -1</clus>
<clus scale="  225.947">  1  5  2 -1</clus>
</clustering>
</event>
<event>
 9    2  0.5608219E-005  0.1024684E+03  0.7546771E-02  0.1280833E+00
          2   -1    0    0  502    0  0.00000000000E+00  0.00000000000E+00  0.34393782135E+03  0.34393782135E+03  0.00000000000E+00 0. -1.
         -1   -1    0    0    0  501 -0.00000000000E+00 -0.00000000000E+00 -0.93332120441E+02  0.93332120441E+02  0.00000000000E+00 0.  1.
         23    2    1    2    0    0  0.62119794981E+01 -0.17033171336E+02  0.66822998935E+02  0.11443899712E+03  0.91116701321E+02 0.  0.
         24    2    1    2    0    0  0.67860670438E+02  0.20930266141E+02  0.21692279661E+03  0.24158926394E+03  0.79162656144E+02 0.  0.
        -13    1    4    4    0    0  0.27900554660E+02  0.45328454767E+02  0.73721268747E+02  0.90928187201E+02  0.00000000000E+00 0.  1.
         14    1    4    4    0    0  0.39960115778E+02 -0.24398188627E+02  0.14320152786E+03  0.15066107674E+03  0.00000000000E+00 0. -1.
        -13    1    3    3    0    0 -0.17910895291E+02 -0.43321130771E+02  0.63041446648E+02  0.78560451481E+02  0.00000000000E+00 0.  1.
         13    1    3    3    0    0  0.24122874789E+02  0.26287959435E+02  0.37815522868E+01  0.35878545637E+02  0.00000000000E+00 0. -1.
         21    1    1    2  502  501 -0.74072649936E+02 -0.38970948043E+01 -0.33140094635E+02  0.81241680736E+02  0.00000000000E+00 0.  1.
<scales pt_clust_5="13000.00000" pt_clust_6="13000.00000" pt_clust_7="13000.00000" pt_clust_8="13000.00000" pt_clust_9="74.17510"></scales>
<clustering>
<clus scale="   74.175">  2  9  1 -1</clus>
<clus scale="   79.163">  5  6 -1 -1</clus>
<clus scale="   91.117">  7  8 -1 -1</clus>
<clus scale="   92.001">  1  5  2 -1</clus>
<clus scale="   92.001">  1  5  2 -1</clus>
</clustering>
</event>
<event>
 9    2  0.5608219E-005  0.9494543E+02  0.7546771E-02  0.1298522E+00
         -1   -1    0    0    0  501 -0.00000000000E+00  0.00000000000E+00  0.66892443783E+02  0.66892443783E+02  0.00000000000E+00 0.  1.
          2   -1    0    0  502    0  0.00000000000E+00 -0.00000000000E+00 -0.53782561005E+03  0.53782561005E+03  0.00000000000E+00 0. -1.
         23    2    1    2    0    0  0.30014317900E+02 -0.24280419701E+02  0.13124886954E+02  0.10136238882E+03  0.92799101021E+02 0.  0.
         24    2    1    2    0    0 -0.18048081100E+02  0.60651686927E+01 -0.47041785976E+03  0.47764494604E+03  0.80555646560E+02 0.  0.
        -13    1    4    4    0    0 -0.18878891758E+02 -0.33514938778E+02 -0.15271575103E+03  0.15748575900E+03  0.00000000000E+00 0.  1.
         14    1    4    4    0    0  0.83081065861E+00  0.39580107470E+02 -0.31770210872E+03  0.32015918703E+03  0.00000000000E+00 0. -1.
        -13    1    3    3    0    0 -0.32180148136E+02  0.33088408124E+01  0.65509302028E+01  0.33006439494E+02  0.00000000000E+00 0. -1.
         13    1    3    3    0    0  0.62194466036E+02 -0.27589260514E+02  0.65739567516E+01  0.68355949328E+02  0.00000000000E+00 0.  1.
         21    1    1    2  502  501 -0.11966236801E+02  0.18215251009E+02 -0.13640193465E+02  0.25710718976E+02  0.00000000000E+00 0. -1.
<scales pt_clust_5="13000.00000" pt_clust_6="13000.00000" pt_clust_7="13000.00000" pt_clust_8="13000.00000" pt_clust_9="21.79418"></scales>
<clustering>
<clus scale="   21.794">  1  9  2 -1</clus>
<clus scale="   80.556">  5  6 -1 -1</clus>
<clus scale="   83.019">  2  5  1 -1</clus>
<clus scale="   92.799">  7  8 -1 -1</clus>
<clus scale="   83.019">  2  5  1 -1</clus>
</clustering>
</event>
<event>
 9    2  0.5608219E-005  0.1106917E+03  0.7546771E-02  0.1262896E+00
         -1   -1    0    0    0  501 -0.00000000000E+00  0.00000000000E+00  0.14756469743E+03  0.14756469743E+03  0.00000000000E+00 0.  1.
          2   -1    0    0  502    0  0.00000000000E+00 -0.00000000000E+00 -0.35653930284E+03  0.35653930284E+03  0.00000000000E+00 0. -1.
         23    2    1    2    0    0 -0.19519621057E+02 -0.74560836396E+02  0.92943750845E+02  0.15093309826E+03  0.90564481994E+02 0.  0.
         24    2    1    2    0    0  0.27958653900E+02  0.56282144178E+02 -0.31354676133E+03  0.32992122096E+03  0.81160793596E+02 0.  0.
        -11    1    4    4    0    0 -0.23141044611E+02  0.29534074861E+01 -0.37498483123E+02  0.44162957306E+02  0.00000000000E+00 0.  1.
         12    1    4    4    0    0  0.51099698510E+02  0.53328736692E+02 -0.27604827820E+03  0.28575826365E+03  0.00000000000E+00 0. -1.
        -13    1    3    3    0    0  0.73015682624E+01 -0.82211302757E+02  0.41421101335E+02  0.92345648711E+02  0.00000000000E+00 0.  1.
         13    1    3    3    0    0 -0.26821189320E+02  0.76504663605E+01  0.51522649510E+02  0.58587449549E+02  0.00000000000E+00 0. -1.
         21    1    1    2  502  501 -0.84390328423E+01  0.18278692218E+02  0.11628405069E+02  0.23249681051E+02  0.00000000000E+00 0. -1.
<scales pt_clust_5="13000.00000" pt_clust_6="13000.00000" pt_clust_7="13000.00000" pt_clust_8="13000.00000" pt_clust_9="20.13276"></scales>
<clustering>
<clus scale="   20.133">  1  9  2 -1</clus>
<clus scale="   81.161">  5  6 -1 -1</clus>
<clus scale="   90.564">  7  8 -1 -1</clus>
<clus scale="  103.140">  2  5  1 -1</clus>
<clus scale="  103.140">  2  5  1 -1</clus>
</clustering>
</event>
<event>
 9    2  0.5608219E-005  0.1516626E+03  0.7546771E-02  0.1202250E+00
          2   -1    0    0  502    0  0.00000000000E+00  0.00000000000E+00  0.53766134270E+03  0.53766134270E+03  0.00000000000E+00 0. -1.
         -1   -1    0    0    0  501 -0.00000000000E+00 -0.00000000000E+00 -0.88757758033E+02  0.88757758033E+02  0.00000000000E+00 0.  1.
         23    2    1    2    0    0 -0.33170137558E+02  0.11273382961E+03  0.16884643884E+02  0.15481786723E+03  0.99369544880E+02 0.  0.
         24    2    1    2    0    0  0.44391171064E+01 -0.11450915841E+03  0.41565472004E+03  0.43848913527E+03  0.79823695368E+02 0.  0.
        -13    1    4    4    0    0  0.36270105872E+02 -0.24784536468E+02  0.14944788200E+03  0.15577054684E+03  0.00000000000E+00 0.  1.
         14    1    4    4    0    0 -0.31830988766E+02 -0.89724621941E+02  0.26620683803E+03  0.28271858843E+03  0.00000000000E+00 0. -1.
        -11    1    3    3    0    0 -0.25765597269E+02  0.36500477769E+02 -0.39558971948E+02  0.59674644043E+02  0.00000000000E+00 0.  1.
         11    1    3    3    0    0 -0.74045402889E+01  0.76233351843E+02  0.56443615833E+02  0.95143223186E+02  0.00000000000E+00 0. -1.
         21    1    1    2  502  501  0.28731020452E+02  0.17753287970E+01  0.16364220741E+02  0.33112098227E+02  0.00000000000E+00 0. -1.
<scales pt_clust_5="13000.00000" pt_clust_6="13000.00000" pt_clust_7="13000.00000" pt_clust_8="13000.00000" pt_clust_9="28.78582"></scales>
<clustering>
<clus scale="   28.786">  2  9  1 -1</clus>
<clus scale="   79.824">  5  6 -1 -1</clus>
<clus scale="   99.370">  7  8 -1 -1</clus>
<clus scale="  139.639">  1  5  2 -1</clus>
<clus scale="  139.639">  1  5  2 -1</clus>
</clustering>
</event>
<event>
 9    2  0.5608219E-005  0.1537159E+03  0.7546771E-02  0.1198641E+00
         -1   -1    0    0    0  501 -0.00000000000E+00  0.00000000000E+00  0.33991525388E+03  0.33991525388E+03  0.00000000000E+00 0.  1.
          2   -1    0    0  502    0  0.00000000000E+00 -0.00000000000E+00 -0.19647271987E+03  0.19647271987E+03  0.00000000000E+00 0. -1.
         24    2    1    2    0    0  0.10552239122E+03  0.10233410912E+02  0.18455435776E+03  0.22757008656E+03  0.80548963866E+02 0.  0.
         23    2    1    2    0    0 -0.11318460300E+03 -0.50642029283E+02 -0.13482545078E+03  0.20647625433E+03  0.95284688898E+02 0.  0.
        -13    1    3    3    0    0  0.94364980644E+02  0.11213987397E+02  0.85335322983E+02  0.12772086922E+03  0.00000000000E+00 0.  1.
         14    1    3    3    0    0  0.11157410576E+02 -0.98057648499E+00  0.99219034781E+02  0.99849217342E+02  0.00000000000E+00 0. -1.
        -11    1    4    4    0    0 -0.63197817979E+02 -0.31974903839E+02 -0.13574328735E+03  0.15310976041E+03  0.00000000000E+00 0. -1.
         11    1    4    4    0    0 -0.49986785021E+02 -0.18667125444E+02  0.91783657267E+00  0.53366493917E+02  0.00000000000E+00 0.  1.
         21    1    1    2  502  501  0.76622117792E+01  0.40408618371E+02  0.93713627016E+02  0.10234163286E+03  0.00000000000E+00 0.  1.
<scales pt_clust_5="13000.00000" pt_clust_6="13000.00000" pt_clust_7="13000.00000" pt_clust_8="13000.00000" pt_clust_9="41.12865"></scales>
<clustering>
<clus scale="   41.129">  1  9  2 -1</clus>
<clus scale="   80.549">  5  6 -1 -1</clus>
<clus scale="   95.285">  7  8 -1 -1</clus>
<clus scale="  145.043">  1  5  2 -1</clus>
<clus scale="  153.716">  2  5  1 -1</clus>
</clustering>
</event>
<event>
 9    2  0.5608219E-005  0.9260160E+02  0.7546771E-02  0.1303520E+00
         -1   -1    0    0    0  501 -0.00000000000E+00  0.00000000000E+00  0.48731422255E+02  0.48731422255E+02  0.00000000000E+00 0.  1.
          2   -1    0    0  502    0  0.00000000000E+00 -0.00000000000E+00 -0.35922256116E+03  0.35922256116E+03  0.00000000000E+00 0. -1.
         24    2    1    2    0    0 -0.98806278160E+01  0.10536336083E+02 -0.23117299341E+02  0.84461143250E+02  0.79941441106E+02 0.  0.
         23    2    1    2    0    0  0.17186102049E+02  0.83411066279E+01 -0.28856711433E+03  0.30321596413E+03  0.91126314886E+02 0.  0.
        -13    1    3    3    0    0 -0.11779226290E+02 -0.33457350673E+02 -0.18989033512E+02  0.40233417451E+02  0.00000000000E+00 0.  1.
         14    1    3    3    0    0  0.18985984745E+01  0.43993686756E+02 -0.41282658285E+01  0.44227725798E+02  0.00000000000E+00 0. -1.
        -13    1    4    4    0    0 -0.26813818262E+02  0.23487511880E+02 -0.58616808000E+02  0.68604476853E+02  0.00000000000E+00 0.  1.
         13    1    4    4    0    0  0.43999920311E+02 -0.15146405252E+02 -0.22995030633E+03  0.23461148727E+03  0.00000000000E+00 0. -1.
         21    1    1    2  502  501 -0.73054742327E+01 -0.18877442711E+02  0.11932747714E+01  0.20276876035E+02  0.00000000000E+00 0.  1.
<scales pt_clust_5="13000.00000" pt_clust_6="13000.00000" pt_clust_7="13000.00000" pt_clust_8="13000.00000" pt_clust_9="20.24173"></scales>
<clustering>
<clus scale="   20.242">  1  9  2 -1</clus>
<clus scale="   79.941">  5  6 -1 -1</clus>
<clus scale="   81.619">  1  5  2 -1</clus>
<clus scale="   91.126">  7  8 -1 -1</clus>
<clus scale="   92.602">  2  5  1 -1</clus>
</clustering>
</event>
<event>
 9    2  0.5608219E-005  0.1411562E+03  0.7546771E-02  0.1213917E+00
         -1   -1    0    0    0  501 -0.00000000000E+00  0.00000000000E+00  0.18960911625E+03  0.18960911625E+03  0.00000000000E+00 0.  1.
          2   -1    0    0  502    0  0.00000000000E+00 -0.00000000000E+00 -0.16479670143E+03  0.16479670143E+03  0.00000000000E+00 0. -1.
         24    2    1    2    0    0 -0.88114530951E+02 -0.79718415160E+01  0.62103481322E+02  0.13510833458E+03  0.81053678880E+02 0.  0.
         23    2    1    2    0    0  0.11660267058E+03  0.11326295864E+01 -0.79454268768E+02  0.16795466914E+03  0.91095139421E+02 0.  0.
        -11    1    3    3    0    0 -0.54761860393E+02  0.10886836532E+02  0.76040280680E+02  0.94337208191E+02  0.00000000000E+00 0.  1.
         12    1    3    3    0    0 -0.33352670557E+02 -0.18858678048E+02 -0.13936799358E+02  0.40771126393E+02  0.00000000000E+00 0. -1.
        -13    1    4    4    0    0  0.27480412386E+02  0.63401497559E+01  0.19799532799E+02  0.34458555728E+02  0.00000000000E+00 0.  1.
         13    1    4    4    0    0  0.89122258189E+02 -0.52075201695E+01 -0.99253801567E+02  0.13349611341E+03  0.00000000000E+00 0. -1.
         21    1    1    2  502  501 -0.28488139625E+02  0.68392119296E+01  0.42163202262E+02  0.51342813948E+02  0.00000000000E+00 0.  1.
<scales pt_clust_5="13000.00000" pt_clust_6="13000.00000" pt_clust_7="13000.00000" pt_clust_8="13000.00000" pt_clust_9="29.29759"></scales>
<clustering>
<clus scale="   29.298">  1  9  2 -1</clus>
<clus scale="   81.054">  5  6 -1 -1</clus>
<clus scale="   91.095">  7  8 -1 -1</clus>
<clus scale="  134.894">  1  5  2 -1</clus>
<clus scale="  141.156">  2  5  1 -1</clus>
</clustering>
</event>
<event>
 9    2  0.5608219E-005  0.8953433E+02  0.7546771E-02  0.1306099E+00
          2   -1    0    0  502    0  0.00000000000E+00  0.00000000000E+00  0.18059516759E+03  0.18059516759E+03  0.00000000000E+00 0. -1.
         -1   -1    0    0    0  501 -0.00000000000E+00 -0.00000000000E+00 -0.13815758421E+03  0.13815758421E+03  0.00000000000E+00 0.  1.
         23    2    1    2    0    0  0.22538131370E+02  0.13918740345E+02 -0.77319866584E+02  0.11707934228E+03  0.83830256601E+02 0.  0.
         24    2    1    2    0    0 -0.15897207623E+02  0.32367034216E+02  0.12688653717E+03  0.15437331777E+03  0.80190908528E+02 0.  0.
        -13    1    4    4    0    0 -0.31603355245E+02 -0.17084514819E+02  0.55809719338E+02  0.66373017725E+02  0.00000000000E+00 0.  1.
         14    1    4    4    0    0  0.15706147622E+02  0.49451549035E+02  0.71076817834E+02  0.88000300048E+02  0.00000000000E+00 0. -1.
        -13    1    3    3    0    0  0.28607145458E+02  0.46268169846E+02 -0.41397560970E+02  0.68358396459E+02  0.00000000000E+00 0. -1.
         13    1    3    3    0    0 -0.60690140881E+01 -0.32349429501E+02 -0.35922305614E+02  0.48720945821E+02  0.00000000000E+00 0.  1.
         21    1    1    2  502  501 -0.66409237468E+01 -0.46285774561E+02 -0.71290872142E+01  0.47300091748E+02  0.00000000000E+00 0.  1.
<scales pt_clust_5="13000.00000" pt_clust_6="13000.00000" pt_clust_7="13000.00000" pt_clust_8="13000.00000" pt_clust_9="46.75976"></scales>
<clustering>
<clus scale="   46.760">  2  9  1 -1</clus>
<clus scale="   80.191">  5  6 -1 -1</clus>
<clus scale="   83.830">  7  8 -1 -1</clus>
<clus scale="   86.136">  1  5  2 -1</clus>
<clus scale="   86.136">  1  5  2 -1</clus>
</clustering>
</event>
<event>
 9    2  0.5608219E-005  0.9272267E+02  0.7546771E-02  0.1302716E+00
         -1   -1    0    0    0  501 -0.00000000000E+00  0.00000000000E+00  0.92782938923E+02  0.92782938923E+02  0.00000000000E+00 0.  1.
          2   -1    0    0  502    0  0.00000000000E+00 -0.00000000000E+00 -0.15663218656E+03  0.15663218656E+03  0.00000000000E+00 0. -1.
         24    2    1    2    0    0  0.20810479574E+02  0.13615431599E+02  0.26336648201E+02  0.89709695355E+02  0.82071641658E+02 0.  0.
         23    2    1    2    0    0  0.18159073978E+01 -0.57511282431E+01 -0.97735545229E+02  0.13458974060E+03  0.92335196312E+02 0.  0.
        -13    1    3    3    0    0  0.32712730257E+02  0.37160346707E+02  0.36425577767E+02  0.61464109884E+02  0.00000000000E+00 0.  1.
         14    1    3    3    0    0 -0.11902250683E+02 -0.23544915108E+02 -0.10088929565E+02  0.28245585470E+02  0.00000000000E+00 0. -1.
        -11    1    4    4    0    0  0.42050556312E+02 -0.73620480789E+01 -0.20213926961E+02  0.47234011911E+02  0.00000000000E+00 0.  1.
         11    1    4    4    0    0 -0.40234648914E+02  0.16109198357E+01 -0.77521618268E+02  0.87355728689E+02  0.00000000000E+00 0. -1.
         21    1    1    2  502  501 -0.22626386971E+02 -0.78643033556E+01  0.75496493890E+01  0.25115689530E+02  0.00000000000E+00 0. -1.
<scales pt_clust_5="13000.00000" pt_clust_6="13000.00000" pt_clust_7="13000.00000" pt_clust_8="13000.00000" pt_clust_9="23.95414"></scales>
<clustering>
<clus scale="   23.954">  1  9  2 -1</clus>
<clus scale="   82.072">  5  6 -1 -1</clus>
<clus scale="   82.507">  1  5  2 -1</clus>
<clus scale="   92.335">  7  8 -1 -1</clus>
<clus scale="   92.723">  2  5  1 -1</clus>
</clustering>
</event>
<event>
 9    2  0.5608219E-005  0.1035699E+03  0.7546771E-02  0.1278331E+00
          4   -1    0    0  502    0  0.00000000000E+00  0.00000000000E+00  0.64336977884E+02  0.64336977884E+02  0.00000000000E+00 0. -1.
         -3   -1    0    0    0  501 -0.00000000000E+00 -0.00000000000E+00 -0.57320272726E+03  0.57320272726E+03  0.00000000000E+00 0.  1.
         24    2    1    2    0    0 -0.57516555090E+02  0.61863929623E+02 -0.28120871042E+03  0.30419827084E+03  0.79516974739E+02 0.  0.
         23    2    1    2    0    0  0.30570550183E+02 -0.30324925144E+02  0.10921978498E+01  0.10086130757E+03  0.91201155943E+02 0.  0.
        -13    1    3    3    0    0 -0.67885021813E+02  0.32708693655E+02 -0.13364477552E+03  0.15342477261E+03  0.00000000000E+00 0.  1.
         14    1    3    3    0    0  0.10368466722E+02  0.29155235968E+02 -0.14756393490E+03  0.15077349823E+03  0.00000000000E+00 0. -1.
        -13    1    4    4    0    0  0.53460711211E+02 -0.40701948485E+02 -0.17695607334E+02  0.69482593306E+02  0.00000000000E+00 0.  1.
         13    1    4    4    0    0 -0.22890161028E+02  0.10377023341E+02  0.18787805184E+02  0.31378714265E+02  0.00000000000E+00 0. -1.
         21    1    1    2  502  501  0.26946004907E+02 -0.31539004479E+02 -0.22874923681E+03  0.23248012673E+03  0.00000000000E+00 0. -1.
<scales pt_clust_5="13000.00000" pt_clust_6="13000.00000" pt_clust_7="13000.00000" pt_clust_8="13000.00000" pt_clust_9="41.48248"></scales>
<clustering>
<clus scale="   41.482">  2  9  1 -1</clus>
<clus scale="   79.517">  5  6 -1 -1</clus>
<clus scale="   91.201">  7  8 -1 -1</clus>
<clus scale="   93.445">  2  5  1 -1</clus>
<clus scale="  103.570">  1  5  2 -1</clus>
</clustering>
</event>
<event>
 9    2  0.5608219E-005  0.2760783E+03  0.7546771E-02  0.1098395E+00
          2   -1    0    0  502    0  0.00000000000E+00  0.00000000000E+00  0.94615064512E+03  0.94615064512E+03  0.00000000000E+00 0. -1.
         -1   -1    0    0    0  501 -0.00000000000E+00 -0.00000000000E+00 -0.29937920525E+03  0.29937920525E+03  0.00000000000E+00 0.  1.
         23    2    1    2    0    0 -0.83390819624E+02  0.24036751849E+03  0.20918442502E+02  0.27139198833E+03  0.92116542203E+02 0.  0.
         24    2    1    2    0    0  0.64286832471E+02 -0.25346809717E+03  0.77572543940E+03  0.82248583810E+03  0.79712755758E+02 0.  0.
        -11    1    4    4    0    0  0.54242833628E+02 -0.66060289453E+02  0.22767795152E+03  0.24319435941E+03  0.00000000000E+00 0.  1.
         12    1    4    4    0    0  0.10043998843E+02 -0.18740780772E+03  0.54804748788E+03  0.57929147869E+03  0.00000000000E+00 0. -1.
        -11    1    3    3    0    0  0.16409110589E+02  0.59270637753E+02 -0.10031940684E+02  0.62312978133E+02  0.00000000000E+00 0.  1.
         11    1    3    3    0    0 -0.99799930212E+02  0.18109688074E+03  0.30950383186E+02  0.20907901019E+03  0.00000000000E+00 0. -1.
         21    1    1    2  502  501  0.19103987153E+02  0.13100578680E+02 -0.14987244203E+03  0.15165202394E+03  0.00000000000E+00 0. -1.
<scales pt_clust_5="13000.00000" pt_clust_6="13000.00000" pt_clust_7="13000.00000" pt_clust_8="13000.00000" pt_clust_9="23.16436"></scales>
<clustering>
<clus scale="   23.164">  2  9  1 -1</clus>
<clus scale="   79.713">  5  6 -1 -1</clus>
<clus scale="   92.117">  7  8 -1 -1</clus>
<clus scale="  272.191">  1  5  2 -1</clus>
<clus scale="  272.191">  1  5  2 -1</clus>
</clustering>
</event>
<event>
 9    2  0.5608219E-005  0.1424843E+03  0.7546771E-02  0.1211327E+00
         -1   -1    0    0    0  501 -0.00000000000E+00  0.00000000000E+00  0.11936225043E+03  0.11936225043E+03  0.00000000000E+00 0.  1.
          2   -1    0    0  502    0  0.00000000000E+00 -0.00000000000E+00 -0.22165349733E+03  0.22165349733E+03  0.00000000000E+00 0. -1.
         24    2    1    2    0    0  0.10269064177E+03  0.38850127680E+02 -0.39349379316E+02  0.14383618288E+03  0.84177036811E+02 0.  0.
         23    2    1    2    0    0 -0.94309653150E+02 -0.59026998896E+02 -0.84538845636E+02  0.16645861822E+03  0.90460808537E+02 0.  0.
        -13    1    3    3    0    0  0.56791906072E+02  0.58339769792E+02 -0.18403757217E+01  0.81438543194E+02  0.00000000000E+00 0.  1.
         14    1    3    3    0    0  0.45898735696E+02 -0.19489642112E+02 -0.37509003594E+02  0.62397639689E+02  0.00000000000E+00 0. -1.
        -11    1    4    4    0    0 -0.37576897604E+02 -0.72392668901E+02 -0.67105613233E+02  0.10562142336E+03  0.00000000000E+00 0. -1.
         11    1    4    4    0    0 -0.56732755546E+02  0.13365670005E+02 -0.17433232402E+02  0.60837194861E+02  0.00000000000E+00 0.  1.
         21    1    1    2  502  501 -0.83809886178E+01  0.20176871215E+02  0.21596978058E+02  0.30720946657E+02  0.00000000000E+00 0. -1.
<scales pt_clust_5="13000.00000" pt_clust_6="13000.00000" pt_clust_7="13000.00000" pt_clust_8="13000.00000" pt_clust_9="21.84827"></scales>
<clustering>
<clus scale="   21.848">  1  9  2 -1</clus>
<clus scale="   84.177">  5  6 -1 -1</clus>
<clus scale="   90.461">  7  8 -1 -1</clus>
<clus scale="  138.580">  1  5  2 -1</clus>
<clus scale="  142.484">  2  5  1 -1</clus>
</clustering>
</event>
<event>
 9    2  0.5608219E-005  0.1116391E+03  0.7546771E-02  0.1259857E+00
         -1   -1    0    0    0  501 -0.00000000000E+00  0.00000000000E+00  0.11147863775E+03  0.11147863775E+03  0.00000000000E+00 0.  1.
          2   -1    0    0  502    0  0.00000000000E+00 -0.00000000000E+00 -0.19337455823E+03  0.19337455823E+03  0.00000000000E+00 0. -1.
         24    2    1    2    0    0 -0.61644253685E+02  0.62202235560E+02  0.26243234111E+02  0.12196838849E+03  0.80736908126E+02 0.  0.
         23    2    1    2    0    0  0.28069934111E+02 -0.20459721971E+02 -0.72130620974E+02  0.11833802701E+03  0.87146662191E+02 0.  0.
        -13    1    3    3    0    0 -0.13673623286E+02  0.61737373424E+02 -0.69754635651E+01  0.63617044438E+02  0.00000000000E+00 0.  1.
         14    1    3    3    0    0 -0.47970630399E+02  0.46486213571E+00  0.33218697676E+02  0.58351344055E+02  0.00000000000E+00 0. -1.
        -11    1    4    4    0    0  0.45652142252E+02 -0.39785116942E+02 -0.69344470171E+02  0.92063180292E+02  0.00000000000E+00 0. -1.
         11    1    4    4    0    0 -0.17582208141E+02  0.19325394971E+02 -0.27861508034E+01  0.26274846721E+02  0.00000000000E+00 0.  1.
         21    1    1    2  502  501  0.33574319574E+02 -0.41742513588E+02 -0.36008533621E+02  0.64546780470E+02  0.00000000000E+00 0.  1.
<scales pt_clust_5="13000.00000" pt_clust_6="13000.00000" pt_clust_7="13000.00000" pt_clust_8="13000.00000" pt_clust_9="53.56932"></scales>
<clustering>
<clus scale="   53.569">  2  9  1 -1</clus>
<clus scale="   80.737">  5  6 -1 -1</clus>
<clus scale="   87.147">  7  8 -1 -1</clus>
<clus scale="  106.711">  1  5  2 -1</clus>
<clus scale="   53.569">  2  5  1 -1</clus>
</clustering>
</event>
<event>
 9    2  0.5608219E-005  0.1179583E+03  0.7546771E-02  0.1251883E+00
         -1   -1    0    0    0  501 -0.00000000000E+00  0.00000000000E+00  0.37803443867E+02  0.37803443867E+02  0.00000000000E+00 0.  1.
          2   -1    0    0  502    0  0.00000000000E+00 -0.00000000000E+00 -0.73654806839E+03  0.73654806839E+03  0.00000000000E+00 0. -1.
         23    2    1    2    0    0 -0.15022917489E+02 -0.54091971297E+02 -0.15339016810E+03  0.18718947812E+03  0.91431546191E+02 0.  0.
         24    2    1    2    0    0 -0.54535711150E+01  0.81326805351E+02 -0.54164034297E+03  0.55288642458E+03  0.75268497065E+02 0.  0.
        -11    1    4    4    0    0  0.69551056168E+01  0.87221535603E+02 -0.35062523799E+03  0.36137795627E+03  0.00000000000E+00 0.  1.
         12    1    4    4    0    0 -0.12408676732E+02 -0.58947302523E+01 -0.19101510498E+03  0.19150846831E+03  0.00000000000E+00 0. -1.
        -13    1    3    3    0    0 -0.42754238939E+02 -0.45605201897E+02 -0.14353995044E+03  0.15656141530E+03  0.00000000000E+00 0.  1.
         13    1    3    3    0    0  0.27731321450E+02 -0.84867694004E+01 -0.98502176627E+01  0.30628062822E+02  0.00000000000E+00 0. -1.
         21    1    1    2  502  501  0.20476488604E+02 -0.27234834054E+02 -0.37141134476E+01  0.34275609552E+02  0.00000000000E+00 0. -1.
<scales pt_clust_5="13000.00000" pt_clust_6="13000.00000" pt_clust_7="13000.00000" pt_clust_8="13000.00000" pt_clust_9="34.07378"></scales>
<clustering>
<clus scale="   34.074">  1  9  2 -1</clus>
<clus scale="   75.268">  5  6 -1 -1</clus>
<clus scale="   91.432">  7  8 -1 -1</clus>
<clus scale="  105.923">  2  5  1 -1</clus>
<clus scale="  105.923">  2  5  1 -1</clus>
</clustering>
</event>
<event>
 9    2  0.5608219E-005  0.1445162E+03  0.7546771E-02  0.1210330E+00
          2   -1    0    0  502    0  0.00000000000E+00  0.00000000000E+00  0.74231181511E+03  0.74231181511E+03  0.00000000000E+00 0. -1.
         -1   -1    0    0    0  501 -0.00000000000E+00 -0.00000000000E+00 -0.57167429229E+02  0.57167429229E+02  0.00000000000E+00 0.  1.
         23    2    1    2    0    0 -0.10378717174E+03 -0.37845690477E+02  0.27451640005E+03  0.30969602026E+03  0.91369019726E+02 0.  0.
         24    2    1    2    0    0  0.57955842378E+02  0.11487928513E+03  0.35238676197E+03  0.38288736067E+03  0.76617042084E+02 0.  0.
        -13    1    4    4    0    0  0.52549567489E+02  0.83048825040E+02  0.32805343554E+03  0.34245820322E+03  0.00000000000E+00 0.  1.
         14    1    4    4    0    0  0.54062748888E+01  0.31830460087E+02  0.24333326431E+02  0.40429157458E+02  0.00000000000E+00 0. -1.
        -13    1    3    3    0    0 -0.78515710268E+02 -0.37927796146E+02  0.27037441957E+03  0.28408724230E+03  0.00000000000E+00 0. -1.
         13    1    3    3    0    0 -0.25271461471E+02  0.82105669048E-01  0.41419804718E+01  0.25608777957E+02  0.00000000000E+00 0.  1.
         21    1    1    2  502  501  0.45831329361E+02 -0.77033594649E+02  0.58241223871E+02  0.10689586341E+03  0.00000000000E+00 0.  1.
<scales pt_clust_5="13000.00000" pt_clust_6="13000.00000" pt_clust_7="13000.00000" pt_clust_8="13000.00000" pt_clust_9="89.63641"></scales>
<clustering>
<clus scale="   76.617">  5  6 -1 -1</clus>
<clus scale="   89.636">  2  9  1 -1</clus>
<clus scale="   91.369">  7  8 -1 -1</clus>
<clus scale="  135.672">  1  5  2 -1</clus>
<clus scale="  135.672">  1  5  2 -1</clus>
</clustering>
</event>
<event>
 9    2  0.5608219E-005  0.1131535E+03  0.7546771E-02  0.1261191E+00
         -3   -1    0    0    0  501 -0.00000000000E+00  0.00000000000E+00  0.29473378210E+03  0.29473378210E+03  0.00000000000E+00 0.  1.
          4   -1    0    0  502    0  0.00000000000E+00 -0.00000000000E+00 -0.89006330481E+02  0.89006330481E+02  0.00000000000E+00 0. -1.
         23    2    1    2    0    0  0.44146165790E+02 -0.42118504781E+02  0.22429270205E+03  0.25124514306E+03  0.95362745964E+02 0.  0.
         24    2    1    2    0    0 -0.55738934861E+02  0.25568477525E+02 -0.35432367324E+02  0.10617396405E+03  0.79100455658E+02 0.  0.
        -13    1    4    4    0    0 -0.13673755506E+02  0.40651927962E+02  0.82574542734E+01  0.43677641737E+02  0.00000000000E+00 0.  1.
         14    1    4    4    0    0 -0.42065179356E+02 -0.15083450437E+02 -0.43689821597E+02  0.62496322312E+02  0.00000000000E+00 0. -1.
        -11    1    3    3    0    0 -0.23629126337E+02  0.10339982113E+02  0.72173928832E+02  0.76644157276E+02  0.00000000000E+00 0. -1.
         11    1    3    3    0    0  0.67775292127E+02 -0.52458486894E+02  0.15211877322E+03  0.17460098578E+03  0.00000000000E+00 0.  1.
         21    1    1    2  502  501  0.11592769071E+02  0.16550027256E+02  0.16867116892E+02  0.26321005474E+02  0.00000000000E+00 0.  1.
<scales pt_clust_5="13000.00000" pt_clust_6="13000.00000" pt_clust_7="13000.00000" pt_clust_8="13000.00000" pt_clust_9="20.20633"></scales>
<clustering>
<clus scale="   20.206">  1  9  2 -1</clus>
<clus scale="   79.100">  5  6 -1 -1</clus>
<clus scale="   95.363">  7  8 -1 -1</clus>
<clus scale="   99.833">  2  5  1 -1</clus>
<clus scale="   99.833">  2  5  1 -1</clus>
</clustering>
</event>
<event>
 9    2  0.5608219E-005  0.9390362E+02  0.7546771E-02  0.1299124E+00
         -1   -1    0    0    0  501 -0.00000000000E+00  0.00000000000E+00  0.44546294450E+02  0.44546294450E+02  0.00000000000E+00 0.  1.
          2   -1    0    0  502    0  0.00000000000E+00 -0.00000000000E+00 -0.42199417085E+03  0.42199417085E+03  0.00000000000E+00 0. -1.
         24    2    1    2    0    0 -0.88486894783E+01 -0.76082054123E+01 -0.20192240626E+02  0.84624930039E+02  0.81347821775E+02 0.  0.
         23    2    1    2    0    0  0.25479177172E+02 -0.11743988080E+02 -0.33451295016E+03  0.34773498139E+03  0.90739152153E+02 0.  0.
        -11    1    3    3    0    0 -0.41668369859E+02 -0.10630571237E+02  0.47888945855E+01  0.43268875683E+02  0.00000000000E+00 0.  1.
         12    1    3    3    0    0  0.32819680380E+02  0.30223658245E+01 -0.24981135212E+02  0.41356054356E+02  0.00000000000E+00 0. -1.
        -13    1    4    4    0    0  0.50317618650E+02  0.20234295796E+02 -0.17886194906E+03  0.18690341434E+03  0.00000000000E+00 0. -1.
         13    1    4    4    0    0 -0.24838441478E+02 -0.31978283876E+02 -0.15565100110E+03  0.16083156704E+03  0.00000000000E+00 0.  1.
         21    1    1    2  502  501 -0.16630487694E+02  0.19352193492E+02 -0.22742685613E+02  0.34180553869E+02  0.00000000000E+00 0. -1.
<scales pt_clust_5="13000.00000" pt_clust_6="13000.00000" pt_clust_7="13000.00000" pt_clust_8="13000.00000" pt_clust_9="25.51628"></scales>
<clustering>
<clus scale="   25.516">  1  9  2 -1</clus>
<clus scale="   81.348">  5  6 -1 -1</clus>
<clus scale="   84.863">  1  5  2 -1</clus>
<clus scale="   90.739">  7  8 -1 -1</clus>
<clus scale="   93.904">  2  5  1 -1</clus>
</clustering>
</event>
